sid,DOI,figureid,fignum,sampleid,samplename,composition,Temperature,Electrical conductivity,Power factor,Seebeck coefficient,Thermal conductivity,ZT,Electrical resistivity,Figure of merit Z
21244,10.1073/pnas.1617663113,17144,4(F),20540,FeNb0.9Ti0.1Sb,Fe1.00Nb0.89Ti0.1Sb0.99,350,450190,0.007765,0.00012917,10.402,0.25591,0.0000022213,0.0007464911
21244,10.1073/pnas.1617663113,17144,4(F),20540,FeNb0.9Ti0.1Sb,Fe1.00Nb0.89Ti0.1Sb0.99,400,415460,0.00758,0.00013891,9.9254,0.31617,0.000002407,0.0007636972
21244,10.1073/pnas.1617663113,17144,4(F),20540,FeNb0.9Ti0.1Sb,Fe1.00Nb0.89Ti0.1Sb0.99,450,380720,0.007395,0.00014866,9.4488,0.37642,0.0000026266,0.0007826391
21244,10.1073/pnas.1617663113,17144,4(F),20540,FeNb0.9Ti0.1Sb,Fe1.00Nb0.89Ti0.1Sb0.99,500,345980,0.00721,0.0001584,8.9722,0.43668,0.0000028903,0.0008035933
21244,10.1073/pnas.1617663113,17144,4(F),20540,FeNb0.9Ti0.1Sb,Fe1.00Nb0.89Ti0.1Sb0.99,550,311240,0.007025,0.00016814,8.4956,0.49693,0.000003213,0.0008268986
21244,10.1073/pnas.1617663113,17144,4(F),20540,FeNb0.9Ti0.1Sb,Fe1.00Nb0.89Ti0.1Sb0.99,600,276500,0.0068401,0.00017788,8.019,0.55718,0.0000036166,0.0008529867
21244,10.1073/pnas.1617663113,17144,4(F),20540,FeNb0.9Ti0.1Sb,Fe1.00Nb0.89Ti0.1Sb0.99,650,241770,0.0066551,0.00018763,7.5424,0.61744,0.0000041362,0.0008823584
21244,10.1073/pnas.1617663113,17144,4(F),20540,FeNb0.9Ti0.1Sb,Fe1.00Nb0.89Ti0.1Sb0.99,700,207030,0.0064701,0.00019737,7.0658,0.67769,0.0000048302,0.0009156925
21244,10.1073/pnas.1617663113,17144,4(F),20540,FeNb0.9Ti0.1Sb,Fe1.00Nb0.89Ti0.1Sb0.99,750,172290,0.0062851,0.00020711,6.5892,0.73795,0.0000058042,0.0009538487
21244,10.1073/pnas.1617663113,17144,4(F),20540,FeNb0.9Ti0.1Sb,Fe1.00Nb0.89Ti0.1Sb0.99,800,137550,0.0061001,0.00021685,6.1126,0.7982,0.0000072701,0.000997955
21244,10.1073/pnas.1617663113,17144,4(F),20540,FeNb0.9Ti0.1Sb,Fe1.00Nb0.89Ti0.1Sb0.99,850,102810,0.0059151,0.0002266,5.636,0.85845,0.0000097267,0.0010495209
21244,10.1073/pnas.1617663113,17144,4(F),20540,FeNb0.9Ti0.1Sb,Fe1.00Nb0.89Ti0.1Sb0.99,900,68075,0.0057301,0.00023634,5.1594,0.91871,0.0000146897,0.0011106136
21244,10.1073/pnas.1617663113,17144,4(F),20540,FeNb0.9Ti0.1Sb,Fe1.00Nb0.89Ti0.1Sb0.99,950,33337,0.0055451,0.00024608,4.6828,0.97896,0.0000299967,0.001184142
21244,10.1073/pnas.1617663113,17209,4(B),20540,FeNb0.9Ti0.1Sb,Fe1.00Nb0.89Ti0.1Sb0.99,300,,,0.00011943,,,,
21244,10.1073/pnas.1617663113,17144,4(F),20640,FeNb.7Ti0.3Sb,Fe1.02Nb0.69Ti0.3Sb0.98,350,384360,0.0036909,0.000098097,6.2388,0.19751,0.0000026017,0.0005916042
21244,10.1073/pnas.1617663113,17144,4(F),20640,FeNb.7Ti0.3Sb,Fe1.02Nb0.69Ti0.3Sb0.98,400,361630,0.0037835,0.00010543,6.0695,0.26213,0.0000027653,0.0006233627
21244,10.1073/pnas.1617663113,17144,4(F),20640,FeNb.7Ti0.3Sb,Fe1.02Nb0.69Ti0.3Sb0.98,450,338900,0.0038762,0.00011276,5.9001,0.32675,0.0000029507,0.0006569719
21244,10.1073/pnas.1617663113,17144,4(F),20640,FeNb.7Ti0.3Sb,Fe1.02Nb0.69Ti0.3Sb0.98,500,316170,0.0039689,0.0001201,5.7308,0.39137,0.0000031629,0.000692556
21244,10.1073/pnas.1617663113,17144,4(F),20640,FeNb.7Ti0.3Sb,Fe1.02Nb0.69Ti0.3Sb0.98,550,293440,0.0040615,0.00012743,5.5614,0.45599,0.0000034079,0.0007303017
21244,10.1073/pnas.1617663113,17144,4(F),20640,FeNb.7Ti0.3Sb,Fe1.02Nb0.69Ti0.3Sb0.98,600,270710,0.0041542,0.00013476,5.3921,0.52061,0.000003694,0.0007704234
21244,10.1073/pnas.1617663113,17144,4(F),20640,FeNb.7Ti0.3Sb,Fe1.02Nb0.69Ti0.3Sb0.98,650,247980,0.0042468,0.00014209,5.2227,0.58523,0.0000040326,0.0008131426
21244,10.1073/pnas.1617663113,17144,4(F),20640,FeNb.7Ti0.3Sb,Fe1.02Nb0.69Ti0.3Sb0.98,700,225240,0.0043395,0.00014943,5.0534,0.64986,0.0000044397,0.0008587288
21244,10.1073/pnas.1617663113,17144,4(F),20640,FeNb.7Ti0.3Sb,Fe1.02Nb0.69Ti0.3Sb0.98,750,202510,0.0044322,0.00015676,4.884,0.71448,0.000004938,0.0009074939
21244,10.1073/pnas.1617663113,17144,4(F),20640,FeNb.7Ti0.3Sb,Fe1.02Nb0.69Ti0.3Sb0.98,800,179780,0.0045248,0.00016409,4.7147,0.7791,0.0000055624,0.0009597217
21244,10.1073/pnas.1617663113,17144,4(F),20640,FeNb.7Ti0.3Sb,Fe1.02Nb0.69Ti0.3Sb0.98,850,157050,0.0046175,0.00017143,4.5453,0.84372,0.0000063674,0.0010158845
21244,10.1073/pnas.1617663113,17144,4(F),20640,FeNb.7Ti0.3Sb,Fe1.02Nb0.69Ti0.3Sb0.98,900,134320,0.0047101,0.00017876,4.376,0.90834,0.0000074449,0.0010763483
21244,10.1073/pnas.1617663113,17144,4(F),20640,FeNb.7Ti0.3Sb,Fe1.02Nb0.69Ti0.3Sb0.98,950,111590,0.0048028,0.00018609,4.2066,0.97296,0.0000089614,0.0011417297
21244,10.1073/pnas.1617663113,17144,4(F),20641,FeNb0.6Ti0.4Sb,Fe1.03Nb0.95Ti0.04Sb0.98,350,209550,0.0082603,0.00019235,11.686,0.26639,0.0000047721,0.0007068544
21244,10.1073/pnas.1617663113,17144,4(F),20641,FeNb0.6Ti0.4Sb,Fe1.03Nb0.95Ti0.04Sb0.98,400,193090,0.0079144,0.00020479,11.198,0.29787,0.0000051789,0.0007067691
21244,10.1073/pnas.1617663113,17144,4(F),20641,FeNb0.6Ti0.4Sb,Fe1.03Nb0.95Ti0.04Sb0.98,450,176630,0.0075686,0.00021685,10.709,0.32936,0.0000056616,0.0007067513
21244,10.1073/pnas.1617663113,17144,4(F),20641,FeNb0.6Ti0.4Sb,Fe1.03Nb0.95Ti0.04Sb0.98,500,160180,0.0072227,0.00022752,10.221,0.36085,0.000006243,0.000706653
21244,10.1073/pnas.1617663113,17144,4(F),20641,FeNb0.6Ti0.4Sb,Fe1.03Nb0.95Ti0.04Sb0.98,550,143720,0.0068768,0.00023663,9.732,0.39234,0.000006958,0.0007066173
21244,10.1073/pnas.1617663113,17144,4(F),20641,FeNb0.6Ti0.4Sb,Fe1.03Nb0.95Ti0.04Sb0.98,600,127260,0.006531,0.00024457,9.2436,0.42383,0.0000078579,0.0007065429
21244,10.1073/pnas.1617663113,17144,4(F),20641,FeNb0.6Ti0.4Sb,Fe1.03Nb0.95Ti0.04Sb0.98,650,110800,0.0061851,0.00025204,8.7551,0.45531,0.0000090253,0.0007064568
21244,10.1073/pnas.1617663113,17144,4(F),20641,FeNb0.6Ti0.4Sb,Fe1.03Nb0.95Ti0.04Sb0.98,700,94346,0.0058392,0.00025984,8.2666,0.4868,0.0000105993,0.0007063605
21244,10.1073/pnas.1617663113,17144,4(F),20641,FeNb0.6Ti0.4Sb,Fe1.03Nb0.95Ti0.04Sb0.98,750,77889,0.0054934,0.00026858,7.7781,0.51829,0.0000128388,0.000706265
21244,10.1073/pnas.1617663113,17144,4(F),20641,FeNb0.6Ti0.4Sb,Fe1.03Nb0.95Ti0.04Sb0.98,800,61432,0.0051475,0.00027848,7.2896,0.54978,0.0000162782,0.000706143
21244,10.1073/pnas.1617663113,17144,4(F),20641,FeNb0.6Ti0.4Sb,Fe1.03Nb0.95Ti0.04Sb0.98,850,44975,0.0048016,0.0002891,6.8011,0.58126,0.0000222346,0.0007060034
21244,10.1073/pnas.1617663113,17144,4(F),20641,FeNb0.6Ti0.4Sb,Fe1.03Nb0.95Ti0.04Sb0.98,900,28517,0.0044558,0.00029911,6.3126,0.61275,0.0000350668,0.0007058581
21244,10.1073/pnas.1617663113,17144,4(F),20641,FeNb0.6Ti0.4Sb,Fe1.03Nb0.95Ti0.04Sb0.98,950,12060,0.0041099,0.00030604,5.8241,0.64424,0.0000829187,0.0007056713
21244,10.1073/pnas.1617663113,17144,4(F),20642,FeNb0.95Ti0.05Sb,Fe1.01Nb0.94Ti0.05Sb0.99,350,272130,0.0099427,0.00019007,11.539,0.32893,0.0000036747,0.0008616605
21244,10.1073/pnas.1617663113,17144,4(F),20642,FeNb0.95Ti0.05Sb,Fe1.01Nb0.94Ti0.05Sb0.99,400,250330,0.0095069,0.00020002,11.067,0.36599,0.0000039947,0.0008590314
21244,10.1073/pnas.1617663113,17144,4(F),20642,FeNb0.95Ti0.05Sb,Fe1.01Nb0.94Ti0.05Sb0.99,450,228530,0.0090712,0.00020997,10.595,0.40305,0.0000043758,0.0008561774
21244,10.1073/pnas.1617663113,17144,4(F),20642,FeNb0.95Ti0.05Sb,Fe1.01Nb0.94Ti0.05Sb0.99,500,206740,0.0086354,0.00021993,10.123,0.44012,0.000004837,0.0008530475
21244,10.1073/pnas.1617663113,17144,4(F),20642,FeNb0.95Ti0.05Sb,Fe1.01Nb0.94Ti0.05Sb0.99,550,184940,0.0081997,0.00022988,9.6515,0.47718,0.0000054072,0.0008495778
21244,10.1073/pnas.1617663113,17144,4(F),20642,FeNb0.95Ti0.05Sb,Fe1.01Nb0.94Ti0.05Sb0.99,600,163140,0.0077639,0.00023983,9.1797,0.51424,0.0000061297,0.0008457684
21244,10.1073/pnas.1617663113,17144,4(F),20642,FeNb0.95Ti0.05Sb,Fe1.01Nb0.94Ti0.05Sb0.99,650,141340,0.0073282,0.00024979,8.7079,0.5513,0.0000070751,0.0008415577
21244,10.1073/pnas.1617663113,17144,4(F),20642,FeNb0.95Ti0.05Sb,Fe1.01Nb0.94Ti0.05Sb0.99,700,119540,0.0068924,0.00025974,8.2362,0.58836,0.0000083654,0.0008368422
21244,10.1073/pnas.1617663113,17144,4(F),20642,FeNb0.95Ti0.05Sb,Fe1.01Nb0.94Ti0.05Sb0.99,750,97742,0.0064567,0.00026969,7.7644,0.62543,0.000010231,0.0008315775
21244,10.1073/pnas.1617663113,17144,4(F),20642,FeNb0.95Ti0.05Sb,Fe1.01Nb0.94Ti0.05Sb0.99,800,75944,0.0060209,0.00027965,7.2926,0.66249,0.0000131676,0.0008256177
21244,10.1073/pnas.1617663113,17144,4(F),20642,FeNb0.95Ti0.05Sb,Fe1.01Nb0.94Ti0.05Sb0.99,850,54145,0.0055852,0.0002896,6.8208,0.69955,0.0000184689,0.0008188482
21244,10.1073/pnas.1617663113,17144,4(F),20642,FeNb0.95Ti0.05Sb,Fe1.01Nb0.94Ti0.05Sb0.99,900,32346,0.0051494,0.00029955,6.3491,0.73661,0.0000309157,0.0008110441
21244,10.1073/pnas.1617663113,17144,4(F),20642,FeNb0.95Ti0.05Sb,Fe1.01Nb0.94Ti0.05Sb0.99,950,10547,0.0047137,0.00030951,5.8773,0.77368,0.0000948137,0.0008020179
21244,10.1073/pnas.1617663113,17209,4(B),20642,FeNb0.95Ti0.05Sb,Fe1.01Nb0.94Ti0.05Sb0.99,300,,,0.00018011,,,,
21244,10.1073/pnas.1617663113,17144,4(F),20643,FeNb0.94Ti0.06Sb,Fe1.01Nb0.93Ti0.06Sb0.99,350,318640,0.0090037,0.00016585,11.467,0.28246,0.0000031383,0.0007851836
21244,10.1073/pnas.1617663113,17144,4(F),20643,FeNb0.94Ti0.06Sb,Fe1.01Nb0.93Ti0.06Sb0.99,400,293410,0.0086378,0.00017575,10.996,0.3196,0.0000034082,0.0007855402
21244,10.1073/pnas.1617663113,17144,4(F),20643,FeNb0.94Ti0.06Sb,Fe1.01Nb0.93Ti0.06Sb0.99,450,268180,0.008272,0.00018564,10.524,0.35674,0.0000037288,0.0007860129
21244,10.1073/pnas.1617663113,17144,4(F),20643,FeNb0.94Ti0.06Sb,Fe1.01Nb0.93Ti0.06Sb0.99,500,242950,0.0079062,0.00019554,10.053,0.39388,0.0000041161,0.0007864518
21244,10.1073/pnas.1617663113,17144,4(F),20643,FeNb0.94Ti0.06Sb,Fe1.01Nb0.93Ti0.06Sb0.99,550,217720,0.0075404,0.00020544,9.5817,0.43103,0.0000045931,0.0007869585
21244,10.1073/pnas.1617663113,17144,4(F),20643,FeNb0.94Ti0.06Sb,Fe1.01Nb0.93Ti0.06Sb0.99,600,192490,0.0071746,0.00021533,9.1103,0.46817,0.0000051951,0.0007875262
21244,10.1073/pnas.1617663113,17144,4(F),20643,FeNb0.94Ti0.06Sb,Fe1.01Nb0.93Ti0.06Sb0.99,650,167260,0.0068088,0.00022523,8.639,0.50531,0.0000059787,0.0007881468
21244,10.1073/pnas.1617663113,17144,4(F),20643,FeNb0.94Ti0.06Sb,Fe1.01Nb0.93Ti0.06Sb0.99,700,142020,0.0064429,0.00023512,8.1676,0.54245,0.0000070413,0.0007888364
21244,10.1073/pnas.1617663113,17144,4(F),20643,FeNb0.94Ti0.06Sb,Fe1.01Nb0.93Ti0.06Sb0.99,750,116790,0.0060771,0.00024502,7.6963,0.5796,0.0000085624,0.0007896132
21244,10.1073/pnas.1617663113,17144,4(F),20643,FeNb0.94Ti0.06Sb,Fe1.01Nb0.93Ti0.06Sb0.99,800,91562,0.0057113,0.00025491,7.2249,0.61674,0.0000109216,0.0007905023
21244,10.1073/pnas.1617663113,17144,4(F),20643,FeNb0.94Ti0.06Sb,Fe1.01Nb0.93Ti0.06Sb0.99,850,66331,0.0053455,0.00026481,6.7536,0.65388,0.0000150759,0.0007915038
21244,10.1073/pnas.1617663113,17144,4(F),20643,FeNb0.94Ti0.06Sb,Fe1.01Nb0.93Ti0.06Sb0.99,900,41100,0.0049797,0.0002747,6.2822,0.69102,0.0000243309,0.0007926682
21244,10.1073/pnas.1617663113,17144,4(F),20643,FeNb0.94Ti0.06Sb,Fe1.01Nb0.93Ti0.06Sb0.99,950,15869,0.0046139,0.0002846,5.8109,0.72816,0.0000630159,0.0007940078
21244,10.1073/pnas.1617663113,17209,4(B),20643,FeNb0.94Ti0.06Sb,Fe1.01Nb0.93Ti0.06Sb0.99,300,,,0.00015596,,,,
21244,10.1073/pnas.1617663113,17144,4(F),20644,FeNb0.93Ti0.07Sb,Fe0.99Nb0.92Ti0.07Sb1.01,350,360350,0.0090432,0.00015654,10.833,0.31786,0.0000027751,0.0008347826
21244,10.1073/pnas.1617663113,17144,4(F),20644,FeNb0.93Ti0.07Sb,Fe0.99Nb0.92Ti0.07Sb1.01,400,332100,0.0087018,0.00016662,10.385,0.35949,0.0000030111,0.0008379201
21244,10.1073/pnas.1617663113,17144,4(F),20644,FeNb0.93Ti0.07Sb,Fe0.99Nb0.92Ti0.07Sb1.01,450,303850,0.0083604,0.00017671,9.9376,0.40112,0.0000032911,0.0008412896
21244,10.1073/pnas.1617663113,17144,4(F),20644,FeNb0.93Ti0.07Sb,Fe0.99Nb0.92Ti0.07Sb1.01,500,275600,0.0080191,0.00018679,9.4897,0.44274,0.0000036284,0.000845032
21244,10.1073/pnas.1617663113,17144,4(F),20644,FeNb0.93Ti0.07Sb,Fe0.99Nb0.92Ti0.07Sb1.01,550,247360,0.0076777,0.00019688,9.0418,0.48437,0.0000040427,0.000849134
21244,10.1073/pnas.1617663113,17144,4(F),20644,FeNb0.93Ti0.07Sb,Fe0.99Nb0.92Ti0.07Sb1.01,600,219110,0.0073363,0.00020696,8.5939,0.526,0.0000045639,0.0008536636
21244,10.1073/pnas.1617663113,17144,4(F),20644,FeNb0.93Ti0.07Sb,Fe0.99Nb0.92Ti0.07Sb1.01,650,190860,0.0069949,0.00021705,8.146,0.56762,0.0000052394,0.0008586914
21244,10.1073/pnas.1617663113,17144,4(F),20644,FeNb0.93Ti0.07Sb,Fe0.99Nb0.92Ti0.07Sb1.01,700,162620,0.0066535,0.00022713,7.6981,0.60925,0.0000061493,0.0008643042
21244,10.1073/pnas.1617663113,17144,4(F),20644,FeNb0.93Ti0.07Sb,Fe0.99Nb0.92Ti0.07Sb1.01,750,134370,0.0063122,0.00023722,7.2502,0.65088,0.0000074421,0.0008706243
21244,10.1073/pnas.1617663113,17144,4(F),20644,FeNb0.93Ti0.07Sb,Fe0.99Nb0.92Ti0.07Sb1.01,800,106120,0.0059708,0.00024731,6.8023,0.6925,0.0000094233,0.0008777619
21244,10.1073/pnas.1617663113,17144,4(F),20644,FeNb0.93Ti0.07Sb,Fe0.99Nb0.92Ti0.07Sb1.01,850,77877,0.0056294,0.00025739,6.3544,0.73413,0.0000128408,0.0008859058
21244,10.1073/pnas.1617663113,17144,4(F),20644,FeNb0.93Ti0.07Sb,Fe0.99Nb0.92Ti0.07Sb1.01,900,49631,0.005288,0.00026748,5.9065,0.77576,0.0000201487,0.0008952849
21244,10.1073/pnas.1617663113,17144,4(F),20644,FeNb0.93Ti0.07Sb,Fe0.99Nb0.92Ti0.07Sb1.01,950,21384,0.0049467,0.00027756,5.4587,0.81738,0.0000467639,0.0009062048
21244,10.1073/pnas.1617663113,17209,4(B),20539,FeSb0.8Ti0.2Sb,Fe1.02Nb0.8Ti0.2Sb0.99,300,,,0.000089574,,,,
21244,10.1073/pnas.1617663113,17209,4(B),20539,FeSb0.8Ti0.2Sb,Fe1.02Nb0.8Ti0.2Sb0.99,350,509370,0.0049976,0.000095769,7.9087,0.19974,0.0000019632,0.0006319117
21244,10.1073/pnas.1617663113,17209,4(B),20539,FeSb0.8Ti0.2Sb,Fe1.02Nb0.8Ti0.2Sb0.99,400,474490,0.0050361,0.00010423,7.6244,0.27049,0.0000021075,0.0006605241
21244,10.1073/pnas.1617663113,17209,4(B),20539,FeSb0.8Ti0.2Sb,Fe1.02Nb0.8Ti0.2Sb0.99,450,439600,0.0050747,0.00011407,7.3402,0.34123,0.0000022748,0.0006913572
21244,10.1073/pnas.1617663113,17209,4(B),20539,FeSb0.8Ti0.2Sb,Fe1.02Nb0.8Ti0.2Sb0.99,500,404710,0.0051133,0.00012457,7.0559,0.41198,0.0000024709,0.0007246843
21244,10.1073/pnas.1617663113,17209,4(B),20539,FeSb0.8Ti0.2Sb,Fe1.02Nb0.8Ti0.2Sb0.99,550,369830,0.0051518,0.00013517,6.7716,0.48273,0.0000027039,0.0007607951
21244,10.1073/pnas.1617663113,17209,4(B),20539,FeSb0.8Ti0.2Sb,Fe1.02Nb0.8Ti0.2Sb0.99,600,334940,0.0051904,0.00014547,6.4873,0.55347,0.0000029856,0.0008000863
21244,10.1073/pnas.1617663113,17209,4(B),20539,FeSb0.8Ti0.2Sb,Fe1.02Nb0.8Ti0.2Sb0.99,650,300050,0.0052289,0.00015517,6.203,0.62422,0.0000033328,0.0008429631
21244,10.1073/pnas.1617663113,17209,4(B),20539,FeSb0.8Ti0.2Sb,Fe1.02Nb0.8Ti0.2Sb0.99,700,265170,0.0052675,0.00016411,5.9187,0.69497,0.0000037712,0.0008899758
21244,10.1073/pnas.1617663113,17209,4(B),20539,FeSb0.8Ti0.2Sb,Fe1.02Nb0.8Ti0.2Sb0.99,750,230280,0.0053061,0.00017223,5.6344,0.76572,0.0000043425,0.0009417329
21244,10.1073/pnas.1617663113,17209,4(B),20539,FeSb0.8Ti0.2Sb,Fe1.02Nb0.8Ti0.2Sb0.99,800,195390,0.0053446,0.00017954,5.3502,0.83646,0.000005118,0.0009989533
21244,10.1073/pnas.1617663113,17209,4(B),20539,FeSb0.8Ti0.2Sb,Fe1.02Nb0.8Ti0.2Sb0.99,850,160510,0.0053832,0.00018613,5.0659,0.90721,0.0000062301,0.0010626345
21244,10.1073/pnas.1617663113,17209,4(B),20539,FeSb0.8Ti0.2Sb,Fe1.02Nb0.8Ti0.2Sb0.99,900,125620,0.0054217,0.00019214,4.7816,0.97796,0.0000079605,0.0011338673
21244,10.1073/pnas.1617663113,17209,4(B),20539,FeSb0.8Ti0.2Sb,Fe1.02Nb0.8Ti0.2Sb0.99,950,90734,0.0054603,0.00019775,4.4973,1.0487,0.0000110212,0.0012141285
21244,10.1073/pnas.1617663113,25325,7f,31556,Nb0.95Ti0.05FeSb ,Nb0.95Ti0.05FeSb ,350,,,,,0.32237,,
21244,10.1073/pnas.1617663113,25325,7f,31556,Nb0.95Ti0.05FeSb ,Nb0.95Ti0.05FeSb ,400,,,,,0.35943,,
21244,10.1073/pnas.1617663113,25325,7f,31556,Nb0.95Ti0.05FeSb ,Nb0.95Ti0.05FeSb ,450,,,,,0.39649,,
21244,10.1073/pnas.1617663113,25325,7f,31556,Nb0.95Ti0.05FeSb ,Nb0.95Ti0.05FeSb ,500,,,,,0.43354,,
21244,10.1073/pnas.1617663113,25325,7f,31556,Nb0.95Ti0.05FeSb ,Nb0.95Ti0.05FeSb ,550,,,,,0.4706,,
21244,10.1073/pnas.1617663113,25325,7f,31556,Nb0.95Ti0.05FeSb ,Nb0.95Ti0.05FeSb ,600,,,,,0.50766,,
21244,10.1073/pnas.1617663113,25325,7f,31556,Nb0.95Ti0.05FeSb ,Nb0.95Ti0.05FeSb ,650,,,,,0.54471,,
21244,10.1073/pnas.1617663113,25325,7f,31556,Nb0.95Ti0.05FeSb ,Nb0.95Ti0.05FeSb ,700,,,,,0.58177,,
21244,10.1073/pnas.1617663113,25325,7f,31556,Nb0.95Ti0.05FeSb ,Nb0.95Ti0.05FeSb ,750,,,,,0.61883,,
21244,10.1073/pnas.1617663113,25325,7f,31556,Nb0.95Ti0.05FeSb ,Nb0.95Ti0.05FeSb ,800,,,,,0.65589,,
21244,10.1073/pnas.1617663113,25325,7f,31556,Nb0.95Ti0.05FeSb ,Nb0.95Ti0.05FeSb ,850,,,,,0.69294,,
21244,10.1073/pnas.1617663113,25325,7f,31556,Nb0.95Ti0.05FeSb ,Nb0.95Ti0.05FeSb ,900,,,,,0.73,,
21244,10.1073/pnas.1617663113,25325,7f,31556,Nb0.95Ti0.05FeSb ,Nb0.95Ti0.05FeSb ,950,,,,,0.76706,,
21244,10.1073/pnas.1617663113,25325,7f,31557,Nb0.8Ti0.2FeSb,Nb0.8Ti0.2FeSb,350,,,,,0.19987,,
21244,10.1073/pnas.1617663113,25325,7f,31557,Nb0.8Ti0.2FeSb,Nb0.8Ti0.2FeSb,400,,,,,0.27042,,
21244,10.1073/pnas.1617663113,25325,7f,31557,Nb0.8Ti0.2FeSb,Nb0.8Ti0.2FeSb,450,,,,,0.34096,,
21244,10.1073/pnas.1617663113,25325,7f,31557,Nb0.8Ti0.2FeSb,Nb0.8Ti0.2FeSb,500,,,,,0.41151,,
21244,10.1073/pnas.1617663113,25325,7f,31557,Nb0.8Ti0.2FeSb,Nb0.8Ti0.2FeSb,550,,,,,0.48206,,
21244,10.1073/pnas.1617663113,25325,7f,31557,Nb0.8Ti0.2FeSb,Nb0.8Ti0.2FeSb,600,,,,,0.55261,,
21244,10.1073/pnas.1617663113,25325,7f,31557,Nb0.8Ti0.2FeSb,Nb0.8Ti0.2FeSb,650,,,,,0.62315,,
21244,10.1073/pnas.1617663113,25325,7f,31557,Nb0.8Ti0.2FeSb,Nb0.8Ti0.2FeSb,700,,,,,0.6937,,
21244,10.1073/pnas.1617663113,25325,7f,31557,Nb0.8Ti0.2FeSb,Nb0.8Ti0.2FeSb,750,,,,,0.76425,,
21244,10.1073/pnas.1617663113,25325,7f,31557,Nb0.8Ti0.2FeSb,Nb0.8Ti0.2FeSb,800,,,,,0.8348,,
21244,10.1073/pnas.1617663113,25325,7f,31557,Nb0.8Ti0.2FeSb,Nb0.8Ti0.2FeSb,850,,,,,0.90535,,
21244,10.1073/pnas.1617663113,25325,7f,31557,Nb0.8Ti0.2FeSb,Nb0.8Ti0.2FeSb,900,,,,,0.97589,,
21244,10.1073/pnas.1617663113,25325,7f,31557,Nb0.8Ti0.2FeSb,Nb0.8Ti0.2FeSb,950,,,,,1.0464,,
21244,10.1073/pnas.1617663113,28294,1(A),35884,1373K,Nb0.95Ti0.05FeSb,300,,0.01024,,11.913,0.25787,,0.0008595652
21244,10.1073/pnas.1617663113,28294,1(A),35884,1373K,Nb0.95Ti0.05FeSb,350,271780,0.00982,0.00018655,11.446,0.31798,0.0000036794,0.0008579416
21244,10.1073/pnas.1617663113,28294,1(A),35884,1373K,Nb0.95Ti0.05FeSb,400,252040,0.0093999,0.00019658,10.979,0.35549,0.0000039676,0.0008561709
21244,10.1073/pnas.1617663113,28294,1(A),35884,1373K,Nb0.95Ti0.05FeSb,450,232310,0.0089797,0.00020661,10.512,0.393,0.0000043046,0.0008542333
21244,10.1073/pnas.1617663113,28294,1(A),35884,1373K,Nb0.95Ti0.05FeSb,500,212570,0.0085595,0.00021664,10.045,0.43051,0.0000047043,0.0008521155
21244,10.1073/pnas.1617663113,28294,1(A),35884,1373K,Nb0.95Ti0.05FeSb,550,192840,0.0081393,0.00022667,9.5776,0.46802,0.0000051856,0.0008498267
21244,10.1073/pnas.1617663113,28294,1(A),35884,1373K,Nb0.95Ti0.05FeSb,600,173100,0.0077191,0.0002367,9.1106,0.50553,0.000005777,0.0008472658
21244,10.1073/pnas.1617663113,28294,1(A),35884,1373K,Nb0.95Ti0.05FeSb,650,153370,0.007299,0.00024672,8.6435,0.54304,0.0000065202,0.0008444496
21244,10.1073/pnas.1617663113,28294,1(A),35884,1373K,Nb0.95Ti0.05FeSb,700,133630,0.0068788,0.00025675,8.1765,0.58055,0.0000074833,0.0008412891
21244,10.1073/pnas.1617663113,28294,1(A),35884,1373K,Nb0.95Ti0.05FeSb,750,113900,0.0064586,0.00026678,7.7094,0.61806,0.0000087796,0.0008377565
21244,10.1073/pnas.1617663113,28294,1(A),35884,1373K,Nb0.95Ti0.05FeSb,800,94164,0.0060384,0.00027681,7.2424,0.65557,0.0000106198,0.0008337568
21244,10.1073/pnas.1617663113,28294,1(A),35884,1373K,Nb0.95Ti0.05FeSb,850,74430,0.0056183,0.00028684,6.7753,0.69308,0.0000134354,0.0008292327
21244,10.1073/pnas.1617663113,28294,1(A),35884,1373K,Nb0.95Ti0.05FeSb,900,54695,0.0051981,0.00029687,6.3083,0.73059,0.0000182832,0.0008240096
21244,10.1073/pnas.1617663113,28294,1(A),35884,1373K,Nb0.95Ti0.05FeSb,950,34960,0.0047779,0.0003069,5.8412,0.7681,0.0000286041,0.0008179655
21244,10.1073/pnas.1617663113,28294,1(A),35886,1273K,Nb0.95Ti0.05FeSb,300,,0.0089753,,,,,
21244,10.1073/pnas.1617663113,28294,1(A),35886,1273K,Nb0.95Ti0.05FeSb,350,252260,0.0086351,0.00018332,11.099,0.28934,0.0000039642,0.000778007
21244,10.1073/pnas.1617663113,28294,1(A),35886,1273K,Nb0.95Ti0.05FeSb,400,233920,0.0082948,0.0001933,10.655,0.32629,0.000004275,0.000778489