sid,DOI,figureid,fignum,sampleid,samplename,composition,Temperature,Carrier concentration,Electrical conductivity,Electrical resistivity,Electronic thermal conductivity,Hall concentration,Hall movility,Lattice thermal conductivity,Power factor,Seebeck coefficient,Thermal conductivity,ZT,hall density,Figure of merit Z
37,10.1016/j.actamat.2010.04.007,11382,4(a),13625,y=1.26,Ag0.74Sb1.26Te2.26,350,,33674,0.000029697,,,,,0.00060843,0.00013317,1.2114,0.33792,,0.0005022536
37,10.1016/j.actamat.2010.04.007,11382,4(a),13625,y=1.26,Ag0.74Sb1.26Te2.26,400,,31957,0.000031292,,,,,0.00075819,0.00015353,1.1686,0.45084,,0.000648802
37,10.1016/j.actamat.2010.04.007,11382,4(a),13625,y=1.26,Ag0.74Sb1.26Te2.26,450,,30239,0.00003307,,,,,0.00090868,0.00017302,1.1257,0.56376,,0.0008072133
37,10.1016/j.actamat.2010.04.007,11382,4(a),13625,y=1.26,Ag0.74Sb1.26Te2.26,500,,28522,0.000035061,,,,,0.0010599,0.00019163,1.0829,0.67668,,0.0009787607
37,10.1016/j.actamat.2010.04.007,11382,4(a),13625,y=1.26,Ag0.74Sb1.26Te2.26,550,,26805,0.000037306,,,,,0.0012119,0.00020935,1.0401,0.78961,,0.0011651764
37,10.1016/j.actamat.2010.04.007,11382,4(a),13625,y=1.26,Ag0.74Sb1.26Te2.26,600,,25087,0.000039861,,,,,0.0013646,0.00022619,0.99723,0.90253,,0.0013683904
37,10.1016/j.actamat.2010.04.007,11382,4(a),13625,y=1.26,Ag0.74Sb1.26Te2.26,650,,23370,0.00004279,,,,,0.0015181,0.00024216,0.9544,1.0154,,0.0015906329
37,10.1016/j.actamat.2010.04.007,11382,4(a),13626,y=1.29,Ag0.71Sb1.29Te2.26,350,,48044,0.000020814,,,,,0.00061828,0.00010713,1.181,0.3329,,0.0005235224
37,10.1016/j.actamat.2010.04.007,11382,4(a),13626,y=1.29,Ag0.71Sb1.29Te2.26,400,,43689,0.000022889,,,,,0.00076386,0.00013089,1.1478,0.50774,,0.0006654992
37,10.1016/j.actamat.2010.04.007,11382,4(a),13626,y=1.29,Ag0.71Sb1.29Te2.26,450,,39334,0.000025423,,,,,0.00090944,0.00015464,1.1147,0.68258,,0.0008158608
37,10.1016/j.actamat.2010.04.007,11382,4(a),13626,y=1.29,Ag0.71Sb1.29Te2.26,500,,34980,0.000028588,,,,,0.001055,0.0001784,1.0815,0.85742,,0.000975497
37,10.1016/j.actamat.2010.04.007,11382,4(a),13626,y=1.29,Ag0.71Sb1.29Te2.26,550,,30625,0.000032653,,,,,0.0012006,0.00020216,1.0484,1.0323,,0.0011451736
37,10.1016/j.actamat.2010.04.007,11382,4(a),13626,y=1.29,Ag0.71Sb1.29Te2.26,600,,26271,0.000038065,,,,,0.0013462,0.00022592,1.0152,1.2071,,0.0013260441
37,10.1016/j.actamat.2010.04.007,11382,4(a),13626,y=1.29,Ag0.71Sb1.29Te2.26,650,,21916,0.000045629,,,,,0.0014918,0.00024967,0.98202,1.3819,,0.0015191137
37,10.1016/j.actamat.2010.04.007,11382,4(a),13627,y=1.32,Ag0.68Sb1.32Te2.26,350,,69739,0.000014339,,,,,0.00034961,0.000067469,1.133,0.060758,,0.0003085702
37,10.1016/j.actamat.2010.04.007,11382,4(a),13627,y=1.32,Ag0.68Sb1.32Te2.26,400,,63429,0.000015766,,,,,0.00052515,0.000089747,1.0957,0.17514,,0.0004792827
37,10.1016/j.actamat.2010.04.007,11382,4(a),13627,y=1.32,Ag0.68Sb1.32Te2.26,450,,57119,0.000017507,,,,,0.00070068,0.00011202,1.0583,0.28952,,0.0006620807
37,10.1016/j.actamat.2010.04.007,11382,4(a),13627,y=1.32,Ag0.68Sb1.32Te2.26,500,,50809,0.000019682,,,,,0.00087622,0.0001343,1.021,0.40391,,0.0008581978
37,10.1016/j.actamat.2010.04.007,11382,4(a),13627,y=1.32,Ag0.68Sb1.32Te2.26,550,,44500,0.000022472,,,,,0.0010518,0.00015658,0.98368,0.51829,,0.0010692502
37,10.1016/j.actamat.2010.04.007,11382,4(a),13627,y=1.32,Ag0.68Sb1.32Te2.26,600,,38190,0.000026185,,,,,0.0012273,0.00017886,0.94635,0.63268,,0.0012968775
37,10.1016/j.actamat.2010.04.007,11382,4(a),13627,y=1.32,Ag0.68Sb1.32Te2.26,650,,31880,0.000031368,,,,,0.0014028,0.00020113,0.90903,0.74706,,0.0015431834
37,10.1016/j.actamat.2010.04.007,11383,4(b),13627,y=1.32,Ag0.68Sb1.32Te2.26,300,,,,,,,,,0.000045192,,,,
37,10.1016/j.actamat.2010.04.007,11382,4(a),13628,y=1.35,Ag0.65Sb1.35Te2.26,350,,111840,0.0000089413,,,,,0.00052285,0.000062011,1.0064,0.18183,,0.000519525
37,10.1016/j.actamat.2010.04.007,11382,4(a),13628,y=1.35,Ag0.65Sb1.35Te2.26,400,,100630,0.0000099374,,,,,0.0006941,0.000081068,0.96856,0.28665,,0.0007166309
37,10.1016/j.actamat.2010.04.007,11382,4(a),13628,y=1.35,Ag0.65Sb1.35Te2.26,450,,89426,0.000011182,,,,,0.00086535,0.00010012,0.93069,0.41841,,0.000929794
37,10.1016/j.actamat.2010.04.007,11382,4(a),13628,y=1.35,Ag0.65Sb1.35Te2.26,500,,78219,0.000012785,,,,,0.0010366,0.00011918,0.89281,0.58053,,0.0011610533
37,10.1016/j.actamat.2010.04.007,11382,4(a),13628,y=1.35,Ag0.65Sb1.35Te2.26,550,,67011,0.000014923,,,,,0.0012078,0.00013824,0.85494,0.777,,0.0014127307
37,10.1016/j.actamat.2010.04.007,11382,4(a),13628,y=1.35,Ag0.65Sb1.35Te2.26,600,,55804,0.00001792,,,,,0.0013791,0.0001573,0.81707,1.0127,,0.0016878603
37,10.1016/j.actamat.2010.04.007,11382,4(a),13628,y=1.35,Ag0.65Sb1.35Te2.26,650,,44596,0.000022424,,,,,0.0015503,0.00017635,0.77919,1.2933,,0.0019896303
37,10.1016/j.actamat.2010.04.007,11382,4(a),13629,y=1.38,Ag0.62Sb1.38Te2.26,350,,125750,0.0000079523,,,,,0.00030672,0.000043231,0.62168,0.021042,,0.0004933728
37,10.1016/j.actamat.2010.04.007,11382,4(a),13629,y=1.38,Ag0.62Sb1.38Te2.26,400,,111610,0.0000089598,,,,,0.00047369,0.00006364,0.62716,0.14574,,0.0007552937
37,10.1016/j.actamat.2010.04.007,11382,4(a),13629,y=1.38,Ag0.62Sb1.38Te2.26,450,,97471,0.000010259,,,,,0.00064066,0.000084049,0.63265,0.27043,,0.001012661
37,10.1016/j.actamat.2010.04.007,11382,4(a),13629,y=1.38,Ag0.62Sb1.38Te2.26,500,,83333,0.000012,,,,,0.00080763,0.00010446,0.63813,0.39513,,0.0012656199
37,10.1016/j.actamat.2010.04.007,11382,4(a),13629,y=1.38,Ag0.62Sb1.38Te2.26,550,,69194,0.000014452,,,,,0.00097459,0.00012487,0.64362,0.51982,,0.001514232
37,10.1016/j.actamat.2010.04.007,11382,4(a),13629,y=1.38,Ag0.62Sb1.38Te2.26,600,,55055,0.000018164,,,,,0.0011416,0.00014528,0.6491,0.64452,,0.0017587429
37,10.1016/j.actamat.2010.04.007,11382,4(a),13629,y=1.38,Ag0.62Sb1.38Te2.26,650,,40916,0.00002444,,,,,0.0013085,0.00016568,0.65459,0.76921,,0.0019989612
666,10.1088/1674-1056/21/10/106101,24804,4(a),30902,x=0.05,Ag0.9Sb1.05Mn0.05Te2.05,350,,12485,0.000080096,0.074077,,,0.83006,0.00076108,0.0002494,0.90212,0.29046,,0.0008436572
666,10.1088/1674-1056/21/10/106101,24804,4(a),30902,x=0.05,Ag0.9Sb1.05Mn0.05Te2.05,400,,12684,0.000078839,0.08711,,,0.78325,0.00079596,0.0002523,0.86922,0.38227,,0.0009157175
666,10.1088/1674-1056/21/10/106101,24804,4(a),30902,x=0.05,Ag0.9Sb1.05Mn0.05Te2.05,450,,12884,0.000077616,0.10014,,,0.73644,0.00083085,0.00025521,0.83632,0.47408,,0.0009934594
666,10.1088/1674-1056/21/10/106101,24804,4(a),30902,x=0.05,Ag0.9Sb1.05Mn0.05Te2.05,500,,13083,0.000076435,0.11318,,,0.68963,0.00086573,0.00025811,0.80342,0.5659,,0.0010775559
666,10.1088/1674-1056/21/10/106101,24804,4(a),30902,x=0.05,Ag0.9Sb1.05Mn0.05Te2.05,550,,13282,0.00007529,0.12621,,,0.64282,0.00090062,0.00026102,0.77052,0.65771,,0.001168847
666,10.1088/1674-1056/21/10/106101,24804,4(a),30903,x=0.10,Ag0.9SbMn0.1Te2.05,350,,34774,0.000028757,0.20664,,,0.54046,0.0012556,0.00019111,0.74366,0.5953,,0.001688406
666,10.1088/1674-1056/21/10/106101,24804,4(a),30903,x=0.10,Ag0.9SbMn0.1Te2.05,400,,32281,0.000030978,0.21394,,,0.49671,0.0012433,0.00019829,0.70816,0.72804,,0.0017556767
666,10.1088/1674-1056/21/10/106101,24804,4(a),30903,x=0.10,Ag0.9SbMn0.1Te2.05,450,,29787,0.000033572,0.22124,,,0.45295,0.001231,0.00020547,0.67265,0.86079,,0.0018300751
666,10.1088/1674-1056/21/10/106101,24804,4(a),30903,x=0.10,Ag0.9SbMn0.1Te2.05,500,,27294,0.000036638,0.22854,,,0.40919,0.0012187,0.00021264,0.63715,0.99353,,0.0019127364
666,10.1088/1674-1056/21/10/106101,24804,4(a),30903,x=0.10,Ag0.9SbMn0.1Te2.05,550,,24800,0.000040323,0.23585,,,0.36543,0.0012065,0.00021982,0.60164,1.1263,,0.002005352
666,10.1088/1674-1056/21/10/106101,24804,4(a),30904,x=0.20,Ag0.9Sb0.9Mn0.2Te2.05,350,,21659,0.00004617,0.12946,,,0.90978,0.00079481,0.00019168,1.0417,0.26683,,0.0007629932
666,10.1088/1674-1056/21/10/106101,24804,4(a),30904,x=0.20,Ag0.9Sb0.9Mn0.2Te2.05,400,,19406,0.00005153,0.12766,,,0.85858,0.00080031,0.00020759,0.9885,0.33565,,0.0008096206
666,10.1088/1674-1056/21/10/106101,24804,4(a),30904,x=0.20,Ag0.9Sb0.9Mn0.2Te2.05,450,,17152,0.000058302,0.12586,,,0.80737,0.00080582,0.00022349,0.93534,0.40448,,0.0008615263
666,10.1088/1674-1056/21/10/106101,24804,4(a),30904,x=0.20,Ag0.9Sb0.9Mn0.2Te2.05,500,,14899,0.000067119,0.12406,,,0.75616,0.00081132,0.00023939,0.88218,0.4733,,0.0009196763
666,10.1088/1674-1056/21/10/106101,24804,4(a),30904,x=0.20,Ag0.9Sb0.9Mn0.2Te2.05,550,,12646,0.000079076,0.12225,,,0.70495,0.00081682,0.00025529,0.82902,0.54213,,0.0009852838
1653,10.1016/j.jallcom.2010.03.170,17340,3,20828,x=0.78,Ag0.78Sb1.22Te2.22,350,,31278,0.000031971,,,,,1.2282,0.00019638,0.83954,0.51332,,1.4629439931
1653,10.1016/j.jallcom.2010.03.170,17340,3,20828,x=0.78,Ag0.78Sb1.22Te2.22,400,,29893,0.000033453,,,,,1.2456,0.00020598,0.82634,0.61665,,1.5073698478
1653,10.1016/j.jallcom.2010.03.170,17340,3,20828,x=0.78,Ag0.78Sb1.22Te2.22,450,,28507,0.000035079,,,,,1.263,0.00021409,0.81314,0.71998,,1.5532380648
1653,10.1016/j.jallcom.2010.03.170,17340,3,20828,x=0.78,Ag0.78Sb1.22Te2.22,500,,27122,0.00003687,,,,,1.2804,0.00022065,0.79994,0.8233,,1.6006200465
1653,10.1016/j.jallcom.2010.03.170,17340,3,20828,x=0.78,Ag0.78Sb1.22Te2.22,550,,25737,0.000038855,,,,,1.2978,0.00022596,0.78674,0.92663,,1.6495919872
1653,10.1016/j.jallcom.2010.03.170,17340,3,20828,x=0.78,Ag0.78Sb1.22Te2.22,600,,24351,0.000041066,,,,,1.3152,0.00023059,0.77354,1.03,,1.700235282
1653,10.1016/j.jallcom.2010.03.170,17340,3,20828,x=0.78,Ag0.78Sb1.22Te2.22,650,,22966,0.000043543,,,,,1.3326,0.00023545,0.76034,1.1333,,1.7526369782
1653,10.1016/j.jallcom.2010.03.170,17340,3,20829,x=0.81,Ag0.81Sb1.19Te2.19,350,,24635,0.000040593,,,,,1.4191,0.00023995,0.86285,0.58587,,1.6446659327
1653,10.1016/j.jallcom.2010.03.170,17340,3,20829,x=0.81,Ag0.81Sb1.19Te2.19,400,,23764,0.00004208,,,,,1.3959,0.00024232,0.84279,0.67437,,1.6562844837
1653,10.1016/j.jallcom.2010.03.170,17340,3,20829,x=0.81,Ag0.81Sb1.19Te2.19,450,,22893,0.000043681,,,,,1.3726,0.00024469,0.82273,0.76288,,1.6683480607
1653,10.1016/j.jallcom.2010.03.170,17340,3,20829,x=0.81,Ag0.81Sb1.19Te2.19,500,,22022,0.000045409,,,,,1.3494,0.00024706,0.80268,0.85139,,1.6811182538
1653,10.1016/j.jallcom.2010.03.170,17340,3,20829,x=0.81,Ag0.81Sb1.19Te2.19,550,,21152,0.000047277,,,,,1.3261,0.00024943,0.78262,0.9399,,1.6944366359
1653,10.1016/j.jallcom.2010.03.170,17340,3,20829,x=0.81,Ag0.81Sb1.19Te2.19,600,,20281,0.000049307,,,,,1.3029,0.0002518,0.76256,1.0284,,1.7085868653
1653,10.1016/j.jallcom.2010.03.170,17340,3,20829,x=0.81,Ag0.81Sb1.19Te2.19,650,,19410,0.00005152,,,,,1.2796,0.00025417,0.74251,1.1169,,1.7233437933
1653,10.1016/j.jallcom.2010.03.170,17340,3,20830,x=0.84,Ag0.84Sb1.16Te2.16,350,,25014,0.000039978,,,,,2.282,0.00030274,0.83636,1.0121,,2.7284901239
1653,10.1016/j.jallcom.2010.03.170,17340,3,20830,x=0.84,Ag0.84Sb1.16Te2.16,400,,24124,0.000041452,,,,,2.1603,0.00029901,0.81683,1.0838,,2.6447363589
1653,10.1016/j.jallcom.2010.03.170,17340,3,20830,x=0.84,Ag0.84Sb1.16Te2.16,450,,23234,0.00004304,,,,,2.0386,0.00029527,0.79731,1.1555,,2.5568473994
1653,10.1016/j.jallcom.2010.03.170,17340,3,20830,x=0.84,Ag0.84Sb1.16Te2.16,500,,22343,0.000044757,,,,,1.917,0.00029154,0.77778,1.2271,,2.4647072437
1653,10.1016/j.jallcom.2010.03.170,17340,3,20830,x=0.84,Ag0.84Sb1.16Te2.16,550,,21453,0.000046614,,,,,1.7953,0.0002878,0.75826,1.2988,,2.3676575317
1653,10.1016/j.jallcom.2010.03.170,17340,3,20830,x=0.84,Ag0.84Sb1.16Te2.16,600,,20563,0.000048631,,,,,1.6736,0.00028407,0.73874,1.3705,,2.2654790589
1653,10.1016/j.jallcom.2010.03.170,17340,3,20830,x=0.84,Ag0.84Sb1.16Te2.16,650,,19672,0.000050834,,,,,1.552,0.00028033,0.71921,1.4422,,2.1579232769
1653,10.1016/j.jallcom.2010.03.170,17340,3,20831,x=0.87,Ag0.87Sb1.13Te2.13,350,,26812,0.000037297,,,,,1.8621,0.00026305,0.80274,0.86509,,2.3196800957
1653,10.1016/j.jallcom.2010.03.170,17340,3,20831,x=0.87,Ag0.87Sb1.13Te2.13,400,,26170,0.000038212,,,,,1.8101,0.00026228,0.78788,0.9543,,2.2974310809
1653,10.1016/j.jallcom.2010.03.170,17340,3,20831,x=0.87,Ag0.87Sb1.13Te2.13,450,,25527,0.000039174,,,,,1.7582,0.00026151,0.77301,1.0435,,2.274485453
1653,10.1016/j.jallcom.2010.03.170,17340,3,20831,x=0.87,Ag0.87Sb1.13Te2.13,500,,24885,0.000040185,,,,,1.7063,0.00026075,0.75815,1.1327,,2.2506100376
1653,10.1016/j.jallcom.2010.03.170,17340,3,20831,x=0.87,Ag0.87Sb1.13Te2.13,550,,24243,0.000041249,,,,,1.6543,0.00025998,0.74328,1.2219,,2.2256753848
1653,10.1016/j.jallcom.2010.03.170,17340,3,20831,x=0.87,Ag0.87Sb1.13Te2.13,600,,23601,0.000042371,,,,,1.6024,0.00025922,0.72841,1.3111,,2.199859969
1653,10.1016/j.jallcom.2010.03.170,17340,3,20831,x=0.87,Ag0.87Sb1.13Te2.13,650,,22958,0.000043558,,,,,1.5505,0.00025845,0.71355,1.4004,,2.1729381263
1653,10.1016/j.jallcom.2010.03.170,17340,3,20832,x=0.90,Ag0.9Sb1.1Te2.1,350,,23127,0.00004324,,,,,1.6971,0.00027064,0.80481,0.7367,,2.1086964625
1653,10.1016/j.jallcom.2010.03.170,17340,3,20832,x=0.90,Ag0.9Sb1.1Te2.1,400,,23321,0.00004288,,,,,1.6805,0.00026823,0.79312,0.85308,,2.1188470849
1653,10.1016/j.jallcom.2010.03.170,17340,3,20832,x=0.90,Ag0.9Sb1.1Te2.1,450,,23515,0.000042526,,,,,1.6639,0.00026582,0.78144,0.96946,,2.1292741605
1653,10.1016/j.jallcom.2010.03.170,17340,3,20832,x=0.90,Ag0.9Sb1.1Te2.1,500,,23709,0.000042178,,,,,1.6473,0.00026341,0.76976,1.0858,,2.1400176678
1653,10.1016/j.jallcom.2010.03.170,17340,3,20832,x=0.90,Ag0.9Sb1.1Te2.1,550,,23903,0.000041836,,,,,1.6307,0.000261,0.75808,1.2022,,2.151092233
1653,10.1016/j.jallcom.2010.03.170,17340,3,20832,x=0.90,Ag0.9Sb1.1Te2.1,600,,24098,0.000041497,,,,,1.6142,0.00025859,0.7464,1.3186,,2.1626473741
1653,10.1016/j.jallcom.2010.03.170,17340,3,20832,x=0.90,Ag0.9Sb1.1Te2.1,650,,24292,0.000041166,,,,,1.5976,0.00025617,0.73472,1.435,,2.1744337979
1653,10.1016/j.jallcom.2010.03.170,17340,3,20833,x=0.93,Ag0.93Sb1.07Te2.07,350,,17154,0.000058295,,,,,1.1926,0.00026249,0.84081,0.50686,,1.4183941675
1653,10.1016/j.jallcom.2010.03.170,17340,3,20833,x=0.93,Ag0.93Sb1.07Te2.07,400,,17677,0.000056571,,,,,1.2207,0.00026195,0.82806,0.61262,,1.4741685385
1653,10.1016/j.jallcom.2010.03.170,17340,3,20833,x=0.93,Ag0.93Sb1.07Te2.07,450,,18200,0.000054945,,,,,1.2487,0.0002614,0.81531,0.71838,,1.5315646809
1653,10.1016/j.jallcom.2010.03.170,17340,3,20833,x=0.93,Ag0.93Sb1.07Te2.07,500,,18723,0.00005341,,,,,1.2767,0.00026086,0.80256,0.82414,,1.5907844896
1653,10.1016/j.jallcom.2010.03.170,17340,3,20833,x=0.93,Ag0.93Sb1.07Te2.07,550,,19245,0.000051962,,,,,1.3047,0.00026032,0.78981,0.9299,,1.6519162837
1653,10.1016/j.jallcom.2010.03.170,17340,3,20833,x=0.93,Ag0.93Sb1.07Te2.07,600,,19768,0.000050587,,,,,1.3328,0.00025978,0.77706,1.0357,,1.7151828688
1653,10.1016/j.jallcom.2010.03.170,17340,3,20833,x=0.93,Ag0.93Sb1.07Te2.07,650,,20291,0.000049283,,,,,1.3608,0.00025923,0.76431,1.1414,,1.7804294069
1676,10.1016/j.jallcom.2010.10.131,17345,5(a),20834,x=0_y=0,AgSbTe2,350,,14204,0.000070403,,,,,0.0010458,0.00027134,0.5642,0.63984,,0.001853598
1676,10.1016/j.jallcom.2010.10.131,17345,5(a),20834,x=0_y=0,AgSbTe2,400,,14121,0.000070817,,,,,0.0010473,0.00027234,0.56349,0.73742,,0.0018585955
1676,10.1016/j.jallcom.2010.10.131,17345,5(a),20834,x=0_y=0,AgSbTe2,450,,14038,0.000071235,,,,,0.0010488,0.00027334,0.56278,0.83499,,0.0018636057
1676,10.1016/j.jallcom.2010.10.131,17345,5(a),20834,x=0_y=0,AgSbTe2,500,,13955,0.000071659,,,,,0.0010502,0.00027433,0.56207,0.93257,,0.0018684505
1676,10.1016/j.jallcom.2010.10.131,17345,5(a),20834,x=0_y=0,AgSbTe2,550,,13872,0.000072088,,,,,0.0010516,0.00027533,0.56136,1.0301,,0.0018733077
1676,10.1016/j.jallcom.2010.10.131,17345,5(a),20834,x=0_y=0,AgSbTe2,600,,13789,0.000072522,,,,,0.0010529,0.00027633,0.56065,1.1277,,0.0018779988
1676,10.1016/j.jallcom.2010.10.131,17347,7(a),20834,x=0_y=0,AgSbTe2,650,,,,,,,,,,0.55994,1.2253,,
1676,10.1016/j.jallcom.2010.10.131,17345,5(a),20835,x=0.01_y=0,Na0.01Ag0.99SbTe2,350,,12930,0.00007734,,,,,0.0010301,0.00028226,0.54272,0.68982,,0.0018980321
1676,10.1016/j.jallcom.2010.10.131,17345,5(a),20835,x=0.01_y=0,Na0.01Ag0.99SbTe2,400,,13461,0.000074289,,,,,0.0010541,0.00027984,0.55567,0.77986,,0.0018969892
1676,10.1016/j.jallcom.2010.10.131,17345,5(a),20835,x=0.01_y=0,Na0.01Ag0.99SbTe2,450,,13992,0.000071469,,,,,0.0010769,0.00027742,0.56863,0.8699,,0.0018938501
1676,10.1016/j.jallcom.2010.10.131,17345,5(a),20835,x=0.01_y=0,Na0.01Ag0.99SbTe2,500,,14523,0.000068856,,,,,0.0010982,0.00027499,0.58158,0.95995,,0.0018883043
1676,10.1016/j.jallcom.2010.10.131,17345,5(a),20835,x=0.01_y=0,Na0.01Ag0.99SbTe2,550,,15054,0.000066428,,,,,0.0011184,0.00027257,0.59453,1.05,,0.0018811498
1676,10.1016/j.jallcom.2010.10.131,17345,5(a),20835,x=0.01_y=0,Na0.01Ag0.99SbTe2,600,,15585,0.000064164,,,,,0.0011373,0.00027014,0.60748,1.14,,0.0018721604
1676,10.1016/j.jallcom.2010.10.131,17345,5(a),20835,x=0.01_y=0,Na0.01Ag0.99SbTe2,650,,16116,0.00006205,,,,,0.0011551,0.00026772,0.62043,1.2301,,0.0018617733
1676,10.1016/j.jallcom.2010.10.131,17345,5(a),20836,x=0.02_y=0,Na0.02Ag1.98SbTe2,350,,12336,0.000081064,,,,,0.00094121,0.00027622,0.60862,0.55632,,0.0015464658
1676,10.1016/j.jallcom.2010.10.131,17345,5(a),20836,x=0.02_y=0,Na0.02Ag1.98SbTe2,400,,12790,0.000078186,,,,,0.0009695,0.00027532,0.62351,0.63765,,0.0015549069
1676,10.1016/j.jallcom.2010.10.131,17345,5(a),20836,x=0.02_y=0,Na0.02Ag1.98SbTe2,450,,13243,0.000075512,,,,,0.00099728,0.00027442,0.6384,0.71898,,0.0015621554
1676,10.1016/j.jallcom.2010.10.131,17345,5(a),20836,x=0.02_y=0,Na0.02Ag1.98SbTe2,500,,13697,0.000073009,,,,,0.0010247,0.00027352,0.6533,0.80031,,0.0015684984
1676,10.1016/j.jallcom.2010.10.131,17345,5(a),20836,x=0.02_y=0,Na0.02Ag1.98SbTe2,550,,14151,0.000070666,,,,,0.0010517,0.00027262,0.66819,0.88164,,0.0015739535
1676,10.1016/j.jallcom.2010.10.131,17345,5(a),20836,x=0.02_y=0,Na0.02Ag1.98SbTe2,600,,14605,0.00006847,,,,,0.0010783,0.00027172,0.68308,0.96297,,0.0015785852
1676,10.1016/j.jallcom.2010.10.131,17345,5(a),20836,x=0.02_y=0,Na0.02Ag1.98SbTe2,650,,15059,0.000066405,,,,,0.0011045,0.00027082,0.69797,1.0443,,0.0015824462
1676,10.1016/j.jallcom.2010.10.131,17345,5(a),20837,x=0.01_y=0.02,Na0.01Ag0.99SbTe2.02 ,350,,20066,0.000049836,,,,,0.0011733,0.00024181,0.55122,0.74932,,0.0021285512
1676,10.1016/j.jallcom.2010.10.131,17345,5(a),20837,x=0.01_y=0.02,Na0.01Ag0.99SbTe2.02 ,400,,20705,0.000048298,,,,,0.0012066,0.0002414,0.55204,0.88882,,0.0021857112
1676,10.1016/j.jallcom.2010.10.131,17345,5(a),20837,x=0.01_y=0.02,Na0.01Ag0.99SbTe2.02 ,450,,21344,0.000046852,,,,,0.0012397,0.000241,0.55286,1.0283,,0.0022423398
1676,10.1016/j.jallcom.2010.10.131,17345,5(a),20837,x=0.01_y=0.02,Na0.01Ag0.99SbTe2.02 ,500,,21984,0.000045488,,,,,0.0012725,0.00024059,0.55368,1.1678,,0.0022982589
1676,10.1016/j.jallcom.2010.10.131,17345,5(a),20837,x=0.01_y=0.02,Na0.01Ag0.99SbTe2.02 ,550,,22623,0.000044203,,,,,0.0013051,0.00024019,0.5545,1.3073,,0.0023536519
1676,10.1016/j.jallcom.2010.10.131,17345,5(a),20837,x=0.01_y=0.02,Na0.01Ag0.99SbTe2.02 ,600,,23262,0.000042989,,,,,0.0013374,0.00023978,0.55532,1.4468,,0.0024083411
1676,10.1016/j.jallcom.2010.10.131,17345,5(a),20837,x=0.01_y=0.02,Na0.01Ag0.99SbTe2.02 ,650,,23901,0.000041839,,,,,0.0013696,0.00023938,0.55614,1.5863,,0.0024626893
1676,10.1016/j.jallcom.2010.10.131,17345,5(a),20838,x=0.02_y=0.02,Na0.02Ag0.98SbTe2.02,350,,22745,0.000043966,,,,,0.0012657,0.0002359,0.58394,0.77112,,0.0021675172
1676,10.1016/j.jallcom.2010.10.131,17345,5(a),20838,x=0.02_y=0.02,Na0.02Ag0.98SbTe2.02,400,,22996,0.000043486,,,,,0.001285,0.00023639,0.59449,0.87532,,0.0021615166
1676,10.1016/j.jallcom.2010.10.131,17345,5(a),20838,x=0.02_y=0.02,Na0.02Ag0.98SbTe2.02,450,,23246,0.000043018,,,,,0.0013044,0.00023688,0.60503,0.97953,,0.0021559262
1676,10.1016/j.jallcom.2010.10.131,17345,5(a),20838,x=0.02_y=0.02,Na0.02Ag0.98SbTe2.02,500,,23497,0.000042559,,,,,0.0013239,0.00023737,0.61557,1.0837,,0.0021506896
1676,10.1016/j.jallcom.2010.10.131,17345,5(a),20838,x=0.02_y=0.02,Na0.02Ag0.98SbTe2.02,550,,23747,0.000042111,,,,,0.0013435,0.00023786,0.62611,1.1879,,0.0021457891
1676,10.1016/j.jallcom.2010.10.131,17345,5(a),20838,x=0.02_y=0.02,Na0.02Ag0.98SbTe2.02,600,,23998,0.00004167,,,,,0.0013632,0.00023834,0.63666,1.2921,,0.0021411743