sid,DOI,figureid,fignum,sampleid,samplename,composition,Temperature,Electrical conductivity,Seebeck coefficient,Thermal conductivity,ZT,Electrical resistivity,Power factor,Figure of merit Z
27919,10.1039/c7cc05935c,25315,3a,31540,Ag9GaSe6-x_ x=0,Ag9GaSe6,300,2879,-0.00025017,0.2359,0.30358,0.0003473428,0.0001801823,0.000763808
27919,10.1039/c7cc05935c,25315,3a,31540,Ag9GaSe6-x_ x=0,Ag9GaSe6,350,3929.2,-0.00024723,0.25139,0.39296,0.0002545047,0.0002401632,0.0009553411
27919,10.1039/c7cc05935c,25315,3a,31540,Ag9GaSe6-x_ x=0,Ag9GaSe6,400,4979.4,-0.0002443,0.26688,0.48234,0.0002008274,0.000297183,0.0011135454
27919,10.1039/c7cc05935c,25315,3a,31540,Ag9GaSe6-x_ x=0,Ag9GaSe6,450,6029.6,-0.00024136,0.28237,0.57172,0.0001658485,0.0003512522,0.0012439432
27919,10.1039/c7cc05935c,25315,3a,31540,Ag9GaSe6-x_ x=0,Ag9GaSe6,500,7079.8,-0.00023842,0.29787,0.6611,0.0001412469,0.0004024448,0.0013510754
27919,10.1039/c7cc05935c,25315,3a,31540,Ag9GaSe6-x_ x=0,Ag9GaSe6,550,8130,-0.00023549,0.31336,0.75048,0.0001230012,0.0004508535,0.0014387718
27919,10.1039/c7cc05935c,25315,3a,31540,Ag9GaSe6-x_ x=0,Ag9GaSe6,600,9180.2,-0.00023255,0.32885,0.83987,0.0001089301,0.0004964606,0.0015096872
27919,10.1039/c7cc05935c,25315,3a,31540,Ag9GaSe6-x_ x=0,Ag9GaSe6,650,10230,-0.00022961,0.34434,0.92925,0.0000977517,0.0005393333,0.0015662813
27919,10.1039/c7cc05935c,25315,3a,31540,Ag9GaSe6-x_ x=0,Ag9GaSe6,700,11281,-0.00022668,0.35983,1.0186,0.0000886446,0.0005796609,0.0016109299
27919,10.1039/c7cc05935c,25315,3a,31540,Ag9GaSe6-x_ x=0,Ag9GaSe6,750,12331,-0.00022374,0.37533,1.108,0.0000810964,0.0006172848,0.0016446454
27919,10.1039/c7cc05935c,25316,3b,31540,Ag9GaSe6-x_ x=0,Ag9GaSe6,800,13381,,0.39082,,0.0000747328,,
27919,10.1039/c7cc05935c,25315,3a,31541,Ag9GaSe6-x_ x=0.01,Ag9GaSe5.99,300,13300,-0.00017925,,,0.000075188,0.0004273365,
27919,10.1039/c7cc05935c,25315,3a,31541,Ag9GaSe6-x_ x=0.01,Ag9GaSe5.99,350,13305,-0.00018225,0.44436,0.30575,0.0000751597,0.0004419264,0.0009945234
27919,10.1039/c7cc05935c,25315,3a,31541,Ag9GaSe6-x_ x=0.01,Ag9GaSe5.99,400,13311,-0.00018525,0.43444,0.41328,0.0000751258,0.0004568011,0.001051471
27919,10.1039/c7cc05935c,25315,3a,31541,Ag9GaSe6-x_ x=0.01,Ag9GaSe5.99,450,13316,-0.00018825,0.42452,0.52081,0.0000750976,0.0004718932,0.0011115925
27919,10.1039/c7cc05935c,25315,3a,31541,Ag9GaSe6-x_ x=0.01,Ag9GaSe5.99,500,13322,-0.00019125,0.41459,0.62834,0.0000750638,0.000487273,0.0011753129
27919,10.1039/c7cc05935c,25315,3a,31541,Ag9GaSe6-x_ x=0.01,Ag9GaSe5.99,550,13327,-0.00019425,0.40467,0.73587,0.0000750356,0.0005028685,0.0012426632
27919,10.1039/c7cc05935c,25315,3a,31541,Ag9GaSe6-x_ x=0.01,Ag9GaSe5.99,600,13333,-0.00019725,0.39475,0.8434,0.0000750019,0.0005187545,0.0013141343
27919,10.1039/c7cc05935c,25315,3a,31541,Ag9GaSe6-x_ x=0.01,Ag9GaSe5.99,650,13338,-0.00020025,0.38483,0.95093,0.0000749738,0.0005348546,0.0013898465
27919,10.1039/c7cc05935c,25315,3a,31541,Ag9GaSe6-x_ x=0.01,Ag9GaSe5.99,700,13344,-0.00020324,0.37491,1.0585,0.00007494,0.0005511939,0.0014702033
27919,10.1039/c7cc05935c,25315,3a,31541,Ag9GaSe6-x_ x=0.01,Ag9GaSe5.99,750,13349,-0.00020624,0.36499,1.166,0.000074912,0.0005677989,0.001555656
27919,10.1039/c7cc05935c,25315,3a,31541,Ag9GaSe6-x_ x=0.01,Ag9GaSe5.99,800,,-0.00020924,0.35507,,,,
27919,10.1039/c7cc05935c,25315,3a,31543,Ag9GaSe6-x_ x=0.03,Ag9GaSe5.97,350,48686,-0.000095885,0.57926,0.23566,0.0000205398,0.0004476158,0.0007727373
27919,10.1039/c7cc05935c,25315,3a,31543,Ag9GaSe6-x_ x=0.03,Ag9GaSe5.97,400,44999,-0.00010525,0.56856,0.32439,0.0000222227,0.0004984792,0.0008767399
27919,10.1039/c7cc05935c,25315,3a,31543,Ag9GaSe6-x_ x=0.03,Ag9GaSe5.97,450,41312,-0.00011461,0.55786,0.41311,0.000024206,0.0005426518,0.0009727383
27919,10.1039/c7cc05935c,25315,3a,31543,Ag9GaSe6-x_ x=0.03,Ag9GaSe5.97,500,37625,-0.00012398,0.54715,0.50184,0.0000265781,0.0005783354,0.0010569961
27919,10.1039/c7cc05935c,25315,3a,31543,Ag9GaSe6-x_ x=0.03,Ag9GaSe5.97,550,33938,-0.00013334,0.53645,0.59057,0.0000294655,0.0006034026,0.0011248067
27919,10.1039/c7cc05935c,25315,3a,31543,Ag9GaSe6-x_ x=0.03,Ag9GaSe5.97,600,30250,-0.00014271,0.52575,0.6793,0.0000330579,0.0006160759,0.0011718038
27919,10.1039/c7cc05935c,25315,3a,31543,Ag9GaSe6-x_ x=0.03,Ag9GaSe5.97,650,26563,-0.00015207,0.51505,0.76802,0.0000376464,0.0006142769,0.001192655
27919,10.1039/c7cc05935c,25315,3a,31543,Ag9GaSe6-x_ x=0.03,Ag9GaSe5.97,700,22876,-0.00016144,0.50435,0.85675,0.0000437139,0.0005962143,0.0011821439
27919,10.1039/c7cc05935c,25315,3a,31543,Ag9GaSe6-x_ x=0.03,Ag9GaSe5.97,750,19189,-0.0001708,0.49365,0.94548,0.0000521132,0.0005597938,0.0011339892
27919,10.1039/c7cc05935c,25316,3b,31543,Ag9GaSe6-x_ x=0.03,Ag9GaSe5.97,300,52373,,,0.14693,0.0000190938,,
27919,10.1039/c7cc05935c,25316,3b,31543,Ag9GaSe6-x_ x=0.03,Ag9GaSe5.97,800,15502,,,,0.0000645078,,
27919,10.1039/c7cc05935c,25315,3a,31542,Ag9GaSe6-x_ x=0.02,Ag9GaSe5.98,350,40777,-0.00011149,0.54432,0.27916,0.0000245236,0.0005068589,0.0009311782
27919,10.1039/c7cc05935c,25315,3a,31542,Ag9GaSe6-x_ x=0.02,Ag9GaSe5.98,400,37883,-0.00012055,0.53506,0.37725,0.0000263971,0.0005505272,0.0010289074
27919,10.1039/c7cc05935c,25315,3a,31542,Ag9GaSe6-x_ x=0.02,Ag9GaSe5.98,450,34988,-0.00012961,0.52581,0.47534,0.0000285812,0.0005877547,0.0011178082
27919,10.1039/c7cc05935c,25315,3a,31542,Ag9GaSe6-x_ x=0.02,Ag9GaSe5.98,500,32094,-0.00013866,0.51655,0.57343,0.0000311585,0.0006170584,0.0011945762
27919,10.1039/c7cc05935c,25315,3a,31542,Ag9GaSe6-x_ x=0.02,Ag9GaSe5.98,550,29200,-0.00014772,0.50729,0.67152,0.0000342466,0.000637179,0.0012560449
27919,10.1039/c7cc05935c,25315,3a,31542,Ag9GaSe6-x_ x=0.02,Ag9GaSe5.98,600,26306,-0.00015677,0.49804,0.76961,0.0000380141,0.0006465182,0.001298125
27919,10.1039/c7cc05935c,25315,3a,31542,Ag9GaSe6-x_ x=0.02,Ag9GaSe5.98,650,23412,-0.00016583,0.48878,0.8677,0.0000427131,0.0006438204,0.0013171987
27919,10.1039/c7cc05935c,25315,3a,31542,Ag9GaSe6-x_ x=0.02,Ag9GaSe5.98,700,20518,-0.00017488,0.47952,0.96579,0.0000487377,0.0006275023,0.001308605
27919,10.1039/c7cc05935c,25315,3a,31542,Ag9GaSe6-x_ x=0.02,Ag9GaSe5.98,750,17624,-0.00018394,0.47027,1.0639,0.0000567408,0.0005962891,0.0012679717
27919,10.1039/c7cc05935c,25316,3b,31542,Ag9GaSe6-x_ x=0.02,Ag9GaSe5.98,300,43671,,0.55358,,0.0000228985,,
27919,10.1039/c7cc05935c,25318,3d,31542,Ag9GaSe6-x_ x=0.02,Ag9GaSe5.98,800,,,,1.162,,,