sid,DOI,figureid,fignum,sampleid,samplename,composition,Temperature,Electrical conductivity,Seebeck coefficient,Thermal conductivity,ZT,Electrical resistivity,Power factor,Figure of merit Z
872,10.1039/c4ee03042g,8684,1(d),10602,x=0.06,FeNb0.94Ti0.06Sb,350,239290,0.00015017,12.266,0.14902,0.000004179,0.0053962357,0.0004399344
872,10.1039/c4ee03042g,8684,1(d),10602,x=0.06,FeNb0.94Ti0.06Sb,400,221630,0.00016005,11.772,0.1833,0.000004512,0.0056772746,0.0004822693
872,10.1039/c4ee03042g,8684,1(d),10602,x=0.06,FeNb0.94Ti0.06Sb,450,203960,0.00016993,11.277,0.21759,0.0000049029,0.0058895908,0.0005222657
872,10.1039/c4ee03042g,8684,1(d),10602,x=0.06,FeNb0.94Ti0.06Sb,500,186290,0.00017982,10.783,0.25187,0.000005368,0.0060237304,0.0005586321
872,10.1039/c4ee03042g,8684,1(d),10602,x=0.06,FeNb0.94Ti0.06Sb,550,168620,0.0001897,10.288,0.28615,0.0000059305,0.0060679745,0.0005898109
872,10.1039/c4ee03042g,8684,1(d),10602,x=0.06,FeNb0.94Ti0.06Sb,600,150950,0.00019958,9.7937,0.32043,0.0000066247,0.006012667,0.0006139321
872,10.1039/c4ee03042g,8684,1(d),10602,x=0.06,FeNb0.94Ti0.06Sb,650,133290,0.00020946,9.2992,0.35471,0.0000075024,0.0058478977,0.0006288603
872,10.1039/c4ee03042g,8684,1(d),10602,x=0.06,FeNb0.94Ti0.06Sb,700,115620,0.00021935,8.8047,0.389,0.000008649,0.0055629895,0.0006318205
872,10.1039/c4ee03042g,8684,1(d),10602,x=0.06,FeNb0.94Ti0.06Sb,750,97950,0.00022923,8.3102,0.42328,0.0000102093,0.0051469192,0.0006193496
872,10.1039/c4ee03042g,8684,1(d),10602,x=0.06,FeNb0.94Ti0.06Sb,800,80282,0.00023911,7.8157,0.45756,0.0000124561,0.0045900103,0.0005872808
872,10.1039/c4ee03042g,8684,1(d),10602,x=0.06,FeNb0.94Ti0.06Sb,850,62614,0.00024899,7.3211,0.49184,0.0000159709,0.0038818188,0.0005302234
872,10.1039/c4ee03042g,8684,1(d),10602,x=0.06,FeNb0.94Ti0.06Sb,900,44946,0.00025888,6.8266,0.52612,0.0000222489,0.0030122294,0.0004412489
872,10.1039/c4ee03042g,8684,1(d),10602,x=0.06,FeNb0.94Ti0.06Sb,950,27278,0.00026876,6.3321,0.56041,0.0000366596,0.0019703428,0.0003111674
872,10.1039/c4ee03042g,8684,1(d),10602,x=0.06,FeNb0.94Ti0.06Sb,1000,9610,,5.8376,0.59469,0.0001040583,,
872,10.1039/c4ee03042g,8685,3(a),10602,x=0.06,FeNb0.94Ti0.06Sb,300,256960,,12.761,,0.0000038917,,
872,10.1039/c4ee03042g,8685,3(a),10602,x=0.06,FeNb0.94Ti0.06Sb,1050,-8058,,5.3431,,-0.0001241003,,
872,10.1039/c4ee03042g,8879,2(a),10602,x=0.06,FeNb0.94Ti0.06Sb,50,345300,,,,0.000002896,,
872,10.1039/c4ee03042g,8879,2(a),10602,x=0.06,FeNb0.94Ti0.06Sb,100,327630,,,,0.0000030522,,
872,10.1039/c4ee03042g,8879,2(a),10602,x=0.06,FeNb0.94Ti0.06Sb,150,309970,,,,0.0000032261,,
872,10.1039/c4ee03042g,8879,2(a),10602,x=0.06,FeNb0.94Ti0.06Sb,200,292300,,,,0.0000034211,,
872,10.1039/c4ee03042g,8879,2(a),10602,x=0.06,FeNb0.94Ti0.06Sb,250,274630,,,,0.0000036413,,
872,10.1039/c4ee03042g,8684,1(d),10603,x=0.08,FeNb0.92Ti0.08Sb,350,445610,0.00013835,11.11,0.19688,0.0000022441,0.0085292974,0.0007677135
872,10.1039/c4ee03042g,8684,1(d),10603,x=0.08,FeNb0.92Ti0.08Sb,400,407020,0.00014675,10.672,0.233,0.0000024569,0.0087654046,0.000821346
872,10.1039/c4ee03042g,8684,1(d),10603,x=0.08,FeNb0.92Ti0.08Sb,450,368420,0.00015515,10.235,0.26912,0.0000027143,0.0088684303,0.0008664807
872,10.1039/c4ee03042g,8684,1(d),10603,x=0.08,FeNb0.92Ti0.08Sb,500,329830,0.00016356,9.7978,0.30525,0.0000030319,0.0088235705,0.0009005665
872,10.1039/c4ee03042g,8684,1(d),10603,x=0.08,FeNb0.92Ti0.08Sb,550,291230,0.00017196,9.3604,0.34137,0.0000034337,0.0086117415,0.0009200185
872,10.1039/c4ee03042g,8684,1(d),10603,x=0.08,FeNb0.92Ti0.08Sb,600,252640,0.00018037,8.9231,0.37749,0.0000039582,0.0082192222,0.0009211174
872,10.1039/c4ee03042g,8684,1(d),10603,x=0.08,FeNb0.92Ti0.08Sb,650,214040,0.00018877,8.4857,0.41362,0.000004672,0.0076271255,0.000898821
872,10.1039/c4ee03042g,8684,1(d),10603,x=0.08,FeNb0.92Ti0.08Sb,700,175450,0.00019718,8.0484,0.44974,0.0000056996,0.0068214876,0.0008475582
872,10.1039/c4ee03042g,8684,1(d),10603,x=0.08,FeNb0.92Ti0.08Sb,750,136850,0.00020558,7.611,0.48586,0.0000073073,0.0057837102,0.0007599146
872,10.1039/c4ee03042g,8684,1(d),10603,x=0.08,FeNb0.92Ti0.08Sb,800,98258,0.00021399,7.1736,0.52198,0.0000101773,0.0044994028,0.0006272169
872,10.1039/c4ee03042g,8684,1(d),10603,x=0.08,FeNb0.92Ti0.08Sb,850,59664,0.00022239,6.7363,0.55811,0.0000167605,0.0029508211,0.0004380478
872,10.1039/c4ee03042g,8684,1(d),10603,x=0.08,FeNb0.92Ti0.08Sb,900,21069,0.0002308,6.2989,0.59423,0.0000474631,0.001122317,0.0001781767
872,10.1039/c4ee03042g,8684,1(d),10603,x=0.08,FeNb0.92Ti0.08Sb,950,-17525,0.0002392,5.8616,0.63035,-0.0000570613,-0.0010027216,-0.0001710662
872,10.1039/c4ee03042g,8684,1(d),10603,x=0.08,FeNb0.92Ti0.08Sb,1000,-56120,0.00024761,5.4242,0.66647,-0.000017819,-0.0034407572,-0.0006343345
872,10.1039/c4ee03042g,8684,1(d),10603,x=0.08,FeNb0.92Ti0.08Sb,1050,-94715,0.00025601,4.9869,0.7026,-0.000010558,-0.0062077272,-0.0012448068
872,10.1039/c4ee03042g,8685,3(a),10603,x=0.08,FeNb0.92Ti0.08Sb,300,484200,,11.547,,0.0000020653,,
872,10.1039/c4ee03042g,8879,2(a),10603,x=0.08,FeNb0.92Ti0.08Sb,50,677180,,,,0.0000014767,,
872,10.1039/c4ee03042g,8879,2(a),10603,x=0.08,FeNb0.92Ti0.08Sb,100,638580,,,,0.000001566,,
872,10.1039/c4ee03042g,8879,2(a),10603,x=0.08,FeNb0.92Ti0.08Sb,150,599990,,,,0.0000016667,,
872,10.1039/c4ee03042g,8879,2(a),10603,x=0.08,FeNb0.92Ti0.08Sb,200,561390,,,,0.0000017813,,
872,10.1039/c4ee03042g,8879,2(a),10603,x=0.08,FeNb0.92Ti0.08Sb,250,522800,,,,0.0000019128,,
872,10.1039/c4ee03042g,8879,2(a),10603,x=0.08,FeNb0.92Ti0.08Sb,1100,-133310,,,,-0.0000075013,,
872,10.1039/c4ee03042g,8684,1(d),10604,x=0.12,FeNb0.88Ti0.12Sb,350,606590,0.00011654,9.7083,0.16356,0.0000016486,0.0082384455,0.0008485982
872,10.1039/c4ee03042g,8684,1(d),10604,x=0.12,FeNb0.88Ti0.12Sb,400,551460,0.00012464,9.329,0.20723,0.0000018134,0.0085670026,0.0009183195
872,10.1039/c4ee03042g,8684,1(d),10604,x=0.12,FeNb0.88Ti0.12Sb,450,496340,0.00013274,8.9497,0.25089,0.0000020147,0.0087454649,0.0009771797
872,10.1039/c4ee03042g,8684,1(d),10604,x=0.12,FeNb0.88Ti0.12Sb,500,441220,0.00014084,8.5704,0.29456,0.0000022664,0.0087519983,0.001021189
872,10.1039/c4ee03042g,8684,1(d),10604,x=0.12,FeNb0.88Ti0.12Sb,550,386100,0.00014895,8.1911,0.33823,0.00000259,0.0085660542,0.0010457758
872,10.1039/c4ee03042g,8684,1(d),10604,x=0.12,FeNb0.88Ti0.12Sb,600,330970,0.00015705,7.8118,0.38189,0.0000030214,0.0081632766,0.001044993
872,10.1039/c4ee03042g,8684,1(d),10604,x=0.12,FeNb0.88Ti0.12Sb,650,275850,0.00016515,7.4325,0.42556,0.0000036252,0.007523677,0.0010122673
872,10.1039/c4ee03042g,8684,1(d),10604,x=0.12,FeNb0.88Ti0.12Sb,700,220730,0.00017325,7.0532,0.46923,0.0000045304,0.0066253351,0.0009393375
872,10.1039/c4ee03042g,8684,1(d),10604,x=0.12,FeNb0.88Ti0.12Sb,750,165600,0.00018136,6.6739,0.51289,0.0000060386,0.0054468241,0.0008161381
872,10.1039/c4ee03042g,8684,1(d),10604,x=0.12,FeNb0.88Ti0.12Sb,800,110480,0.00018946,6.2946,0.55656,0.0000090514,0.0039656897,0.0006300146
872,10.1039/c4ee03042g,8684,1(d),10604,x=0.12,FeNb0.88Ti0.12Sb,850,55359,0.00019756,5.9153,0.60022,0.0000180639,0.0021606592,0.0003652662
872,10.1039/c4ee03042g,8684,1(d),10604,x=0.12,FeNb0.88Ti0.12Sb,900,236.27,0.00020566,5.536,0.64389,0.0042324459,0.0000099933,0.0000018051
872,10.1039/c4ee03042g,8684,1(d),10604,x=0.12,FeNb0.88Ti0.12Sb,950,-54887,0.00021377,5.1567,0.68756,-0.0000182193,-0.0025082049,-0.0004863973
872,10.1039/c4ee03042g,8684,1(d),10604,x=0.12,FeNb0.88Ti0.12Sb,1000,-110010,0.00022187,4.7774,0.73122,-0.0000090901,-0.0054153849,-0.0011335423
872,10.1039/c4ee03042g,8684,1(d),10604,x=0.12,FeNb0.88Ti0.12Sb,1050,-165130,0.00022997,4.3981,0.77489,-0.0000060558,-0.0087330984,-0.0019856525
872,10.1039/c4ee03042g,8685,3(a),10604,x=0.12,FeNb0.88Ti0.12Sb,300,661710,0.00010843,10.088,0.23136,0.0000015112,0.0077797674,0.0007711903
872,10.1039/c4ee03042g,8879,2(a),10604,x=0.12,FeNb0.88Ti0.12Sb,50,937320,,,,0.0000010669,,
872,10.1039/c4ee03042g,8879,2(a),10604,x=0.12,FeNb0.88Ti0.12Sb,100,882200,,,,0.0000011335,,
872,10.1039/c4ee03042g,8879,2(a),10604,x=0.12,FeNb0.88Ti0.12Sb,150,827080,,,,0.0000012091,,
872,10.1039/c4ee03042g,8879,2(a),10604,x=0.12,FeNb0.88Ti0.12Sb,200,771960,,,,0.0000012954,,
872,10.1039/c4ee03042g,8879,2(a),10604,x=0.12,FeNb0.88Ti0.12Sb,250,716830,,,,0.000001395,,
872,10.1039/c4ee03042g,8879,2(a),10604,x=0.12,FeNb0.88Ti0.12Sb,1100,-220250,,,,-0.0000045403,,
872,10.1039/c4ee03042g,8684,1(d),10605,x=0.16,FeNb0.84Ti0.16Sb,350,526320,0.000091938,7.7902,0.13673,0.0000019,0.0044487702,0.0005710727
872,10.1039/c4ee03042g,8684,1(d),10605,x=0.16,FeNb0.84Ti0.16Sb,400,481670,0.00010167,7.5366,0.19548,0.0000020761,0.0049789211,0.0006606323
872,10.1039/c4ee03042g,8684,1(d),10605,x=0.16,FeNb0.84Ti0.16Sb,450,437020,0.00011189,7.283,0.25424,0.0000022882,0.005471216,0.0007512311
872,10.1039/c4ee03042g,8684,1(d),10605,x=0.16,FeNb0.84Ti0.16Sb,500,392370,0.00012229,7.0294,0.31299,0.0000025486,0.0058678322,0.0008347558
872,10.1039/c4ee03042g,8684,1(d),10605,x=0.16,FeNb0.84Ti0.16Sb,550,347720,0.00013264,6.7758,0.37175,0.0000028759,0.0061175665,0.0009028552
872,10.1039/c4ee03042g,8684,1(d),10605,x=0.16,FeNb0.84Ti0.16Sb,600,303070,0.00014277,6.5222,0.4305,0.0000032996,0.0061775585,0.0009471587
872,10.1039/c4ee03042g,8684,1(d),10605,x=0.16,FeNb0.84Ti0.16Sb,650,258420,0.00015257,6.2686,0.48926,0.0000038697,0.0060153987,0.000959608
872,10.1039/c4ee03042g,8684,1(d),10605,x=0.16,FeNb0.84Ti0.16Sb,700,213770,0.00016197,6.015,0.54802,0.0000046779,0.0056081022,0.0009323528
872,10.1039/c4ee03042g,8684,1(d),10605,x=0.16,FeNb0.84Ti0.16Sb,750,169120,0.00017092,5.7614,0.60677,0.000005913,0.0049406119,0.0008575367
872,10.1039/c4ee03042g,8684,1(d),10605,x=0.16,FeNb0.84Ti0.16Sb,800,124470,0.00017939,5.5078,0.66553,0.0000080341,0.0040055407,0.0007272488
872,10.1039/c4ee03042g,8684,1(d),10605,x=0.16,FeNb0.84Ti0.16Sb,850,79824,0.00018736,5.2542,0.72428,0.0000125276,0.0028021233,0.0005333111
872,10.1039/c4ee03042g,8684,1(d),10605,x=0.16,FeNb0.84Ti0.16Sb,900,35174,0.00019477,5.0006,0.78304,0.0000284301,0.0013343381,0.0002668356
872,10.1039/c4ee03042g,8684,1(d),10605,x=0.16,FeNb0.84Ti0.16Sb,950,-9475.5,0.00020156,4.747,0.84179,-0.0001055353,-0.0003849558,-0.0000810945
872,10.1039/c4ee03042g,8684,1(d),10605,x=0.16,FeNb0.84Ti0.16Sb,1000,-54125,0.00020764,4.4934,0.90055,-0.0000184758,-0.0023335653,-0.0005193317
872,10.1039/c4ee03042g,8684,1(d),10605,x=0.16,FeNb0.84Ti0.16Sb,1050,-98775,0.00021286,4.2398,0.9593,-0.000010124,-0.004475434,-0.0010555767
872,10.1039/c4ee03042g,8685,3(a),10605,x=0.16,FeNb0.84Ti0.16Sb,300,570970,0.000083096,8.0438,0.14704,0.0000017514,0.0039425166,0.0004901311
872,10.1039/c4ee03042g,8685,3(a),10605,x=0.16,FeNb0.84Ti0.16Sb,1100,,,3.9862,,,,
872,10.1039/c4ee03042g,8879,2(a),10605,x=0.16,FeNb0.84Ti0.16Sb,50,794220,,,,0.0000012591,,
872,10.1039/c4ee03042g,8879,2(a),10605,x=0.16,FeNb0.84Ti0.16Sb,100,749570,,,,0.0000013341,,
872,10.1039/c4ee03042g,8879,2(a),10605,x=0.16,FeNb0.84Ti0.16Sb,150,704920,,,,0.0000014186,,
872,10.1039/c4ee03042g,8879,2(a),10605,x=0.16,FeNb0.84Ti0.16Sb,200,660270,,,,0.0000015145,,
872,10.1039/c4ee03042g,8879,2(a),10605,x=0.16,FeNb0.84Ti0.16Sb,250,615620,,,,0.0000016244,,
872,10.1039/c4ee03042g,8684,1(d),10606,x=0.20,FeNb0.8Ti0.2Sb,350,528280,0.000078197,6.6535,0.10065,0.0000018929,0.0032303111,0.0004855055
872,10.1039/c4ee03042g,8684,1(d),10606,x=0.20,FeNb0.8Ti0.2Sb,400,485460,0.000088425,6.4757,0.1553,0.0000020599,0.0037958023,0.0005861609
872,10.1039/c4ee03042g,8684,1(d),10606,x=0.20,FeNb0.8Ti0.2Sb,450,442630,0.000098765,6.2979,0.22333,0.0000022592,0.0043176455,0.0006855691
872,10.1039/c4ee03042g,8684,1(d),10606,x=0.20,FeNb0.8Ti0.2Sb,500,399810,0.0001091,6.1201,0.29136,0.0000025012,0.0047588625,0.0007775792
872,10.1039/c4ee03042g,8684,1(d),10606,x=0.20,FeNb0.8Ti0.2Sb,550,356980,0.0001193,5.9424,0.35939,0.0000028013,0.0050807143,0.0008549937
872,10.1039/c4ee03042g,8684,1(d),10606,x=0.20,FeNb0.8Ti0.2Sb,600,314160,0.00012928,5.7646,0.42742,0.0000031831,0.0052506561,0.0009108448
872,10.1039/c4ee03042g,8684,1(d),10606,x=0.20,FeNb0.8Ti0.2Sb,650,271330,0.00013894,5.5868,0.49545,0.0000036855,0.0052378421,0.0009375389
872,10.1039/c4ee03042g,8684,1(d),10606,x=0.20,FeNb0.8Ti0.2Sb,700,228510,0.0001482,5.409,0.56348,0.0000043762,0.00501882,0.0009278647
872,10.1039/c4ee03042g,8684,1(d),10606,x=0.20,FeNb0.8Ti0.2Sb,750,185680,0.00015699,5.2312,0.63151,0.0000053856,0.0045762433,0.000874798
872,10.1039/c4ee03042g,8684,1(d),10606,x=0.20,FeNb0.8Ti0.2Sb,800,142860,0.00016525,5.0535,0.69954,0.0000069999,0.0039011584,0.0007719716
872,10.1039/c4ee03042g,8684,1(d),10606,x=0.20,FeNb0.8Ti0.2Sb,850,100030,0.00017296,4.8757,0.76756,0.000009997,0.0029924136,0.0006137403
872,10.1039/c4ee03042g,8684,1(d),10606,x=0.20,FeNb0.8Ti0.2Sb,900,57206,0.00018009,4.6979,0.83559,0.0000174807,0.0018553283,0.0003949272
872,10.1039/c4ee03042g,8684,1(d),10606,x=0.20,FeNb0.8Ti0.2Sb,950,14381,0.00018665,4.5201,0.90362,0.0000695362,0.0005010085,0.0001108401
872,10.1039/c4ee03042g,8684,1(d),10606,x=0.20,FeNb0.8Ti0.2Sb,1000,-28444,0.00019266,4.3423,0.97165,-0.0000351568,-0.0010557809,-0.0002431386
872,10.1039/c4ee03042g,8684,1(d),10606,x=0.20,FeNb0.8Ti0.2Sb,1050,-71270,0.00019815,4.1646,1.0397,-0.0000140311,-0.0027983041,-0.0006719263
872,10.1039/c4ee03042g,8685,3(a),10606,x=0.20,FeNb0.8Ti0.2Sb,300,571110,,6.8313,,0.000001751,,
872,10.1039/c4ee03042g,8879,2(a),10606,x=0.20,FeNb0.8Ti0.2Sb,50,785230,,,,0.0000012735,,
872,10.1039/c4ee03042g,8879,2(a),10606,x=0.20,FeNb0.8Ti0.2Sb,100,742410,,,,0.000001347,,
872,10.1039/c4ee03042g,8879,2(a),10606,x=0.20,FeNb0.8Ti0.2Sb,150,699580,,,,0.0000014294,,
872,10.1039/c4ee03042g,8879,2(a),10606,x=0.20,FeNb0.8Ti0.2Sb,200,656760,,,,0.0000015226,,
872,10.1039/c4ee03042g,8879,2(a),10606,x=0.20,FeNb0.8Ti0.2Sb,250,613930,,,,0.0000016289,,
872,10.1039/c4ee03042g,8684,1(d),10607,x=0.24,FeNb0.76Ti0.24Sb,350,597280,0.000084677,6.7929,0.13991,0.0000016743,0.0042826137,0.0006304544
872,10.1039/c4ee03042g,8684,1(d),10607,x=0.24,FeNb0.76Ti0.24Sb,400,547080,0.000092835,6.6148,0.20387,0.0000018279,0.0047149199,0.0007127834
872,10.1039/c4ee03042g,8684,1(d),10607,x=0.24,FeNb0.76Ti0.24Sb,450,496870,0.00010099,6.4367,0.26782,0.0000020126,0.0050675672,0.0007872927
872,10.1039/c4ee03042g,8684,1(d),10607,x=0.24,FeNb0.76Ti0.24Sb,500,446670,0.00010915,6.2586,0.33178,0.0000022388,0.0053215024,0.0008502704
872,10.1039/c4ee03042g,8684,1(d),10607,x=0.24,FeNb0.76Ti0.24Sb,550,396470,0.00011731,6.0806,0.39574,0.0000025223,0.0054560759,0.0008972924
872,10.1039/c4ee03042g,8684,1(d),10607,x=0.24,FeNb0.76Ti0.24Sb,600,346270,0.00012547,5.9025,0.45969,0.0000028879,0.005451232,0.0009235463
872,10.1039/c4ee03042g,8684,1(d),10607,x=0.24,FeNb0.76Ti0.24Sb,650,296070,0.00013363,5.7244,0.52365,0.0000033776,0.0052869152,0.0009235754
872,10.1039/c4ee03042g,8684,1(d),10607,x=0.24,FeNb0.76Ti0.24Sb,700,245870,0.00014178,5.5464,0.5876,0.0000040672,0.0049423726,0.0008910956
872,10.1039/c4ee03042g,8684,1(d),10607,x=0.24,FeNb0.76Ti0.24Sb,750,195670,0.00014994,5.3683,0.65156,0.0000051106,0.0043990536,0.00081945
872,10.1039/c4ee03042g,8684,1(d),10607,x=0.24,FeNb0.76Ti0.24Sb,800,145470,0.0001581,5.1902,0.71552,0.0000068743,0.0036361114,0.0007005725
872,10.1039/c4ee03042g,8684,1(d),10607,x=0.24,FeNb0.76Ti0.24Sb,850,95267,0.00016626,5.0121,0.77947,0.0000104968,0.0026334073,0.00052541
872,10.1039/c4ee03042g,8684,1(d),10607,x=0.24,FeNb0.76Ti0.24Sb,900,45066,0.00017442,4.8341,0.84343,0.0000221897,0.001371013,0.0002836129
872,10.1039/c4ee03042g,8684,1(d),10607,x=0.24,FeNb0.76Ti0.24Sb,950,-5134.6,0.00018257,4.656,0.90739,-0.0001947571,-0.0001711455,-0.0000367581
872,10.1039/c4ee03042g,8684,1(d),10607,x=0.24,FeNb0.76Ti0.24Sb,1000,-55336,0.00019073,4.4779,0.97134,-0.0000180714,-0.0020130093,-0.0004495432
872,10.1039/c4ee03042g,8684,1(d),10607,x=0.24,FeNb0.76Ti0.24Sb,1050,-105540,0.00019889,4.2999,1.0353,-0.0000094751,-0.0041748703,-0.0009709226
872,10.1039/c4ee03042g,8879,2(a),10607,x=0.24,FeNb0.76Ti0.24Sb,50,898480,,,,0.000001113,,
872,10.1039/c4ee03042g,8879,2(a),10607,x=0.24,FeNb0.76Ti0.24Sb,100,848280,,,,0.0000011789,,
872,10.1039/c4ee03042g,8879,2(a),10607,x=0.24,FeNb0.76Ti0.24Sb,150,798080,,,,0.000001253,,
872,10.1039/c4ee03042g,8879,2(a),10607,x=0.24,FeNb0.76Ti0.24Sb,200,747880,,,,0.0000013371,,
872,10.1039/c4ee03042g,8879,2(a),10607,x=0.24,FeNb0.76Ti0.24Sb,250,697680,,,,0.0000014333,,
872,10.1039/c4ee03042g,8879,2(a),10607,x=0.24,FeNb0.76Ti0.24Sb,300,647480,,,,0.0000015444,,
872,10.1039/c4ee03042g,8879,2(a),10607,x=0.24,FeNb0.76Ti0.24Sb,1100,-155740,0.00020705,,,-0.000006421,-0.0066765275,
872,10.1039/c4ee03042g,8685,3(a),10601,x=0.04,FeNb0.96Ti0.04Sb,300,123240,,13.269,,0.0000081142,,
872,10.1039/c4ee03042g,8685,3(a),10601,x=0.04,FeNb0.96Ti0.04Sb,350,117410,0.00017309,12.681,0.12723,0.0000085172,0.003517621,0.000277393
872,10.1039/c4ee03042g,8685,3(a),10601,x=0.04,FeNb0.96Ti0.04Sb,400,111580,0.00018315,12.093,0.1593,0.0000089622,0.0037428309,0.0003095039
872,10.1039/c4ee03042g,8685,3(a),10601,x=0.04,FeNb0.96Ti0.04Sb,450,105750,0.0001932,11.504,0.19138,0.0000094563,0.0039472499,0.0003431198
872,10.1039/c4ee03042g,8685,3(a),10601,x=0.04,FeNb0.96Ti0.04Sb,500,99919,0.00020325,10.916,0.22346,0.0000100081,0.0041277101,0.0003781339
872,10.1039/c4ee03042g,8685,3(a),10601,x=0.04,FeNb0.96Ti0.04Sb,550,94089,0.0002133,10.328,0.25553,0.0000106282,0.0042807569,0.0004144807
872,10.1039/c4ee03042g,8685,3(a),10601,x=0.04,FeNb0.96Ti0.04Sb,600,88260,0.00022335,9.7398,0.28761,0.0000113302,0.0044028697,0.0004520493
872,10.1039/c4ee03042g,8685,3(a),10601,x=0.04,FeNb0.96Ti0.04Sb,650,82430,0.00023341,9.1516,0.31969,0.0000121315,0.0044908052,0.0004907126
872,10.1039/c4ee03042g,8685,3(a),10601,x=0.04,FeNb0.96Ti0.04Sb,700,76600,0.00024346,8.5634,0.35176,0.0000130548,0.0045402943,0.0005301976
872,10.1039/c4ee03042g,8685,3(a),10601,x=0.04,FeNb0.96Ti0.04Sb,750,70770,0.00025351,7.9752,0.38384,0.0000141303,0.0045481982,0.0005702927
872,10.1039/c4ee03042g,8685,3(a),10601,x=0.04,FeNb0.96Ti0.04Sb,800,64941,0.00026356,7.387,0.41592,0.0000153986,0.0045110534,0.0006106746
872,10.1039/c4ee03042g,8685,3(a),10601,x=0.04,FeNb0.96Ti0.04Sb,850,59111,0.00027361,6.7988,0.44799,0.0000169173,0.0044251932,0.0006508786
872,10.1039/c4ee03042g,8685,3(a),10601,x=0.04,FeNb0.96Ti0.04Sb,900,53281,0.00028366,6.2106,0.48007,0.0000187684,0.0042871489,0.0006902954
872,10.1039/c4ee03042g,8685,3(a),10601,x=0.04,FeNb0.96Ti0.04Sb,950,47451,0.00029372,5.6224,0.51215,0.0000210744,0.004093666,0.0007280994
872,10.1039/c4ee03042g,8879,2(a),10601,x=0.04,FeNb0.96Ti0.04Sb,50,152390,,,,0.0000065621,,
872,10.1039/c4ee03042g,8879,2(a),10601,x=0.04,FeNb0.96Ti0.04Sb,100,146560,,,,0.0000068231,,
872,10.1039/c4ee03042g,8879,2(a),10601,x=0.04,FeNb0.96Ti0.04Sb,150,140730,,,,0.0000071058,,
872,10.1039/c4ee03042g,8879,2(a),10601,x=0.04,FeNb0.96Ti0.04Sb,200,134900,,,,0.0000074129,,
872,10.1039/c4ee03042g,8879,2(a),10601,x=0.04,FeNb0.96Ti0.04Sb,250,129070,,,,0.0000077477,,
872,10.1039/c4ee03042g,8879,2(a),10601,x=0.04,FeNb0.96Ti0.04Sb,1000,41622,,,,0.0000240258,,