sid,DOI,figureid,fignum,sampleid,samplename,composition,Temperature,Carrier concentration,Carrier mobility,Electrical conductivity,Lattice thermal conductivity,Seebeck coefficient,Thermal conductivity,ZT,Electrical resistivity,Power factor,Figure of merit Z
27926,10.1039/c8ee00418h,25419,2a,31644, PbCuxSe_ x=0, PbSe,350,,,5748.4,1.3995,-0.00022925,1.4673,0.06455,0.0001739615,0.0003021104,0.0002058955
27926,10.1039/c8ee00418h,25419,2a,31644, PbCuxSe_ x=0, PbSe,400,,,6170.4,1.3351,-0.00023921,1.4164,0.11882,0.000162064,0.0003530791,0.0002492792
27926,10.1039/c8ee00418h,25419,2a,31644, PbCuxSe_ x=0, PbSe,450,,,6592.3,1.2707,-0.00024918,1.3656,0.1731,0.0001516921,0.0004093203,0.0002997366
27926,10.1039/c8ee00418h,25419,2a,31644, PbCuxSe_ x=0, PbSe,500,,,7014.2,1.2063,-0.00025915,1.3148,0.22737,0.0001425679,0.0004710647,0.0003582786
27926,10.1039/c8ee00418h,25419,2a,31644, PbCuxSe_ x=0, PbSe,550,,,7436.2,1.142,-0.00026912,1.2639,0.28165,0.0001344773,0.0005385711,0.0004261184
27926,10.1039/c8ee00418h,25419,2a,31644, PbCuxSe_ x=0, PbSe,600,,,7858.1,1.0776,-0.00027909,1.2131,0.33592,0.0001272572,0.0006120771,0.0005045561
27926,10.1039/c8ee00418h,25419,2a,31644, PbCuxSe_ x=0, PbSe,650,,,8280,1.0132,-0.00028906,1.1623,0.3902,0.0001207729,0.0006918411,0.0005952345
27926,10.1039/c8ee00418h,25419,2a,31644, PbCuxSe_ x=0, PbSe,700,,,8702,0.94881,-0.00029902,1.1114,0.44447,0.0001149161,0.0007780716,0.0007000824
27926,10.1039/c8ee00418h,25419,2a,31644, PbCuxSe_ x=0, PbSe,750,,,9123.9,0.88443,-0.00030899,1.0606,0.49875,0.0001096023,0.0008711027,0.0008213301
27926,10.1039/c8ee00418h,25419,2a,31644, PbCuxSe_ x=0, PbSe,800,,,9545.8,0.82004,-0.00031896,1.0098,0.55302,0.0001047581,0.0009711466,0.0009617217
27926,10.1039/c8ee00418h,25419,2a,31645, PbCuxSe_ x=0.00125, PbCu0.00125Se,350,1.2996e+25,0.055345,104310,1.2472,-0.00015218,1.9614,0.46548,0.0000095868,0.0024156895,0.0012316149
27926,10.1039/c8ee00418h,25419,2a,31645, PbCuxSe_ x=0.00125, PbCu0.00125Se,400,1.3136e+25,0.048518,93972,1.1668,-0.00016344,1.8403,0.55541,0.0000106415,0.0025102396,0.0013640383
27926,10.1039/c8ee00418h,25419,2a,31645, PbCuxSe_ x=0.00125, PbCu0.00125Se,450,1.3275e+25,0.041692,83636,1.0864,-0.0001747,1.7192,0.64533,0.0000119566,0.0025525782,0.0014847477
27926,10.1039/c8ee00418h,25419,2a,31645, PbCuxSe_ x=0.00125, PbCu0.00125Se,500,1.3414e+25,0.034865,73300,1.0061,-0.00018596,1.5981,0.73525,0.0000136426,0.0025347962,0.0015861312
27926,10.1039/c8ee00418h,25419,2a,31645, PbCuxSe_ x=0.00125, PbCu0.00125Se,550,1.3553e+25,0.028039,62964,0.92566,-0.00019722,1.477,0.82518,0.0000158821,0.0024490306,0.0016581115
27926,10.1039/c8ee00418h,25419,2a,31645, PbCuxSe_ x=0.00125, PbCu0.00125Se,600,1.3693e+25,0.021212,52628,0.84527,-0.00020848,1.3559,0.9151,0.0000190013,0.0022874187,0.0016870113
27926,10.1039/c8ee00418h,25419,2a,31645, PbCuxSe_ x=0.00125, PbCu0.00125Se,650,1.3832e+25,0.014386,42292,0.76488,-0.00021975,1.2348,1.005,0.0000236451,0.0020422833,0.0016539386
27926,10.1039/c8ee00418h,25419,2a,31645, PbCuxSe_ x=0.00125, PbCu0.00125Se,700,1.3971e+25,0.0075595,31955,0.68449,-0.00023101,1.1137,1.0949,0.000031294,0.0017052984,0.0015312009
27926,10.1039/c8ee00418h,25419,2a,31645, PbCuxSe_ x=0.00125, PbCu0.00125Se,750,,,21619,0.60409,-0.00024227,0.99264,1.1849,0.0000462556,0.0012689219,0.0012783304
27926,10.1039/c8ee00418h,25419,2a,31645, PbCuxSe_ x=0.00125, PbCu0.00125Se,800,,,11283,0.5237,-0.00025353,0.87154,1.2748,0.0000886289,0.0007252426,0.0008321392
27926,10.1039/c8ee00418h,25419,2a,31646, PbCuxSe_ x= 0.0025, PbCu0.0025Se,350,1.4263e+25,0.049283,151920,0.81743,-0.00012044,1.9137,0.43822,0.0000065824,0.0022037202,0.0011515494
27926,10.1039/c8ee00418h,25419,2a,31646, PbCuxSe_ x= 0.0025, PbCu0.0025Se,400,1.4452e+25,0.043367,137300,0.76195,-0.00013164,1.7956,0.55733,0.0000072833,0.002379284,0.0013250635
27926,10.1039/c8ee00418h,25419,2a,31646, PbCuxSe_ x= 0.0025, PbCu0.0025Se,450,1.4641e+25,0.037452,122670,0.70647,-0.00014284,1.6775,0.67644,0.000008152,0.0025028686,0.001492023
27926,10.1039/c8ee00418h,25419,2a,31646, PbCuxSe_ x= 0.0025, PbCu0.0025Se,500,1.483e+25,0.031537,108050,0.65099,-0.00015403,1.5594,0.79555,0.000009255,0.0025635123,0.0016439094
27926,10.1039/c8ee00418h,25419,2a,31646, PbCuxSe_ x= 0.0025, PbCu0.0025Se,550,1.5019e+25,0.025622,93420,0.59551,-0.00016523,1.4414,0.91466,0.0000107043,0.002550455,0.001769429
27926,10.1039/c8ee00418h,25419,2a,31646, PbCuxSe_ x= 0.0025, PbCu0.0025Se,600,1.5208e+25,0.019706,78795,0.54003,-0.00017642,1.3233,1.0338,0.0000126912,0.0024524169,0.0018532584
27926,10.1039/c8ee00418h,25419,2a,31646, PbCuxSe_ x= 0.0025, PbCu0.0025Se,650,1.5397e+25,0.013791,64169,0.48455,-0.00018762,1.2052,1.1529,0.0000155838,0.0022588299,0.0018742366
27926,10.1039/c8ee00418h,25419,2a,31646, PbCuxSe_ x= 0.0025, PbCu0.0025Se,700,1.5587e+25,0.0078758,49544,0.42907,-0.00019881,1.0871,1.272,0.0000201841,0.0019582472,0.0018013497
27926,10.1039/c8ee00418h,25419,2a,31646, PbCuxSe_ x= 0.0025, PbCu0.0025Se,750,,,34918,0.37359,-0.00021001,0.96905,1.3911,0.0000286385,0.0015400305,0.0015892167
27926,10.1039/c8ee00418h,25419,2a,31646, PbCuxSe_ x= 0.0025, PbCu0.0025Se,800,,,20293,0.3181,-0.00022121,0.85097,1.5102,0.0000492781,0.0009930149,0.0011669212
27926,10.1039/c8ee00418h,25422,3b,31646, PbCuxSe_ x= 0.0025, PbCu0.0025Se,300,,0.055198,,,,,,,,
27926,10.1039/c8ee00418h,25419,2a,31647, PbCuxSe_ x=0.00375, PbCu0.00375Se,350,,,153310,0.60825,-0.00012199,1.7305,0.48035,0.0000065227,0.002281492,0.0013184005
27926,10.1039/c8ee00418h,25419,2a,31647, PbCuxSe_ x=0.00375, PbCu0.00375Se,400,,,139290,0.56612,-0.00013168,1.6323,0.60487,0.0000071793,0.002415236,0.001479652
27926,10.1039/c8ee00418h,25419,2a,31647, PbCuxSe_ x=0.00375, PbCu0.00375Se,450,,,125280,0.52398,-0.00014137,1.5341,0.72939,0.0000079821,0.0025037805,0.0016320843
27926,10.1039/c8ee00418h,25419,2a,31647, PbCuxSe_ x=0.00375, PbCu0.00375Se,500,,,111270,0.48185,-0.00015106,1.436,0.85391,0.0000089871,0.0025390839,0.0017681643
27926,10.1039/c8ee00418h,25419,2a,31647, PbCuxSe_ x=0.00375, PbCu0.00375Se,550,,,97251,0.43971,-0.00016075,1.3378,0.97843,0.0000102827,0.0025130205,0.0018784725
27926,10.1039/c8ee00418h,25419,2a,31647, PbCuxSe_ x=0.00375, PbCu0.00375Se,600,,,83237,0.39758,-0.00017043,1.2397,1.1029,0.0000120139,0.0024177339,0.0019502573
27926,10.1039/c8ee00418h,25419,2a,31647, PbCuxSe_ x=0.00375, PbCu0.00375Se,650,,,69222,0.35544,-0.00018012,1.1415,1.2275,0.0000144463,0.0022457842,0.0019673974
27926,10.1039/c8ee00418h,25419,2a,31647, PbCuxSe_ x=0.00375, PbCu0.00375Se,700,,,55208,0.31331,-0.00018981,1.0433,1.352,0.0000181133,0.0019890248,0.0019064744
27926,10.1039/c8ee00418h,25419,2a,31647, PbCuxSe_ x=0.00375, PbCu0.00375Se,750,,,41194,0.27117,-0.0001995,0.94516,1.4765,0.0000242754,0.0016395315,0.0017346603
27926,10.1039/c8ee00418h,25419,2a,31647, PbCuxSe_ x=0.00375, PbCu0.00375Se,800,,,27179,0.22904,-0.00020919,0.847,1.601,0.0000367931,0.0011893654,0.0014042095
27926,10.1039/c8ee00418h,25419,2a,31648, PbCuxSe_ x=0.005, PbCu0.005Se,350,1.3858e+25,0.065292,158700,0.87729,-0.00011941,2.0153,0.37024,0.0000063012,0.0022628633,0.0011228419
27926,10.1039/c8ee00418h,25419,2a,31648, PbCuxSe_ x=0.005, PbCu0.005Se,400,1.4291e+25,0.056868,145090,0.79544,-0.00012761,1.8927,0.497,0.0000068923,0.0023626908,0.0012483177
27926,10.1039/c8ee00418h,25419,2a,31648, PbCuxSe_ x=0.005, PbCu0.005Se,450,1.4724e+25,0.048443,131490,0.71358,-0.00013581,1.7702,0.62375,0.0000076051,0.0024252484,0.001370042
27926,10.1039/c8ee00418h,25419,2a,31648, PbCuxSe_ x=0.005, PbCu0.005Se,500,1.5157e+25,0.040019,117880,0.63173,-0.000144,1.6476,0.7505,0.0000084832,0.0024443597,0.0014835881
27926,10.1039/c8ee00418h,25419,2a,31648, PbCuxSe_ x=0.005, PbCu0.005Se,550,1.559e+25,0.031595,104270,0.54988,-0.0001522,1.5251,0.87725,0.0000095905,0.0024153979,0.0015837636
27926,10.1039/c8ee00418h,25419,2a,31648, PbCuxSe_ x=0.005, PbCu0.005Se,600,1.6023e+25,0.023171,90668,0.46803,-0.0001604,1.4025,1.004,0.0000110292,0.0023327208,0.001663259
27926,10.1039/c8ee00418h,25419,2a,31648, PbCuxSe_ x=0.005, PbCu0.005Se,650,1.6456e+25,0.014746,77061,0.38618,-0.00016859,1.28,1.1308,0.0000129767,0.0021902731,0.0017111508
27926,10.1039/c8ee00418h,25419,2a,31648, PbCuxSe_ x=0.005, PbCu0.005Se,700,1.6889e+25,0.006322,63455,0.30433,-0.00017679,1.1574,1.2575,0.0000157592,0.0019832672,0.0017135539
27926,10.1039/c8ee00418h,25419,2a,31648, PbCuxSe_ x=0.005, PbCu0.005Se,750,,,49849,0.22248,-0.00018499,1.0349,1.3843,0.0000200606,0.0017058976,0.0016483695
27926,10.1039/c8ee00418h,25419,2a,31648, PbCuxSe_ x=0.005, PbCu0.005Se,800,,,36242,0.14063,-0.00019318,0.91231,1.511,0.0000275923,0.0013524975,0.0014824978
27926,10.1039/c8ee00418h,25419,2a,31649, PbCuxSe_ x=0.0075, PbCu0.0075Se,350,1.3376e+25,0.066176,143390,1.0565,-0.00011603,2.087,0.29394,0.000006974,0.001930454,0.0009249899
27926,10.1039/c8ee00418h,25419,2a,31649, PbCuxSe_ x=0.0075, PbCu0.0075Se,400,1.4043e+25,0.057661,132850,0.94907,-0.00012304,1.9651,0.4101,0.0000075273,0.0020111951,0.0010234569
27926,10.1039/c8ee00418h,25419,2a,31649, PbCuxSe_ x=0.0075, PbCu0.0075Se,450,1.4709e+25,0.049147,122310,0.84162,-0.00013005,1.8432,0.52626,0.0000081759,0.0020686293,0.0011223032
27926,10.1039/c8ee00418h,25419,2a,31649, PbCuxSe_ x=0.0075, PbCu0.0075Se,500,1.5375e+25,0.040633,111770,0.73416,-0.00013706,1.7214,0.64242,0.0000089469,0.002099649,0.0012197334
27926,10.1039/c8ee00418h,25419,2a,31649, PbCuxSe_ x=0.0075, PbCu0.0075Se,550,1.6041e+25,0.032118,101230,0.62671,-0.00014407,1.5995,0.75858,0.0000098785,0.0021011466,0.0013136271
27926,10.1039/c8ee00418h,25419,2a,31649, PbCuxSe_ x=0.0075, PbCu0.0075Se,600,1.6707e+25,0.023604,90692,0.51925,-0.00015108,1.4776,0.87474,0.0000110263,0.00207006,0.001400961
27926,10.1039/c8ee00418h,25419,2a,31649, PbCuxSe_ x=0.0075, PbCu0.0075Se,650,1.7374e+25,0.01509,80153,0.4118,-0.00015809,1.3558,0.9909,0.0000124761,0.0020032197,0.0014775186
27926,10.1039/c8ee00418h,25419,2a,31649, PbCuxSe_ x=0.0075, PbCu0.0075Se,700,1.804e+25,0.0065755,69614,0.30434,-0.0001651,1.2339,1.1071,0.0000143649,0.0018975391,0.0015378386
27926,10.1039/c8ee00418h,25419,2a,31649, PbCuxSe_ x=0.0075, PbCu0.0075Se,750,,,59075,0.19689,-0.00017211,1.112,1.2232,0.0000169276,0.0017499109,0.0015736609
27926,10.1039/c8ee00418h,25419,2a,31649, PbCuxSe_ x=0.0075, PbCu0.0075Se,800,,,48536,0.089433,-0.00017912,0.99015,1.3394,0.0000206033,0.0015572278,0.0015727191