sid,DOI,figureid,fignum,sampleid,samplename,composition,Temperature,Carrier concentration,Hall movility,Lattice thermal conductivity,Resistivity,Seebeck coefficient,Thermal conductivity,ZT
27945,10.1063/1.4983404,25600,Figure 2A,31870,GeTe,undefined,350,,,,0.032802,0.000047912,5.2449,0.041154
27945,10.1063/1.4983404,25600,Figure 2A,31870,GeTe,undefined,400,,,,0.037635,0.000062814,4.8338,0.18546
27945,10.1063/1.4983404,25600,Figure 2A,31870,GeTe,undefined,450,,,,0.042468,0.000077716,4.4227,0.32977
27945,10.1063/1.4983404,25600,Figure 2A,31870,GeTe,undefined,500,,,,0.0473,0.000092618,4.0116,0.47408
27945,10.1063/1.4983404,25600,Figure 2A,31870,GeTe,undefined,550,,,,0.052133,0.00010752,3.6005,0.6184
27945,10.1063/1.4983404,25600,Figure 2A,31870,GeTe,undefined,600,,,,0.056966,0.00012242,3.1894,0.76271
27945,10.1063/1.4983404,25600,Figure 2A,31870,GeTe,undefined,650,,,,0.061798,0.00013732,2.7783,0.90702
27945,10.1063/1.4983404,25600,Figure 2A,31870,GeTe,undefined,700,,,,0.066631,0.00015223,2.3672,1.0513
27945,10.1063/1.4983404,25600,Figure 2A,31870,GeTe,undefined,750,,,,0.071464,0.00016713,1.9561,1.1956
27945,10.1063/1.4983404,25602,Figure 2B,31870,GeTe,undefined,150,,,,0.013472,,,
27945,10.1063/1.4983404,25602,Figure 2B,31870,GeTe,undefined,200,,,,0.018304,,,
27945,10.1063/1.4983404,25602,Figure 2B,31870,GeTe,undefined,250,,,,0.023137,,,
27945,10.1063/1.4983404,25602,Figure 2B,31870,GeTe,undefined,300,,,,0.02797,,,
27945,10.1063/1.4983404,25600,Figure 2A,31871,Bi0.05Ge0.95Te,undefined,300,,,,0.067499,0.000063365,2.6305,
27945,10.1063/1.4983404,25600,Figure 2A,31871,Bi0.05Ge0.95Te,undefined,350,,,,0.078831,0.000082577,2.4702,0.20211
27945,10.1063/1.4983404,25600,Figure 2A,31871,Bi0.05Ge0.95Te,undefined,400,,,,0.090162,0.00010179,2.31,0.39388
27945,10.1063/1.4983404,25600,Figure 2A,31871,Bi0.05Ge0.95Te,undefined,450,,,,0.10149,0.000121,2.1497,0.58565
27945,10.1063/1.4983404,25600,Figure 2A,31871,Bi0.05Ge0.95Te,undefined,500,,,,0.11283,0.00014021,1.9894,0.77742
27945,10.1063/1.4983404,25600,Figure 2A,31871,Bi0.05Ge0.95Te,undefined,550,,,,0.12416,0.00015942,1.8292,0.9692
27945,10.1063/1.4983404,25600,Figure 2A,31871,Bi0.05Ge0.95Te,undefined,600,,,,0.13549,0.00017863,1.6689,1.161
27945,10.1063/1.4983404,25600,Figure 2A,31871,Bi0.05Ge0.95Te,undefined,650,,,,0.14682,0.00019785,1.5087,1.3527
27945,10.1063/1.4983404,25600,Figure 2A,31871,Bi0.05Ge0.95Te,undefined,700,,,,0.15815,0.00021706,1.3484,1.5445
27945,10.1063/1.4983404,25600,Figure 2A,31871,Bi0.05Ge0.95Te,undefined,750,,,,0.16948,0.00023627,1.1882,1.7363
27945,10.1063/1.4983404,25602,Figure 2B,31871,Bi0.05Ge0.95Te,undefined,150,,,,0.033504,,,
27945,10.1063/1.4983404,25602,Figure 2B,31871,Bi0.05Ge0.95Te,undefined,200,,,,0.044836,,,
27945,10.1063/1.4983404,25602,Figure 2B,31871,Bi0.05Ge0.95Te,undefined,250,,,,0.056168,,,
27945,10.1063/1.4983404,25600,Figure 2A,31872,Cu0.05Ge0.95Te,undefined,350,,,,0.044662,0.000079686,5.3231,0.14949
27945,10.1063/1.4983404,25600,Figure 2A,31872,Cu0.05Ge0.95Te,undefined,400,,,,0.048174,0.00008981,4.9831,0.23786
27945,10.1063/1.4983404,25600,Figure 2A,31872,Cu0.05Ge0.95Te,undefined,450,,,,0.051686,0.000099933,4.6432,0.32623
27945,10.1063/1.4983404,25600,Figure 2A,31872,Cu0.05Ge0.95Te,undefined,500,,,,0.055198,0.00011006,4.3032,0.4146
27945,10.1063/1.4983404,25600,Figure 2A,31872,Cu0.05Ge0.95Te,undefined,550,,,,0.058709,0.00012018,3.9632,0.50297
27945,10.1063/1.4983404,25600,Figure 2A,31872,Cu0.05Ge0.95Te,undefined,600,,,,0.062221,0.0001303,3.6233,0.59134
27945,10.1063/1.4983404,25600,Figure 2A,31872,Cu0.05Ge0.95Te,undefined,650,,,,0.065733,0.00014043,3.2833,0.67971
27945,10.1063/1.4983404,25600,Figure 2A,31872,Cu0.05Ge0.95Te,undefined,700,,,,0.069245,0.00015055,2.9433,0.76808
27945,10.1063/1.4983404,25600,Figure 2A,31872,Cu0.05Ge0.95Te,undefined,750,,,,0.072757,0.00016067,2.6034,0.85644
27945,10.1063/1.4983404,25602,Figure 2B,31872,Cu0.05Ge0.95Te,undefined,150,,,,0.030615,,,
27945,10.1063/1.4983404,25602,Figure 2B,31872,Cu0.05Ge0.95Te,undefined,200,,,,0.034127,,,
27945,10.1063/1.4983404,25602,Figure 2B,31872,Cu0.05Ge0.95Te,undefined,250,,,,0.037639,,,
27945,10.1063/1.4983404,25602,Figure 2B,31872,Cu0.05Ge0.95Te,undefined,300,,,,0.04115,,5.6631,0.061125
27945,10.1063/1.4983404,25600,Figure 2A,31873,Cu0.03Bi0.05Ge0.95Te,undefined,350,,,,0.15002,0.00015355,1.7448,0.43008
27945,10.1063/1.4983404,25600,Figure 2A,31873,Cu0.03Bi0.05Ge0.95Te,undefined,400,,,,0.15693,0.00016515,1.6939,0.57926
27945,10.1063/1.4983404,25600,Figure 2A,31873,Cu0.03Bi0.05Ge0.95Te,undefined,450,,,,0.16385,0.00017675,1.643,0.72844
27945,10.1063/1.4983404,25600,Figure 2A,31873,Cu0.03Bi0.05Ge0.95Te,undefined,500,,,,0.17076,0.00018835,1.5921,0.87762
27945,10.1063/1.4983404,25600,Figure 2A,31873,Cu0.03Bi0.05Ge0.95Te,undefined,550,,,,0.17768,0.00019995,1.5411,1.0268
27945,10.1063/1.4983404,25600,Figure 2A,31873,Cu0.03Bi0.05Ge0.95Te,undefined,600,,,,0.18459,0.00021155,1.4902,1.176
27945,10.1063/1.4983404,25600,Figure 2A,31873,Cu0.03Bi0.05Ge0.95Te,undefined,650,,,,0.19151,0.00022315,1.4393,1.3252
27945,10.1063/1.4983404,25600,Figure 2A,31873,Cu0.03Bi0.05Ge0.95Te,undefined,700,,,,0.19842,0.00023475,1.3884,1.4743
27945,10.1063/1.4983404,25600,Figure 2A,31873,Cu0.03Bi0.05Ge0.95Te,undefined,750,,,,0.20534,0.00024635,1.3375,1.6235
27945,10.1063/1.4983404,25602,Figure 2B,31873,Cu0.03Bi0.05Ge0.95Te,undefined,150,,,,0.12236,,,
27945,10.1063/1.4983404,25602,Figure 2B,31873,Cu0.03Bi0.05Ge0.95Te,undefined,200,,,,0.12928,,,
27945,10.1063/1.4983404,25602,Figure 2B,31873,Cu0.03Bi0.05Ge0.95Te,undefined,250,,,,0.13619,,,
27945,10.1063/1.4983404,25602,Figure 2B,31873,Cu0.03Bi0.05Ge0.95Te,undefined,300,,,,0.14311,,1.7957,0.2809
27945,10.1063/1.4983404,25600,Figure 2A,31874,Cu0.10Bi0.05Ge0.85Te,undefined,350,,,,0.15568,0.00017675,1.4262,0.53629
27945,10.1063/1.4983404,25600,Figure 2A,31874,Cu0.10Bi0.05Ge0.85Te,undefined,400,,,,0.15521,0.00018014,1.4409,0.66061
27945,10.1063/1.4983404,25600,Figure 2A,31874,Cu0.10Bi0.05Ge0.85Te,undefined,450,,,,0.15474,0.00018353,1.4557,0.78492
27945,10.1063/1.4983404,25600,Figure 2A,31874,Cu0.10Bi0.05Ge0.85Te,undefined,500,,,,0.15427,0.00018692,1.4705,0.90923
27945,10.1063/1.4983404,25600,Figure 2A,31874,Cu0.10Bi0.05Ge0.85Te,undefined,550,,,,0.1538,0.00019031,1.4853,1.0335
27945,10.1063/1.4983404,25600,Figure 2A,31874,Cu0.10Bi0.05Ge0.85Te,undefined,600,,,,0.15333,0.00019371,1.5001,1.1579
27945,10.1063/1.4983404,25600,Figure 2A,31874,Cu0.10Bi0.05Ge0.85Te,undefined,650,,,,0.15286,0.0001971,1.5149,1.2822
27945,10.1063/1.4983404,25600,Figure 2A,31874,Cu0.10Bi0.05Ge0.85Te,undefined,700,,,,0.15239,0.00020049,1.5297,1.4065
27945,10.1063/1.4983404,25600,Figure 2A,31874,Cu0.10Bi0.05Ge0.85Te,undefined,750,,,,0.15192,0.00020388,1.5445,1.5308
27945,10.1063/1.4983404,25602,Figure 2B,31874,Cu0.10Bi0.05Ge0.85Te,undefined,150,,,,0.15756,,,
27945,10.1063/1.4983404,25602,Figure 2B,31874,Cu0.10Bi0.05Ge0.85Te,undefined,200,,,,0.15709,,,
27945,10.1063/1.4983404,25602,Figure 2B,31874,Cu0.10Bi0.05Ge0.85Te,undefined,250,,,,0.15662,,,
27945,10.1063/1.4983404,25602,Figure 2B,31874,Cu0.10Bi0.05Ge0.85Te,undefined,300,,,,0.15615,,,
27945,10.1063/1.4983404,26372,Figure 3C,33042,GeTe 303K,undefined,,1e+26,0.0068748,1.3352,,,1.9611,0.26755
27945,10.1063/1.4983404,26372,Figure 3C,33042,GeTe 303K,undefined,,1.5e+26,0.0072443,1.42,,,2.463,0.2343
27945,10.1063/1.4983404,26372,Figure 3C,33042,GeTe 303K,undefined,,2e+26,0.0076139,1.5047,,,2.965,0.20104
27945,10.1063/1.4983404,26372,Figure 3C,33042,GeTe 303K,undefined,,2.5e+26,0.0079834,1.5895,,,3.4669,0.16778
27945,10.1063/1.4983404,26372,Figure 3C,33042,GeTe 303K,undefined,,3e+26,0.0083529,1.6743,,,3.9689,0.13452
27945,10.1063/1.4983404,26372,Figure 3C,33042,GeTe 303K,undefined,,3.5e+26,0.0087224,1.7591,,,4.4708,0.10127
27945,10.1063/1.4983404,26372,Figure 3C,33042,GeTe 303K,undefined,,4e+26,0.0090919,1.8439,,,4.9728,0.06801
27945,10.1063/1.4983404,26373,Figure 3E,33043,GeTe 773K,undefined,,1e+26,,0.7457,,,1.7773,1.3144
27945,10.1063/1.4983404,26373,Figure 3E,33043,GeTe 773K,undefined,,1.5e+26,,0.71651,,,1.8634,1.3103
27945,10.1063/1.4983404,26373,Figure 3E,33043,GeTe 773K,undefined,,2e+26,,0.68732,,,1.9496,1.3062
27945,10.1063/1.4983404,26373,Figure 3E,33043,GeTe 773K,undefined,,2.5e+26,,0.65812,,,2.0357,1.302
27945,10.1063/1.4983404,26373,Figure 3E,33043,GeTe 773K,undefined,,3e+26,,0.62893,,,2.1218,1.2979
27945,10.1063/1.4983404,26373,Figure 3E,33043,GeTe 773K,undefined,,3.5e+26,,0.59974,,,2.208,1.2938
27945,10.1063/1.4983404,26373,Figure 3E,33043,GeTe 773K,undefined,,4e+26,,0.57054,,,2.2941,1.2897