sid,DOI,figureid,fignum,sampleid,samplename,composition,Temperature,Electrical resistivity,Seebeck coefficient,Thermal conductivity,ZT,hall density,Electrical conductivity,Power factor,Figure of merit Z
4739,10.1103/physrevb.80.125205,642,6(a),1147,A,Ba15.09Ga28.13Ge56.78,350,0.0000095202,,0.94915,,5.9732e+26,105039.8100880234,,
4739,10.1103/physrevb.80.125205,642,6(a),1147,A,Ba15.09Ga28.13Ge56.78,400,0.000010683,,0.90747,,6.4522e+26,93606.6647945334,,
4739,10.1103/physrevb.80.125205,642,6(a),1147,A,Ba15.09Ga28.13Ge56.78,450,0.000012035,-0.000090934,0.87713,0.3525,6.9313e+26,83090.9846281678,0.0006870787,0.000783326
4739,10.1103/physrevb.80.125205,642,6(a),1147,A,Ba15.09Ga28.13Ge56.78,500,0.000013431,-0.000097864,0.85577,0.41663,7.4103e+26,74454.6199091654,0.0007130789,0.00083326
4739,10.1103/physrevb.80.125205,642,6(a),1147,A,Ba15.09Ga28.13Ge56.78,550,0.000014785,-0.00010479,0.84045,0.27384,7.8894e+26,67636.1176868448,0.0007427084,0.0008837033
4739,10.1103/physrevb.80.125205,642,6(a),1147,A,Ba15.09Ga28.13Ge56.78,600,0.000016054,-0.00011172,0.82814,0.32248,8.3684e+26,62289.7720194344,0.000777461,0.0009388038
4739,10.1103/physrevb.80.125205,642,6(a),1147,A,Ba15.09Ga28.13Ge56.78,650,0.000017232,-0.00011865,0.81622,0.37091,8.8475e+26,58031.5691736305,0.0008169581,0.0010009043
4739,10.1103/physrevb.80.125205,642,6(a),1147,A,Ba15.09Ga28.13Ge56.78,700,0.000018333,-0.00012558,0.80295,0.42371,,54546.4462990236,0.0008602158,0.0010713193
4739,10.1103/physrevb.80.125205,642,6(a),1147,A,Ba15.09Ga28.13Ge56.78,750,0.00001938,-0.00013251,0.78795,0.48236,,51599.5872033024,0.000906032,0.0011498598
4739,10.1103/physrevb.80.125205,642,6(a),1147,A,Ba15.09Ga28.13Ge56.78,800,0.000020392,-0.00013944,0.77273,0.54561,,49038.8387602982,0.0009534873,0.0012339204
4739,10.1103/physrevb.80.125205,642,6(a),1147,A,Ba15.09Ga28.13Ge56.78,850,0.000021373,-0.00014637,0.76111,0.60999,,46788.0035558883,0.0010023945,0.0013170165
4739,10.1103/physrevb.80.125205,642,6(a),1147,A,Ba15.09Ga28.13Ge56.78,900,0.000022298,-0.0001533,0.75977,0.67024,,44847.071486232,0.0010539461,0.001387191
4739,10.1103/physrevb.80.125205,642,6(a),1147,A,Ba15.09Ga28.13Ge56.78,950,0.000023102,-0.00016023,0.7787,0.71975,,43286.2955588261,0.0011113173,0.0014271444
4739,10.1103/physrevb.80.125205,642,6(a),1148,B,Ba15.31Ga28.54Ge56.15,350,0.000011699,,0.87229,,4.731e+26,85477.3912300197,,
4739,10.1103/physrevb.80.125205,642,6(a),1148,B,Ba15.31Ga28.54Ge56.15,400,0.000013031,,0.81062,,5.1463e+26,76740.0813444862,,
4739,10.1103/physrevb.80.125205,642,6(a),1148,B,Ba15.31Ga28.54Ge56.15,450,0.000014323,-0.00010429,0.77115,0.44312,5.5615e+26,69817.7756056692,0.0007593663,0.0009847194
4739,10.1103/physrevb.80.125205,642,6(a),1148,B,Ba15.31Ga28.54Ge56.15,500,0.000015641,-0.00011206,0.75131,0.5343,5.9767e+26,63934.5310402148,0.0008028543,0.0010686059
4739,10.1103/physrevb.80.125205,642,6(a),1148,B,Ba15.31Ga28.54Ge56.15,550,0.000017022,-0.00011983,0.74553,0.40779,6.3919e+26,58747.5032311127,0.0008435688,0.0011315022
4739,10.1103/physrevb.80.125205,642,6(a),1148,B,Ba15.31Ga28.54Ge56.15,600,0.000018472,-0.0001276,0.74671,0.46011,6.8071e+26,54135.98960589,0.0008814292,0.001180417
4739,10.1103/physrevb.80.125205,642,6(a),1148,B,Ba15.31Ga28.54Ge56.15,650,0.000019975,-0.00013537,0.74764,0.50311,7.2224e+26,50062.5782227785,0.0009173986,0.0012270593
4739,10.1103/physrevb.80.125205,642,6(a),1148,B,Ba15.31Ga28.54Ge56.15,700,0.000021496,-0.00014313,0.7425,0.55493,,46520.2828433197,0.0009530237,0.0012835336
4739,10.1103/physrevb.80.125205,642,6(a),1148,B,Ba15.31Ga28.54Ge56.15,750,0.000022987,-0.0001509,0.72828,0.61978,,43502.8494366381,0.0009905951,0.0013601844
4739,10.1103/physrevb.80.125205,642,6(a),1148,B,Ba15.31Ga28.54Ge56.15,800,0.00002439,-0.00015867,0.7063,0.69216,,41000.4100041,0.0010322332,0.0014614657
4739,10.1103/physrevb.80.125205,642,6(a),1148,B,Ba15.31Ga28.54Ge56.15,850,0.000025644,-0.00016644,0.6836,0.76118,,38995.4765247231,0.0010802634,0.0015802565
4739,10.1103/physrevb.80.125205,642,6(a),1148,B,Ba15.31Ga28.54Ge56.15,900,0.000026688,-0.00017421,0.67446,0.81481,,37470.0239808153,0.0011371824,0.0016860635
4739,10.1103/physrevb.80.125205,642,6(a),1148,B,Ba15.31Ga28.54Ge56.15,950,0.000027465,-0.00018198,0.70181,0.84414,,36409.9763335154,0.001205779,0.0017180989
4739,10.1103/physrevb.80.125205,645,11(a),1148,B,Ba15.31Ga28.54Ge56.15,300,,,1.551,,,,,
4739,10.1103/physrevb.80.125205,642,6(a),1149,C,Ba15.12Ga28.66Ge56.21,350,0.000017255,,1.0984,,2.8869e+26,57954.2161692263,,
4739,10.1103/physrevb.80.125205,642,6(a),1149,C,Ba15.12Ga28.66Ge56.21,400,0.000019387,-0.00012891,1.0198,0.33621,3.0769e+26,51580.95631093,0.0008571614,0.0008405191
4739,10.1103/physrevb.80.125205,642,6(a),1149,C,Ba15.12Ga28.66Ge56.21,450,0.000021345,-0.00013684,0.95806,0.41205,3.2668e+26,46849.379245725,0.0008772633,0.0009156664
4739,10.1103/physrevb.80.125205,642,6(a),1149,C,Ba15.12Ga28.66Ge56.21,500,0.000023324,-0.00014477,0.91763,0.48962,3.4568e+26,42874.2925741725,0.0008985746,0.0009792341
4739,10.1103/physrevb.80.125205,642,6(a),1149,C,Ba15.12Ga28.66Ge56.21,550,0.000025447,-0.00015271,0.89659,0.40147,3.6467e+26,39297.3631469328,0.000916428,0.0010221261
4739,10.1103/physrevb.80.125205,642,6(a),1149,C,Ba15.12Ga28.66Ge56.21,600,0.000027762,-0.00016064,0.88893,0.42888,3.8367e+26,36020.4596210648,0.0009295155,0.0010456566
4739,10.1103/physrevb.80.125205,642,6(a),1149,C,Ba15.12Ga28.66Ge56.21,650,0.000030241,-0.00016858,0.88657,0.46204,4.0267e+26,33067.6895605304,0.0009397578,0.0010599928
4739,10.1103/physrevb.80.125205,642,6(a),1149,C,Ba15.12Ga28.66Ge56.21,700,0.000032782,-0.00017651,0.88158,0.51578,,30504.5451772314,0.0009503929,0.0010780563
4739,10.1103/physrevb.80.125205,642,6(a),1149,C,Ba15.12Ga28.66Ge56.21,750,0.000035204,-0.00018444,0.86829,0.59134,,28405.862970117,0.0009663139,0.001112893
4739,10.1103/physrevb.80.125205,642,6(a),1149,C,Ba15.12Ga28.66Ge56.21,800,0.000037247,-0.00019238,0.8454,0.6799,,26847.7998228045,0.0009936388,0.0011753475
4739,10.1103/physrevb.80.125205,642,6(a),1149,C,Ba15.12Ga28.66Ge56.21,850,0.000038573,-0.00020031,0.81816,0.76611,,25924.8697275296,0.001040212,0.0012714041
4739,10.1103/physrevb.80.125205,642,6(a),1149,C,Ba15.12Ga28.66Ge56.21,900,0.000038764,-0.00020825,0.80046,0.83166,,25797.1313589929,0.0011187716,0.0013976609
4739,10.1103/physrevb.80.125205,642,6(a),1149,C,Ba15.12Ga28.66Ge56.21,950,0.000037319,,0.81701,0.85882,,26796.0020364962,,
4739,10.1103/physrevb.80.125205,645,11(a),1149,C,Ba15.12Ga28.66Ge56.21,300,,,1.513,,2.6969e+26,,,
4739,10.1103/physrevb.80.125205,646,11(b),1149,C,Ba15.12Ga28.66Ge56.21,1000,,,0.90545,,,,,
4739,10.1103/physrevb.80.125205,643,6(b),1150,D,Ba15.44Ga29.23Ge55.33,350,0.000048668,,1.0056,,1.0329e+26,20547.3822634996,,
4739,10.1103/physrevb.80.125205,643,6(b),1150,D,Ba15.44Ga29.23Ge55.33,400,0.000051226,,0.93924,,1.0872e+26,19521.3368211455,,
4739,10.1103/physrevb.80.125205,643,6(b),1150,D,Ba15.44Ga29.23Ge55.33,450,0.000054873,-0.00021694,0.88336,0.43691,1.1415e+26,18223.8988209137,0.0008576707,0.0009709186
4739,10.1103/physrevb.80.125205,643,6(b),1150,D,Ba15.44Ga29.23Ge55.33,500,0.000059366,-0.00021817,0.8406,0.47691,1.1957e+26,16844.658558771,0.0008017746,0.0009538122
4739,10.1103/physrevb.80.125205,643,6(b),1150,D,Ba15.44Ga29.23Ge55.33,550,0.000064537,-0.00021941,0.81097,0.3548,1.25e+26,15494.9873715853,0.0007459403,0.0009198124
4739,10.1103/physrevb.80.125205,643,6(b),1150,D,Ba15.44Ga29.23Ge55.33,600,0.000070235,-0.00022064,0.79286,0.40755,1.3043e+26,14237.9155691607,0.0006931303,0.0008742153
4739,10.1103/physrevb.80.125205,643,6(b),1150,D,Ba15.44Ga29.23Ge55.33,650,0.000076245,-0.00022188,0.78405,0.44465,1.3586e+26,13115.614138632,0.0006456913,0.0008235333
4739,10.1103/physrevb.80.125205,643,6(b),1150,D,Ba15.44Ga29.23Ge55.33,700,0.000082227,-0.00022311,0.78271,0.474,,12161.4554829922,0.0006053738,0.0007734331
4739,10.1103/physrevb.80.125205,643,6(b),1150,D,Ba15.44Ga29.23Ge55.33,750,0.000087639,-0.00022435,0.78841,0.49503,,11410.4451214642,0.000574321,0.0007284548
4739,10.1103/physrevb.80.125205,643,6(b),1150,D,Ba15.44Ga29.23Ge55.33,800,0.000091671,-0.00022558,0.80315,0.50212,,10908.5752309891,0.0005550974,0.0006911504
4739,10.1103/physrevb.80.125205,643,6(b),1150,D,Ba15.44Ga29.23Ge55.33,850,0.000093174,-0.00022682,0.83236,0.48798,,10732.6078090454,0.0005521638,0.0006633714
4739,10.1103/physrevb.80.125205,643,6(b),1150,D,Ba15.44Ga29.23Ge55.33,900,0.000090591,-0.00022805,0.88589,0.44708,,11038.6241458865,0.0005740835,0.0006480303
4739,10.1103/physrevb.80.125205,643,6(b),1150,D,Ba15.44Ga29.23Ge55.33,950,0.000081883,-0.00022929,0.97906,0.379,,12212.5471709634,0.0006420613,0.0006557936
4739,10.1103/physrevb.80.125205,645,11(a),1150,D,Ba15.44Ga29.23Ge55.33,1000,,,1.1336,,,,,
4739,10.1103/physrevb.80.125205,25170,3,1150,D,Ba15.44Ga29.23Ge55.33,300,,,,,9.7858e+25,,,
4739,10.1103/physrevb.80.125205,643,6(b),1151,E,Ba15.10Ga29.87Ge55.03,450,0.00052865,-0.00025171,0.96047,0.056152,,1891.6107065166,0.0001198485,0.0001247811
4739,10.1103/physrevb.80.125205,643,6(b),1151,E,Ba15.10Ga29.87Ge55.03,500,0.00033438,-0.00025079,0.91566,0.10271,,2990.6094862133,0.0001880963,0.0002054215
4739,10.1103/physrevb.80.125205,643,6(b),1151,E,Ba15.10Ga29.87Ge55.03,550,0.00025432,-0.00024988,0.88528,0.16066,,3932.0541050645,0.0002455175,0.0002773332
4739,10.1103/physrevb.80.125205,643,6(b),1151,E,Ba15.10Ga29.87Ge55.03,600,0.00022207,-0.00024896,0.86955,0.20508,,4503.0846129599,0.0002791061,0.0003209776
4739,10.1103/physrevb.80.125205,643,6(b),1151,E,Ba15.10Ga29.87Ge55.03,650,0.00019975,-0.00024804,0.86665,0.2503,,5006.2578222778,0.0003080042,0.0003553963
4739,10.1103/physrevb.80.125205,643,6(b),1151,E,Ba15.10Ga29.87Ge55.03,700,0.00017124,-0.00024712,0.87393,0.31703,,5839.757066106,0.000356624,0.0004080693
4739,10.1103/physrevb.80.125205,643,6(b),1151,E,Ba15.10Ga29.87Ge55.03,750,0.00013556,-0.00024621,0.88919,0.40269,,7376.8073177929,0.0004471774,0.0005029042
4739,10.1103/physrevb.80.125205,643,6(b),1151,E,Ba15.10Ga29.87Ge55.03,800,0.00010013,-0.00024529,0.91187,0.48937,,9987.0168780585,0.0006008907,0.0006589653
4739,10.1103/physrevb.80.125205,643,6(b),1151,E,Ba15.10Ga29.87Ge55.03,850,0.000074134,-0.00024437,0.94432,0.5518,,13489.0873283514,0.0008055237,0.0008530199
4739,10.1103/physrevb.80.125205,643,6(b),1151,E,Ba15.10Ga29.87Ge55.03,900,0.000061784,-0.00024345,0.99306,0.5653,,16185.4201735077,0.0009592759,0.0009659798
4739,10.1103/physrevb.80.125205,643,6(b),1151,E,Ba15.10Ga29.87Ge55.03,950,0.000055674,-0.00024253,1.07,0.51374,,17961.7056435679,0.0010565219,0.0009874037
4739,10.1103/physrevb.80.125205,645,11(a),1151,E,Ba15.10Ga29.87Ge55.03,300,,,1.1167,,,,,
4739,10.1103/physrevb.80.125205,645,11(a),1151,E,Ba15.10Ga29.87Ge55.03,350,,,1.0747,,,,,
4739,10.1103/physrevb.80.125205,645,11(a),1151,E,Ba15.10Ga29.87Ge55.03,400,,,1.0162,,,,,
4739,10.1103/physrevb.80.125205,645,11(a),1151,E,Ba15.10Ga29.87Ge55.03,1000,,,1.1936,,,,,
4739,10.1103/physrevb.80.125205,647,13,1152,BDP,undefined,550,,,,0.35757,,,,
4739,10.1103/physrevb.80.125205,647,13,1152,BDP,undefined,600,,,,0.42574,,,,
4739,10.1103/physrevb.80.125205,647,13,1152,BDP,undefined,650,,,,0.50685,,,,
4739,10.1103/physrevb.80.125205,647,13,1152,BDP,undefined,700,,,,0.60019,,,,
4739,10.1103/physrevb.80.125205,647,13,1152,BDP,undefined,750,,,,0.70208,,,,
4739,10.1103/physrevb.80.125205,647,13,1152,BDP,undefined,800,,,,0.80578,,,,
4739,10.1103/physrevb.80.125205,647,13,1152,BDP,undefined,850,,,,0.90125,,,,
4739,10.1103/physrevb.80.125205,647,13,1152,BDP,undefined,900,,,,0.97497,,,,
4739,10.1103/physrevb.80.125205,647,13,1152,BDP,undefined,950,,,,1.0098,,,,