sid,DOI,figureid,fignum,sampleid,samplename,composition,Temperature,Inverse temperature,Carrier concentration,Electrical conductivity,Electrical resistivity,Power factor,Seebeck coefficient,Thermal conductivity,ZT,Figure of merit Z
27914,10.1038/nature23667,25166,3(a),31358,MNC02R,undefined,750,0.0013333,,127440,0.0000078468,0.005275,-0.00020345,2.458,1.5747,0.0021460537
27914,10.1038/nature23667,25166,3(a),31358,MNC02R,undefined,800,0.00125,,119260,0.000008385,0.0052443,-0.0002097,2.4283,1.6969,0.002159659
27914,10.1038/nature23667,25167,3(b),31358,MNC02R,undefined,300,0.0033333,,,,,-0.00014714,,,
27914,10.1038/nature23667,25167,3(b),31358,MNC02R,undefined,850,0.0011765,,,,,-0.00021596,,1.8192,
27914,10.1038/nature23667,25166,3(a),31359,MNC03R,undefined,350,0.0028571,,167020,0.0000059873,0.0036244,-0.00014731,2.8093,0.44701,0.0012901435
27914,10.1038/nature23667,25166,3(a),31359,MNC03R,undefined,400,0.0025,,160390,0.0000062348,0.0038092,-0.00015411,2.7683,0.56437,0.0013760069
27914,10.1038/nature23667,25166,3(a),31359,MNC03R,undefined,450,0.0022222,,153760,0.0000065036,0.0039817,-0.00016092,2.7274,0.68172,0.0014598885
27914,10.1038/nature23667,25166,3(a),31359,MNC03R,undefined,500,0.002,,147130,0.0000067967,0.0041388,-0.00016772,2.6864,0.79908,0.0015406492
27914,10.1038/nature23667,25166,3(a),31359,MNC03R,undefined,550,0.0018182,,140500,0.0000071174,0.0042797,-0.00017453,2.6455,0.91644,0.0016177282
27914,10.1038/nature23667,25166,3(a),31359,MNC03R,undefined,600,0.0016667,,133870,0.0000074699,0.0044017,-0.00018133,2.6045,1.0338,0.0016900365
27914,10.1038/nature23667,25166,3(a),31359,MNC03R,undefined,650,0.0015385,,127230,0.0000078598,0.0045035,-0.00018814,2.5636,1.1512,0.0017567093
27914,10.1038/nature23667,25166,3(a),31359,MNC03R,undefined,700,0.0014286,,120600,0.0000082919,0.004583,-0.00019494,2.5227,1.2685,0.0018167043
27914,10.1038/nature23667,25166,3(a),31359,MNC03R,undefined,750,0.0013333,,113970,0.0000087742,0.0046389,-0.00020175,2.4817,1.3859,0.0018692429
27914,10.1038/nature23667,25166,3(a),31359,MNC03R,undefined,800,0.00125,,107340,0.0000093162,0.0046685,-0.00020855,2.4408,1.5032,0.0019126926
27914,10.1038/nature23667,25166,3(a),31359,MNC03R,undefined,850,0.0011765,,100710,0.0000099295,0.0046709,-0.00021536,2.3998,1.6544,0.0019463705
27914,10.1038/nature23667,25167,3(b),31359,MNC03R,undefined,300,0.0033333,,,,,-0.0001405,,,