sid,DOI,figureid,fignum,sampleid,samplename,composition,Temperature,Inverse temperature,Carrier concentration,Electrical conductivity,Electrical resistivity,Power factor,Seebeck coefficient,Thermal conductivity,ZT,Figure of merit Z
286,10.1063/1.2397538,2244,2(a),3356,0.00,K0Co4Sb12,300,0.0033333,,33393,0.000029946,0.001241,0.00019543,,0.037809,
286,10.1063/1.2397538,2244,2(a),3356,0.00,K0Co4Sb12,350,0.0028571,,31241,0.000032009,0.0016713,0.00023223,8.0158,0.071204,0.0002085007
286,10.1063/1.2397538,2244,2(a),3356,0.00,K0Co4Sb12,400,0.0025,,28233,0.00003542,0.0018006,0.00025252,6.822,0.10354,0.0002639402
286,10.1063/1.2397538,2244,2(a),3356,0.00,K0Co4Sb12,450,0.0022222,,26152,0.000038238,0.001776,0.00025873,5.8623,0.13568,0.0003029528
286,10.1063/1.2397538,2244,2(a),3356,0.00,K0Co4Sb12,500,0.002,,25628,0.00003902,0.001675,0.00025317,5.1288,0.16379,0.0003265871
286,10.1063/1.2397538,2244,2(a),3356,0.00,K0Co4Sb12,550,0.0018182,,26483,0.00003776,0.0015263,0.00023803,4.6055,0.18177,0.0003314081
286,10.1063/1.2397538,2244,2(a),3356,0.00,K0Co4Sb12,600,0.0016667,,28076,0.000035618,0.0013308,0.00021544,4.2689,0.18371,0.0003117431
286,10.1063/1.2397538,2244,2(a),3356,0.00,K0Co4Sb12,650,0.0015385,,29649,0.000033728,0.0010827,0.00018746,4.0904,0.16632,0.0002646929
286,10.1063/1.2397538,2244,2(a),3356,0.00,K0Co4Sb12,700,0.0014286,,30664,0.000032612,0.00079032,0.00015615,4.0371,0.13131,0.0001957643
286,10.1063/1.2397538,2244,2(a),3356,0.00,K0Co4Sb12,750,0.0013333,,31159,0.000032093,0.00049692,0.00012355,4.0739,0.087882,0.0001219765
286,10.1063/1.2397538,2246,2(b)_right,3356,0.00,K0Co4Sb12,800,0.00125,,,,0.00030199,0.000091759,4.1644,0.055115,0.000072517
286,10.1063/1.2397538,2244,2(a),3357,0.09,K0.09Co4Sb12,300,0.0033333,,62566,0.000015983,,,,0.13956,
286,10.1063/1.2397538,2244,2(a),3357,0.09,K0.09Co4Sb12,350,0.0028571,,53958,0.000018533,0.0028882,-0.00022814,5.5956,0.17876,0.0005161556
286,10.1063/1.2397538,2244,2(a),3357,0.09,K0.09Co4Sb12,400,0.0025,,47035,0.000021261,0.0028334,-0.00024308,5.0173,0.22455,0.000564726
286,10.1063/1.2397538,2244,2(a),3357,0.09,K0.09Co4Sb12,450,0.0022222,,41719,0.00002397,0.0027311,-0.00025378,4.5449,0.27061,0.0006009153
286,10.1063/1.2397538,2244,2(a),3357,0.09,K0.09Co4Sb12,500,0.002,,37909,0.000026379,0.0026069,-0.00025982,4.1733,0.31243,0.0006246615
286,10.1063/1.2397538,2244,2(a),3357,0.09,K0.09Co4Sb12,550,0.0018182,,35478,0.000028186,0.0024729,-0.00026099,3.901,0.3467,0.0006339144
286,10.1063/1.2397538,2244,2(a),3357,0.09,K0.09Co4Sb12,600,0.0016667,,34279,0.000029172,0.0023306,-0.00025722,3.7272,0.3707,0.0006252951
286,10.1063/1.2397538,2244,2(a),3357,0.09,K0.09Co4Sb12,650,0.0015385,,34140,0.000029291,0.0021725,-0.00024851,3.6486,0.38166,0.0005954339
286,10.1063/1.2397538,2244,2(a),3357,0.09,K0.09Co4Sb12,700,0.0014286,,34871,0.000028677,0.0019845,-0.00023477,3.6561,0.37616,0.0005427915
286,10.1063/1.2397538,2244,2(a),3357,0.09,K0.09Co4Sb12,750,0.0013333,,36260,0.000027579,0.0017478,-0.00021581,3.7321,0.3495,0.0004683154
286,10.1063/1.2397538,2244,2(a),3357,0.09,K0.09Co4Sb12,800,0.00125,,38076,0.000026263,,,3.8471,,
286,10.1063/1.2397538,2244,2(a),3358,0.22,K0.22Co4Sb12,300,0.0033333,,157360,0.0000063549,0.0020913,-0.00011348,5.9065,0.10716,0.0003540676
286,10.1063/1.2397538,2244,2(a),3358,0.22,K0.22Co4Sb12,350,0.0028571,,119680,0.0000083556,0.0019969,-0.0001294,5.4248,0.1298,0.0003681057
286,10.1063/1.2397538,2244,2(a),3358,0.22,K0.22Co4Sb12,400,0.0025,,96673,0.000010344,0.0019623,-0.00014221,4.9831,0.15716,0.000393791
286,10.1063/1.2397538,2244,2(a),3358,0.22,K0.22Co4Sb12,450,0.0022222,,83516,0.000011974,0.0019796,-0.00015275,4.6001,0.19353,0.0004303385
286,10.1063/1.2397538,2244,2(a),3358,0.22,K0.22Co4Sb12,500,0.002,,76350,0.000013098,0.0020292,-0.00016146,4.2865,0.23765,0.0004733932
286,10.1063/1.2397538,2244,2(a),3358,0.22,K0.22Co4Sb12,550,0.0018182,,72265,0.000013838,0.0020861,-0.00016848,4.0462,0.28473,0.0005155702
286,10.1063/1.2397538,2244,2(a),3358,0.22,K0.22Co4Sb12,600,0.0016667,,69303,0.000014429,0.0021259,-0.00017376,3.8783,0.32859,0.0005481525
286,10.1063/1.2397538,2244,2(a),3358,0.22,K0.22Co4Sb12,650,0.0015385,,66458,0.000015047,0.002131,-0.00017713,3.7783,0.36361,0.0005640103
286,10.1063/1.2397538,2244,2(a),3358,0.22,K0.22Co4Sb12,700,0.0014286,,63673,0.000015705,0.002097,-0.00017847,3.7403,0.38687,0.0005606502
286,10.1063/1.2397538,2244,2(a),3358,0.22,K0.22Co4Sb12,750,0.0013333,,61836,0.000016172,0.0020388,-0.00017778,3.7584,0.40015,0.0005424649
286,10.1063/1.2397538,2247,2(c),3358,0.22,K0.22Co4Sb12,800,0.00125,,,,0.0019964,,,0.412,
286,10.1063/1.2397538,2244,2(a),3359,0.38,K0.38Co4Sb12,300,0.0033333,,258380,0.0000038703,0.0033042,-0.00011316,,0.18159,
286,10.1063/1.2397538,2244,2(a),3359,0.38,K0.38Co4Sb12,350,0.0028571,,230920,0.0000043305,0.0036384,-0.00012599,5.0333,0.25505,0.0007228657
286,10.1063/1.2397538,2244,2(a),3359,0.38,K0.38Co4Sb12,400,0.0025,,205490,0.0000048664,0.0038663,-0.00013765,4.6689,0.33261,0.0008280966
286,10.1063/1.2397538,2244,2(a),3359,0.38,K0.38Co4Sb12,450,0.0022222,,183120,0.0000054609,0.0040192,-0.0001481,4.3471,0.41536,0.0009245704
286,10.1063/1.2397538,2244,2(a),3359,0.38,K0.38Co4Sb12,500,0.002,,164340,0.0000060849,0.0041215,-0.00015745,4.0777,0.50263,0.0010107413
286,10.1063/1.2397538,2244,2(a),3359,0.38,K0.38Co4Sb12,550,0.0018182,,149230,0.0000067011,0.0041925,-0.00016585,3.8652,0.59252,0.0010846787
286,10.1063/1.2397538,2244,2(a),3359,0.38,K0.38Co4Sb12,600,0.0016667,,137570,0.000007269,0.0042465,-0.00017344,3.7104,0.68236,0.0011444858
286,10.1063/1.2397538,2244,2(a),3359,0.38,K0.38Co4Sb12,650,0.0015385,,128920,0.0000077567,0.0042937,-0.00018028,3.611,0.76926,0.0011890612
286,10.1063/1.2397538,2244,2(a),3359,0.38,K0.38Co4Sb12,700,0.0014286,,122700,0.00000815,0.0043413,-0.00018632,3.5625,0.85061,0.0012186105
286,10.1063/1.2397538,2244,2(a),3359,0.38,K0.38Co4Sb12,750,0.0013333,,118380,0.0000084474,0.0043937,-0.0001913,3.5593,0.92457,0.0012344281
286,10.1063/1.2397538,2245,2(b)_left,3359,0.38,K0.38Co4Sb12,800,0.00125,,,,,-0.00019467,,,
286,10.1063/1.2397538,2244,2(a),3360,0.45,K0.45Co4Sb12,300,0.0033333,,258480,0.0000038688,0.0029265,-0.00010329,,,
286,10.1063/1.2397538,2244,2(a),3360,0.45,K0.45Co4Sb12,350,0.0028571,,231340,0.0000043226,0.0032078,-0.00011586,5.0024,0.22444,0.0006412522
286,10.1063/1.2397538,2244,2(a),3360,0.45,K0.45Co4Sb12,400,0.0025,,204870,0.0000048811,0.0034032,-0.00012726,4.6179,0.29478,0.0007369584
286,10.1063/1.2397538,2244,2(a),3360,0.45,K0.45Co4Sb12,450,0.0022222,,181620,0.000005506,0.0035376,-0.0001371,4.2912,0.37097,0.0008243848
286,10.1063/1.2397538,2244,2(a),3360,0.45,K0.45Co4Sb12,500,0.002,,162670,0.0000061474,0.0036351,-0.00014543,4.0288,0.45114,0.0009022786
286,10.1063/1.2397538,2244,2(a),3360,0.45,K0.45Co4Sb12,550,0.0018182,,148040,0.0000067549,0.0037164,-0.00015255,3.831,0.53355,0.0009700861
286,10.1063/1.2397538,2244,2(a),3360,0.45,K0.45Co4Sb12,600,0.0016667,,137100,0.0000072939,0.0037967,-0.00015884,3.6936,0.61675,0.0010279131
286,10.1063/1.2397538,2244,2(a),3360,0.45,K0.45Co4Sb12,650,0.0015385,,128930,0.0000077561,0.0038826,-0.00016459,3.6103,0.69903,0.0010754231
286,10.1063/1.2397538,2244,2(a),3360,0.45,K0.45Co4Sb12,700,0.0014286,,122720,0.0000081486,0.0039703,-0.00016982,3.5742,0.77758,0.001110822
286,10.1063/1.2397538,2244,2(a),3360,0.45,K0.45Co4Sb12,750,0.0013333,,118160,0.0000084631,0.0040423,-0.00017412,3.5801,0.84683,0.0011291025
286,10.1063/1.2397538,2248,3,3360,0.45,K0.45Co4Sb12,800,0.00125,,,,,,3.6264,,
5180,10.1016/j.scriptamat.2006.12.012,3497,1(a),4763,x=0.000,Ba0.32Co4Sb12,0.0006666667,1500,,158790,0.0000062976,,,,,
5180,10.1016/j.scriptamat.2006.12.012,3497,1(a),4763,x=0.000,Ba0.32Co4Sb12,0.0005,2000,,188010,0.0000053189,,,,,
5180,10.1016/j.scriptamat.2006.12.012,3497,1(a),4763,x=0.000,Ba0.32Co4Sb12,0.0004,2500,,217230,0.0000046034,,,,,
5180,10.1016/j.scriptamat.2006.12.012,3497,1(a),4763,x=0.000,Ba0.32Co4Sb12,0.0003333333,3000,,246440,0.0000040578,,,,,
5180,10.1016/j.scriptamat.2006.12.012,3498,1(b),4763,x=0.000,Ba0.32Co4Sb12,350,0.0028571,,,,0.0026824,-0.00011342,4.3914,0.18843,0.0006108303
5180,10.1016/j.scriptamat.2006.12.012,3498,1(b),4763,x=0.000,Ba0.32Co4Sb12,400,0.0025,,,,0.0028156,-0.0001207,4.3002,0.25531,0.0006547602
5180,10.1016/j.scriptamat.2006.12.012,3498,1(b),4763,x=0.000,Ba0.32Co4Sb12,450,0.0022222,,,,0.0029487,-0.00012797,4.209,0.32219,0.0007005702
5180,10.1016/j.scriptamat.2006.12.012,3498,1(b),4763,x=0.000,Ba0.32Co4Sb12,500,0.002,,,,0.0030819,-0.00013524,4.1179,0.38907,0.0007484155
5180,10.1016/j.scriptamat.2006.12.012,3498,1(b),4763,x=0.000,Ba0.32Co4Sb12,550,0.0018182,,,,0.0032151,-0.00014251,4.0267,0.45595,0.0007984454
5180,10.1016/j.scriptamat.2006.12.012,3498,1(b),4763,x=0.000,Ba0.32Co4Sb12,600,0.0016667,,,,0.0033483,-0.00014979,3.9355,0.52283,0.0008507941
5180,10.1016/j.scriptamat.2006.12.012,3498,1(b),4763,x=0.000,Ba0.32Co4Sb12,650,0.0015385,,,,0.0034815,-0.00015706,3.8443,0.58971,0.0009056265
5180,10.1016/j.scriptamat.2006.12.012,3498,1(b),4763,x=0.000,Ba0.32Co4Sb12,700,0.0014286,,,,0.0036147,-0.00016433,3.7532,0.65659,0.0009630982
5180,10.1016/j.scriptamat.2006.12.012,3498,1(b),4763,x=0.000,Ba0.32Co4Sb12,750,0.0013333,,,,0.0037478,-0.0001716,3.662,0.72347,0.0010234298
5180,10.1016/j.scriptamat.2006.12.012,3498,1(b),4763,x=0.000,Ba0.32Co4Sb12,800,0.00125,,,,0.003881,-0.00017888,3.5708,0.79035,0.0010868713
5180,10.1016/j.scriptamat.2006.12.012,3498,1(b),4763,x=0.000,Ba0.32Co4Sb12,850,0.0011765,,,,0.0040142,-0.00018615,,0.85723,
5180,10.1016/j.scriptamat.2006.12.012,3499,2,4763,x=0.000,Ba0.32Co4Sb12,300,0.0033333,,,,0.0025492,,4.4825,0.17061,0.0005687005
5180,10.1016/j.scriptamat.2006.12.012,3497,1(a),4764,x=0.025,Ba0.32Pd0.025Co3.975Sb12,0.0006666667,1500,,176730,0.0000056583,,,,,
5180,10.1016/j.scriptamat.2006.12.012,3497,1(a),4764,x=0.025,Ba0.32Pd0.025Co3.975Sb12,0.0005,2000,,204660,0.0000048862,,,,,
5180,10.1016/j.scriptamat.2006.12.012,3497,1(a),4764,x=0.025,Ba0.32Pd0.025Co3.975Sb12,0.0004,2500,,232580,0.0000042996,,,,,
5180,10.1016/j.scriptamat.2006.12.012,3497,1(a),4764,x=0.025,Ba0.32Pd0.025Co3.975Sb12,0.0003333333,3000,,260510,0.0000038386,,,,,
5180,10.1016/j.scriptamat.2006.12.012,3498,1(b),4764,x=0.025,Ba0.32Pd0.025Co3.975Sb12,350,0.0028571,,,,0.0027373,-0.00011026,4.3258,0.17973,0.0006327847
5180,10.1016/j.scriptamat.2006.12.012,3498,1(b),4764,x=0.025,Ba0.32Pd0.025Co3.975Sb12,400,0.0025,,,,0.0029123,-0.00011785,4.2333,0.2591,0.0006879503
5180,10.1016/j.scriptamat.2006.12.012,3498,1(b),4764,x=0.025,Ba0.32Pd0.025Co3.975Sb12,450,0.0022222,,,,0.0030872,-0.00012544,4.1407,0.33848,0.0007455744
5180,10.1016/j.scriptamat.2006.12.012,3498,1(b),4764,x=0.025,Ba0.32Pd0.025Co3.975Sb12,500,0.002,,,,0.0032622,-0.00013303,4.0482,0.41785,0.0008058396
5180,10.1016/j.scriptamat.2006.12.012,3498,1(b),4764,x=0.025,Ba0.32Pd0.025Co3.975Sb12,550,0.0018182,,,,0.0034372,-0.00014063,3.9556,0.49722,0.0008689453
5180,10.1016/j.scriptamat.2006.12.012,3498,1(b),4764,x=0.025,Ba0.32Pd0.025Co3.975Sb12,600,0.0016667,,,,0.0036122,-0.00014822,3.863,0.57659,0.0009350764
5180,10.1016/j.scriptamat.2006.12.012,3498,1(b),4764,x=0.025,Ba0.32Pd0.025Co3.975Sb12,650,0.0015385,,,,0.0037872,-0.00015581,3.7705,0.65597,0.0010044291
5180,10.1016/j.scriptamat.2006.12.012,3498,1(b),4764,x=0.025,Ba0.32Pd0.025Co3.975Sb12,700,0.0014286,,,,0.0039622,-0.0001634,3.6779,0.73534,0.0010772995
5180,10.1016/j.scriptamat.2006.12.012,3498,1(b),4764,x=0.025,Ba0.32Pd0.025Co3.975Sb12,750,0.0013333,,,,0.0041372,-0.00017099,3.5854,0.81471,0.0011539019
5180,10.1016/j.scriptamat.2006.12.012,3498,1(b),4764,x=0.025,Ba0.32Pd0.025Co3.975Sb12,800,0.00125,,,,0.0043122,-0.00017859,3.4928,0.89409,0.0012345969
5180,10.1016/j.scriptamat.2006.12.012,3498,1(b),4764,x=0.025,Ba0.32Pd0.025Co3.975Sb12,850,0.0011765,,,,0.0044872,-0.00018618,,0.97346,
5180,10.1016/j.scriptamat.2006.12.012,3500,3,4764,x=0.025,Ba0.32Pd0.025Co3.975Sb12,300,0.0033333,,,,,,4.4184,,
5180,10.1016/j.scriptamat.2006.12.012,3497,1(a),4765,x=0.050,Ba0.32Pd0.05Co3.95Sb12,0.0006666667,1500,,196670,0.0000050847,,,,,
5180,10.1016/j.scriptamat.2006.12.012,3497,1(a),4765,x=0.050,Ba0.32Pd0.05Co3.95Sb12,0.0005,2000,,227930,0.0000043873,,,,,
5180,10.1016/j.scriptamat.2006.12.012,3497,1(a),4765,x=0.050,Ba0.32Pd0.05Co3.95Sb12,0.0004,2500,,259190,0.0000038582,,,,,
5180,10.1016/j.scriptamat.2006.12.012,3497,1(a),4765,x=0.050,Ba0.32Pd0.05Co3.95Sb12,0.0003333333,3000,,290450,0.0000034429,,,,,
5180,10.1016/j.scriptamat.2006.12.012,3498,1(b),4765,x=0.050,Ba0.32Pd0.05Co3.95Sb12,350,0.0028571,,,,0.0029486,-0.0001057,4.2599,0.19803,0.0006921759
5180,10.1016/j.scriptamat.2006.12.012,3498,1(b),4765,x=0.050,Ba0.32Pd0.05Co3.95Sb12,400,0.0025,,,,0.0031493,-0.00011382,4.168,0.28742,0.0007555902
5180,10.1016/j.scriptamat.2006.12.012,3498,1(b),4765,x=0.050,Ba0.32Pd0.05Co3.95Sb12,450,0.0022222,,,,0.00335,-0.00012194,4.0761,0.3768,0.000821864
5180,10.1016/j.scriptamat.2006.12.012,3498,1(b),4765,x=0.050,Ba0.32Pd0.05Co3.95Sb12,500,0.002,,,,0.0035507,-0.00013007,3.9842,0.46618,0.0008911952
5180,10.1016/j.scriptamat.2006.12.012,3498,1(b),4765,x=0.050,Ba0.32Pd0.05Co3.95Sb12,550,0.0018182,,,,0.0037514,-0.00013819,3.8923,0.55557,0.0009638003
5180,10.1016/j.scriptamat.2006.12.012,3498,1(b),4765,x=0.050,Ba0.32Pd0.05Co3.95Sb12,600,0.0016667,,,,0.0039521,-0.00014631,3.8004,0.64495,0.0010399169
5180,10.1016/j.scriptamat.2006.12.012,3498,1(b),4765,x=0.050,Ba0.32Pd0.05Co3.95Sb12,650,0.0015385,,,,0.0041528,-0.00015443,3.7086,0.73433,0.0011197757
5180,10.1016/j.scriptamat.2006.12.012,3498,1(b),4765,x=0.050,Ba0.32Pd0.05Co3.95Sb12,700,0.0014286,,,,0.0043535,-0.00016256,3.6167,0.82372,0.0012037216
5180,10.1016/j.scriptamat.2006.12.012,3498,1(b),4765,x=0.050,Ba0.32Pd0.05Co3.95Sb12,750,0.0013333,,,,0.0045542,-0.00017068,3.5248,0.9131,0.0012920449
5180,10.1016/j.scriptamat.2006.12.012,3498,1(b),4765,x=0.050,Ba0.32Pd0.05Co3.95Sb12,800,0.00125,,,,0.0047549,-0.0001788,3.4329,1.0025,0.0013850971
5180,10.1016/j.scriptamat.2006.12.012,3499,2,4765,x=0.050,Ba0.32Pd0.05Co3.95Sb12,300,0.0033333,,,,0.0027479,,4.3518,0.18943,0.0006314399
5180,10.1016/j.scriptamat.2006.12.012,3499,2,4765,x=0.050,Ba0.32Pd0.05Co3.95Sb12,850,0.0011765,,,,0.0049556,,,1.0919,
5180,10.1016/j.scriptamat.2006.12.012,3497,1(a),4766,x=0.075,Ba0.32Pd0.075Co3.925Sb12,0.0006666667,1500,,207260,0.0000048249,,,,,
5180,10.1016/j.scriptamat.2006.12.012,3497,1(a),4766,x=0.075,Ba0.32Pd0.075Co3.925Sb12,0.0005,2000,,236970,0.0000042199,,,,,
5180,10.1016/j.scriptamat.2006.12.012,3497,1(a),4766,x=0.075,Ba0.32Pd0.075Co3.925Sb12,0.0004,2500,,266670,0.00000375,,,,,
5180,10.1016/j.scriptamat.2006.12.012,3497,1(a),4766,x=0.075,Ba0.32Pd0.075Co3.925Sb12,0.0003333333,3000,,296380,0.000003374,,,,,
5180,10.1016/j.scriptamat.2006.12.012,3498,1(b),4766,x=0.075,Ba0.32Pd0.075Co3.925Sb12,350,0.0028571,,,,0.0032138,-0.00010797,4.2087,0.22355,0.0007636087
5180,10.1016/j.scriptamat.2006.12.012,3498,1(b),4766,x=0.075,Ba0.32Pd0.075Co3.925Sb12,400,0.0025,,,,0.0034268,-0.00011596,4.1141,0.32025,0.0008329404
5180,10.1016/j.scriptamat.2006.12.012,3498,1(b),4766,x=0.075,Ba0.32Pd0.075Co3.925Sb12,450,0.0022222,,,,0.0036399,-0.00012394,4.0194,0.41695,0.0009055829
5180,10.1016/j.scriptamat.2006.12.012,3498,1(b),4766,x=0.075,Ba0.32Pd0.075Co3.925Sb12,500,0.002,,,,0.0038529,-0.00013193,3.9248,0.51364,0.0009816806
5180,10.1016/j.scriptamat.2006.12.012,3498,1(b),4766,x=0.075,Ba0.32Pd0.075Co3.925Sb12,550,0.0018182,,,,0.0040659,-0.00013992,3.8301,0.61034,0.001061565
5180,10.1016/j.scriptamat.2006.12.012,3498,1(b),4766,x=0.075,Ba0.32Pd0.075Co3.925Sb12,600,0.0016667,,,,0.004279,-0.0001479,3.7355,0.70703,0.0011454959
5180,10.1016/j.scriptamat.2006.12.012,3498,1(b),4766,x=0.075,Ba0.32Pd0.075Co3.925Sb12,650,0.0015385,,,,0.004492,-0.00015589,3.6408,0.80373,0.0012337948
5180,10.1016/j.scriptamat.2006.12.012,3498,1(b),4766,x=0.075,Ba0.32Pd0.075Co3.925Sb12,700,0.0014286,,,,0.0047051,-0.00016388,3.5462,0.90043,0.0013268005
5180,10.1016/j.scriptamat.2006.12.012,3498,1(b),4766,x=0.075,Ba0.32Pd0.075Co3.925Sb12,750,0.0013333,,,,0.0049181,-0.00017187,3.4516,0.99712,0.0014248754
5180,10.1016/j.scriptamat.2006.12.012,3498,1(b),4766,x=0.075,Ba0.32Pd0.075Co3.925Sb12,800,0.00125,,,,0.0051312,-0.00017985,3.3569,1.0938,0.0015285531
5180,10.1016/j.scriptamat.2006.12.012,3499,2,4766,x=0.075,Ba0.32Pd0.075Co3.925Sb12,300,0.0033333,,,,0.0030007,,4.3033,0.20919,0.0006973021
5180,10.1016/j.scriptamat.2006.12.012,3499,2,4766,x=0.075,Ba0.32Pd0.075Co3.925Sb12,850,0.0011765,,,,0.0053442,,,1.1905,
5180,10.1016/j.scriptamat.2006.12.012,3497,1(a),4767,x=0.100,Ba0.32Pd0.1Co3.9Sb12,0.0006666667,1500,,214930,0.0000046527,,,,,
5180,10.1016/j.scriptamat.2006.12.012,3497,1(a),4767,x=0.100,Ba0.32Pd0.1Co3.9Sb12,0.0005,2000,,243680,0.0000041037,,,,,
5180,10.1016/j.scriptamat.2006.12.012,3497,1(a),4767,x=0.100,Ba0.32Pd0.1Co3.9Sb12,0.0004,2500,,272440,0.0000036705,,,,,
5180,10.1016/j.scriptamat.2006.12.012,3497,1(a),4767,x=0.100,Ba0.32Pd0.1Co3.9Sb12,0.0003333333,3000,,301190,0.0000033202,,,,,
5180,10.1016/j.scriptamat.2006.12.012,3498,1(b),4767,x=0.100,Ba0.32Pd0.1Co3.9Sb12,350,0.0028571,,,,0.0025884,-0.000095361,4.5854,0.16525,0.0005644873
5180,10.1016/j.scriptamat.2006.12.012,3498,1(b),4767,x=0.100,Ba0.32Pd0.1Co3.9Sb12,400,0.0025,,,,0.0027676,-0.00010247,4.4828,0.23911,0.000617382
5180,10.1016/j.scriptamat.2006.12.012,3498,1(b),4767,x=0.100,Ba0.32Pd0.1Co3.9Sb12,450,0.0022222,,,,0.0029468,-0.00010957,4.3802,0.31297,0.0006727547
5180,10.1016/j.scriptamat.2006.12.012,3498,1(b),4767,x=0.100,Ba0.32Pd0.1Co3.9Sb12,500,0.002,,,,0.003126,-0.00011668,4.2776,0.38683,0.0007307836
5180,10.1016/j.scriptamat.2006.12.012,3498,1(b),4767,x=0.100,Ba0.32Pd0.1Co3.9Sb12,550,0.0018182,,,,0.0033052,-0.00012379,4.175,0.46069,0.0007916647
5180,10.1016/j.scriptamat.2006.12.012,3498,1(b),4767,x=0.100,Ba0.32Pd0.1Co3.9Sb12,600,0.0016667,,,,0.0034844,-0.00013089,4.0724,0.53455,0.0008556134
5180,10.1016/j.scriptamat.2006.12.012,3498,1(b),4767,x=0.100,Ba0.32Pd0.1Co3.9Sb12,650,0.0015385,,,,0.0036636,-0.000138,3.9697,0.60841,0.0009228909
5180,10.1016/j.scriptamat.2006.12.012,3498,1(b),4767,x=0.100,Ba0.32Pd0.1Co3.9Sb12,700,0.0014286,,,,0.0038429,-0.0001451,3.8671,0.68227,0.0009937421
5180,10.1016/j.scriptamat.2006.12.012,3498,1(b),4767,x=0.100,Ba0.32Pd0.1Co3.9Sb12,750,0.0013333,,,,0.0040221,-0.00015221,3.7645,0.75612,0.0010684287
5180,10.1016/j.scriptamat.2006.12.012,3498,1(b),4767,x=0.100,Ba0.32Pd0.1Co3.9Sb12,800,0.00125,,,,0.0042013,-0.00015932,3.6619,0.82998,0.0011473006
5180,10.1016/j.scriptamat.2006.12.012,3499,2,4767,x=0.100,Ba0.32Pd0.1Co3.9Sb12,300,0.0033333,,,,0.0024091,,4.6881,0.15416,0.0005138756
5180,10.1016/j.scriptamat.2006.12.012,3499,2,4767,x=0.100,Ba0.32Pd0.1Co3.9Sb12,850,0.0011765,,,,0.0043805,,,0.90384,
5180,10.1016/j.scriptamat.2006.12.012,26169,1(c),32822,BayCo4Sb12,undefined,0,0,6.5e+26,,,,-0.0001188,,,
5180,10.1016/j.scriptamat.2006.12.012,26169,1(c),32822,BayCo4Sb12,undefined,0,0,7e+26,,,,-0.00011628,,,
5180,10.1016/j.scriptamat.2006.12.012,26169,1(c),32822,BayCo4Sb12,undefined,0,0,7.5e+26,,,,-0.00011375,,,
5180,10.1016/j.scriptamat.2006.12.012,26169,1(c),32822,BayCo4Sb12,undefined,0,0,8e+26,,,,-0.00011123,,,
5180,10.1016/j.scriptamat.2006.12.012,26169,1(c),32822,BayCo4Sb12,undefined,0,0,8.5e+26,,,,-0.00010871,,,
5180,10.1016/j.scriptamat.2006.12.012,26169,1(c),32822,BayCo4Sb12,undefined,0,0,9e+26,,,,-0.00010618,,,
5180,10.1016/j.scriptamat.2006.12.012,26169,1(c),32822,BayCo4Sb12,undefined,0,0,9.5e+26,,,,-0.00010366,,,
5180,10.1016/j.scriptamat.2006.12.012,26169,1(c),32822,BayCo4Sb12,undefined,0,0,1e+27,,,,-0.00010114,,,
5180,10.1016/j.scriptamat.2006.12.012,26169,1(c),32822,BayCo4Sb12,undefined,0,0,1.05e+27,,,,-0.000098613,,,
5180,10.1016/j.scriptamat.2006.12.012,26169,1(c),32822,BayCo4Sb12,undefined,0,0,1.1e+27,,,,-0.000096089,,,
5180,10.1016/j.scriptamat.2006.12.012,26169,1(c),32822,BayCo4Sb12,undefined,0,0,1.15e+27,,,,-0.000093565,,,
5180,10.1016/j.scriptamat.2006.12.012,26169,1(c),32822,BayCo4Sb12,undefined,0,0,1.2e+27,,,,-0.000091042,,,
5180,10.1016/j.scriptamat.2006.12.012,26169,1(c),32822,BayCo4Sb12,undefined,0,0,1.25e+27,,,,-0.000088518,,,