sid,DOI,figureid,fignum,sampleid,samplename,composition,Temperature,Carrier concentration,Hall movility,Seebeck coefficient,ZT
27940,10.1016/j.mtphys.2019.100096,25720,4(a),32044,GeTe-xCu2Te-yBiTe-zPbTe_ x=0.015_ y=0_ z=0,undefined,300,,,,-0.06338
27940,10.1016/j.mtphys.2019.100096,25720,4(a),32044,GeTe-xCu2Te-yBiTe-zPbTe_ x=0.015_ y=0_ z=0,undefined,350,,,,0.12251
27940,10.1016/j.mtphys.2019.100096,25720,4(a),32044,GeTe-xCu2Te-yBiTe-zPbTe_ x=0.015_ y=0_ z=0,undefined,400,,,,0.3084
27940,10.1016/j.mtphys.2019.100096,25720,4(a),32044,GeTe-xCu2Te-yBiTe-zPbTe_ x=0.015_ y=0_ z=0,undefined,450,,,,0.49429
27940,10.1016/j.mtphys.2019.100096,25720,4(a),32044,GeTe-xCu2Te-yBiTe-zPbTe_ x=0.015_ y=0_ z=0,undefined,500,,,,0.68018
27940,10.1016/j.mtphys.2019.100096,25720,4(a),32044,GeTe-xCu2Te-yBiTe-zPbTe_ x=0.015_ y=0_ z=0,undefined,550,,,,0.86608
27940,10.1016/j.mtphys.2019.100096,25720,4(a),32044,GeTe-xCu2Te-yBiTe-zPbTe_ x=0.015_ y=0_ z=0,undefined,600,,,,1.052
27940,10.1016/j.mtphys.2019.100096,25720,4(a),32044,GeTe-xCu2Te-yBiTe-zPbTe_ x=0.015_ y=0_ z=0,undefined,650,,,,1.2379
27940,10.1016/j.mtphys.2019.100096,26308,3(b),32044,GeTe-xCu2Te-yBiTe-zPbTe_ x=0.015_ y=0_ z=0,undefined,,2.2e+26,0.0132,0.000049685,
27940,10.1016/j.mtphys.2019.100096,26308,3(b),32044,GeTe-xCu2Te-yBiTe-zPbTe_ x=0.015_ y=0_ z=0,undefined,,2.25e+26,0.013117,0.000049422,
27940,10.1016/j.mtphys.2019.100096,26308,3(b),32044,GeTe-xCu2Te-yBiTe-zPbTe_ x=0.015_ y=0_ z=0,undefined,,2.3e+26,0.013034,0.000049159,
27940,10.1016/j.mtphys.2019.100096,26308,3(b),32044,GeTe-xCu2Te-yBiTe-zPbTe_ x=0.015_ y=0_ z=0,undefined,,2.35e+26,0.012951,0.000048895,
27940,10.1016/j.mtphys.2019.100096,26308,3(b),32044,GeTe-xCu2Te-yBiTe-zPbTe_ x=0.015_ y=0_ z=0,undefined,,2.4e+26,0.012867,0.000048632,
27940,10.1016/j.mtphys.2019.100096,26308,3(b),32044,GeTe-xCu2Te-yBiTe-zPbTe_ x=0.015_ y=0_ z=0,undefined,,2.45e+26,0.012784,0.000048369,
27940,10.1016/j.mtphys.2019.100096,26308,3(b),32044,GeTe-xCu2Te-yBiTe-zPbTe_ x=0.015_ y=0_ z=0,undefined,,2.5e+26,0.012701,0.000048105,
27940,10.1016/j.mtphys.2019.100096,26308,3(b),32044,GeTe-xCu2Te-yBiTe-zPbTe_ x=0.015_ y=0_ z=0,undefined,,2.55e+26,0.012618,0.000047842,
27940,10.1016/j.mtphys.2019.100096,26308,3(b),32044,GeTe-xCu2Te-yBiTe-zPbTe_ x=0.015_ y=0_ z=0,undefined,,2.6e+26,0.012535,0.000047579,
27940,10.1016/j.mtphys.2019.100096,26308,3(b),32044,GeTe-xCu2Te-yBiTe-zPbTe_ x=0.015_ y=0_ z=0,undefined,,2.65e+26,0.012452,0.000047315,
27940,10.1016/j.mtphys.2019.100096,26308,3(b),32044,GeTe-xCu2Te-yBiTe-zPbTe_ x=0.015_ y=0_ z=0,undefined,,2.7e+26,0.012369,0.000047052,
27940,10.1016/j.mtphys.2019.100096,26308,3(b),32044,GeTe-xCu2Te-yBiTe-zPbTe_ x=0.015_ y=0_ z=0,undefined,,2.75e+26,0.012286,0.000046789,
27940,10.1016/j.mtphys.2019.100096,26308,3(b),32044,GeTe-xCu2Te-yBiTe-zPbTe_ x=0.015_ y=0_ z=0,undefined,,2.8e+26,0.012203,0.000046526,
27940,10.1016/j.mtphys.2019.100096,26308,3(b),32044,GeTe-xCu2Te-yBiTe-zPbTe_ x=0.015_ y=0_ z=0,undefined,,2.85e+26,0.01212,0.000046262,
27940,10.1016/j.mtphys.2019.100096,26308,3(b),32044,GeTe-xCu2Te-yBiTe-zPbTe_ x=0.015_ y=0_ z=0,undefined,,2.9e+26,0.012037,0.000045999,
27940,10.1016/j.mtphys.2019.100096,26308,3(b),32044,GeTe-xCu2Te-yBiTe-zPbTe_ x=0.015_ y=0_ z=0,undefined,,2.95e+26,0.011954,0.000045736,
27940,10.1016/j.mtphys.2019.100096,26308,3(b),32044,GeTe-xCu2Te-yBiTe-zPbTe_ x=0.015_ y=0_ z=0,undefined,,3e+26,0.011871,0.000045472,
27940,10.1016/j.mtphys.2019.100096,26308,3(b),32044,GeTe-xCu2Te-yBiTe-zPbTe_ x=0.015_ y=0_ z=0,undefined,,3.05e+26,0.011788,0.000045209,
27940,10.1016/j.mtphys.2019.100096,26308,3(b),32044,GeTe-xCu2Te-yBiTe-zPbTe_ x=0.015_ y=0_ z=0,undefined,,3.1e+26,0.011705,0.000044946,
27940,10.1016/j.mtphys.2019.100096,26308,3(b),32044,GeTe-xCu2Te-yBiTe-zPbTe_ x=0.015_ y=0_ z=0,undefined,,3.15e+26,0.011622,0.000044682,
27940,10.1016/j.mtphys.2019.100096,26308,3(b),32044,GeTe-xCu2Te-yBiTe-zPbTe_ x=0.015_ y=0_ z=0,undefined,,3.2e+26,0.011539,0.000044419,
27940,10.1016/j.mtphys.2019.100096,26308,3(b),32044,GeTe-xCu2Te-yBiTe-zPbTe_ x=0.015_ y=0_ z=0,undefined,,3.25e+26,0.011456,0.000044156,
27940,10.1016/j.mtphys.2019.100096,26308,3(b),32044,GeTe-xCu2Te-yBiTe-zPbTe_ x=0.015_ y=0_ z=0,undefined,,3.3e+26,0.011373,0.000043892,
27940,10.1016/j.mtphys.2019.100096,26308,3(b),32044,GeTe-xCu2Te-yBiTe-zPbTe_ x=0.015_ y=0_ z=0,undefined,,3.35e+26,0.01129,0.000043629,
27940,10.1016/j.mtphys.2019.100096,26308,3(b),32044,GeTe-xCu2Te-yBiTe-zPbTe_ x=0.015_ y=0_ z=0,undefined,,3.4e+26,0.011207,0.000043366,
27940,10.1016/j.mtphys.2019.100096,26308,3(b),32044,GeTe-xCu2Te-yBiTe-zPbTe_ x=0.015_ y=0_ z=0,undefined,,3.45e+26,0.011123,0.000043102,
27940,10.1016/j.mtphys.2019.100096,26308,3(b),32044,GeTe-xCu2Te-yBiTe-zPbTe_ x=0.015_ y=0_ z=0,undefined,,3.5e+26,0.01104,0.000042839,
27940,10.1016/j.mtphys.2019.100096,26308,3(b),32044,GeTe-xCu2Te-yBiTe-zPbTe_ x=0.015_ y=0_ z=0,undefined,,3.55e+26,0.010957,0.000042576,
27940,10.1016/j.mtphys.2019.100096,26308,3(b),32044,GeTe-xCu2Te-yBiTe-zPbTe_ x=0.015_ y=0_ z=0,undefined,,3.6e+26,0.010874,0.000042312,
27940,10.1016/j.mtphys.2019.100096,26308,3(b),32044,GeTe-xCu2Te-yBiTe-zPbTe_ x=0.015_ y=0_ z=0,undefined,,3.65e+26,0.010791,0.000042049,
27940,10.1016/j.mtphys.2019.100096,26308,3(b),32044,GeTe-xCu2Te-yBiTe-zPbTe_ x=0.015_ y=0_ z=0,undefined,,3.7e+26,0.010708,0.000041786,
27940,10.1016/j.mtphys.2019.100096,26308,3(b),32044,GeTe-xCu2Te-yBiTe-zPbTe_ x=0.015_ y=0_ z=0,undefined,,3.75e+26,0.010625,0.000041522,
27940,10.1016/j.mtphys.2019.100096,26308,3(b),32044,GeTe-xCu2Te-yBiTe-zPbTe_ x=0.015_ y=0_ z=0,undefined,,3.8e+26,0.010542,0.000041259,
27940,10.1016/j.mtphys.2019.100096,26308,3(b),32044,GeTe-xCu2Te-yBiTe-zPbTe_ x=0.015_ y=0_ z=0,undefined,,3.85e+26,0.010459,0.000040996,
27940,10.1016/j.mtphys.2019.100096,26308,3(b),32044,GeTe-xCu2Te-yBiTe-zPbTe_ x=0.015_ y=0_ z=0,undefined,,3.9e+26,0.010376,0.000040732,
27940,10.1016/j.mtphys.2019.100096,26308,3(b),32044,GeTe-xCu2Te-yBiTe-zPbTe_ x=0.015_ y=0_ z=0,undefined,,3.95e+26,0.010293,0.000040469,
27940,10.1016/j.mtphys.2019.100096,26308,3(b),32044,GeTe-xCu2Te-yBiTe-zPbTe_ x=0.015_ y=0_ z=0,undefined,,4e+26,0.01021,0.000040206,
27940,10.1016/j.mtphys.2019.100096,26308,3(b),32044,GeTe-xCu2Te-yBiTe-zPbTe_ x=0.015_ y=0_ z=0,undefined,,4.05e+26,0.010127,0.000039942,
27940,10.1016/j.mtphys.2019.100096,26308,3(b),32044,GeTe-xCu2Te-yBiTe-zPbTe_ x=0.015_ y=0_ z=0,undefined,,4.1e+26,0.010044,0.000039679,
27940,10.1016/j.mtphys.2019.100096,26308,3(b),32044,GeTe-xCu2Te-yBiTe-zPbTe_ x=0.015_ y=0_ z=0,undefined,,4.15e+26,0.0099608,0.000039416,
27940,10.1016/j.mtphys.2019.100096,26308,3(b),32044,GeTe-xCu2Te-yBiTe-zPbTe_ x=0.015_ y=0_ z=0,undefined,,4.2e+26,0.0098777,0.000039152,
27940,10.1016/j.mtphys.2019.100096,26308,3(b),32044,GeTe-xCu2Te-yBiTe-zPbTe_ x=0.015_ y=0_ z=0,undefined,,4.25e+26,0.0097947,0.000038889,
27940,10.1016/j.mtphys.2019.100096,26308,3(b),32044,GeTe-xCu2Te-yBiTe-zPbTe_ x=0.015_ y=0_ z=0,undefined,,4.3e+26,0.0097116,0.000038626,
27940,10.1016/j.mtphys.2019.100096,26308,3(b),32044,GeTe-xCu2Te-yBiTe-zPbTe_ x=0.015_ y=0_ z=0,undefined,,4.35e+26,0.0096286,0.000038362,
27940,10.1016/j.mtphys.2019.100096,26308,3(b),32044,GeTe-xCu2Te-yBiTe-zPbTe_ x=0.015_ y=0_ z=0,undefined,,4.4e+26,0.0095455,0.000038099,
27940,10.1016/j.mtphys.2019.100096,26308,3(b),32044,GeTe-xCu2Te-yBiTe-zPbTe_ x=0.015_ y=0_ z=0,undefined,,4.45e+26,0.0094625,0.000037836,
27940,10.1016/j.mtphys.2019.100096,26308,3(b),32044,GeTe-xCu2Te-yBiTe-zPbTe_ x=0.015_ y=0_ z=0,undefined,,4.5e+26,0.0093794,0.000037573,
27940,10.1016/j.mtphys.2019.100096,26308,3(b),32044,GeTe-xCu2Te-yBiTe-zPbTe_ x=0.015_ y=0_ z=0,undefined,,4.55e+26,0.0092964,0.000037309,
27940,10.1016/j.mtphys.2019.100096,26308,3(b),32044,GeTe-xCu2Te-yBiTe-zPbTe_ x=0.015_ y=0_ z=0,undefined,,4.6e+26,0.0092133,0.000037046,
27940,10.1016/j.mtphys.2019.100096,26308,3(b),32044,GeTe-xCu2Te-yBiTe-zPbTe_ x=0.015_ y=0_ z=0,undefined,,4.65e+26,0.0091303,0.000036783,
27940,10.1016/j.mtphys.2019.100096,26308,3(b),32044,GeTe-xCu2Te-yBiTe-zPbTe_ x=0.015_ y=0_ z=0,undefined,,4.7e+26,0.0090472,0.000036519,
27940,10.1016/j.mtphys.2019.100096,26308,3(b),32044,GeTe-xCu2Te-yBiTe-zPbTe_ x=0.015_ y=0_ z=0,undefined,,4.75e+26,0.0089642,0.000036256,
27940,10.1016/j.mtphys.2019.100096,26308,3(b),32044,GeTe-xCu2Te-yBiTe-zPbTe_ x=0.015_ y=0_ z=0,undefined,,4.8e+26,0.0088811,0.000035993,
27940,10.1016/j.mtphys.2019.100096,26308,3(b),32044,GeTe-xCu2Te-yBiTe-zPbTe_ x=0.015_ y=0_ z=0,undefined,,4.85e+26,0.0087981,0.000035729,
27940,10.1016/j.mtphys.2019.100096,26308,3(b),32044,GeTe-xCu2Te-yBiTe-zPbTe_ x=0.015_ y=0_ z=0,undefined,,4.9e+26,0.008715,0.000035466,
27940,10.1016/j.mtphys.2019.100096,26308,3(b),32044,GeTe-xCu2Te-yBiTe-zPbTe_ x=0.015_ y=0_ z=0,undefined,,4.95e+26,0.008632,0.000035203,
27940,10.1016/j.mtphys.2019.100096,26308,3(b),32044,GeTe-xCu2Te-yBiTe-zPbTe_ x=0.015_ y=0_ z=0,undefined,,5e+26,0.0085489,0.000034939,
27940,10.1016/j.mtphys.2019.100096,26308,3(b),32044,GeTe-xCu2Te-yBiTe-zPbTe_ x=0.015_ y=0_ z=0,undefined,,5.05e+26,0.0084659,0.000034676,
27940,10.1016/j.mtphys.2019.100096,26308,3(b),32044,GeTe-xCu2Te-yBiTe-zPbTe_ x=0.015_ y=0_ z=0,undefined,,5.1e+26,0.0083828,0.000034413,
27940,10.1016/j.mtphys.2019.100096,26308,3(b),32044,GeTe-xCu2Te-yBiTe-zPbTe_ x=0.015_ y=0_ z=0,undefined,,5.15e+26,0.0082998,0.000034149,
27940,10.1016/j.mtphys.2019.100096,26308,3(b),32044,GeTe-xCu2Te-yBiTe-zPbTe_ x=0.015_ y=0_ z=0,undefined,,5.2e+26,0.0082167,0.000033886,
27940,10.1016/j.mtphys.2019.100096,26308,3(b),32044,GeTe-xCu2Te-yBiTe-zPbTe_ x=0.015_ y=0_ z=0,undefined,,5.25e+26,0.0081337,0.000033623,
27940,10.1016/j.mtphys.2019.100096,26308,3(b),32044,GeTe-xCu2Te-yBiTe-zPbTe_ x=0.015_ y=0_ z=0,undefined,,5.3e+26,0.0080506,0.000033359,
27940,10.1016/j.mtphys.2019.100096,26308,3(b),32044,GeTe-xCu2Te-yBiTe-zPbTe_ x=0.015_ y=0_ z=0,undefined,,5.35e+26,0.0079676,0.000033096,
27940,10.1016/j.mtphys.2019.100096,26308,3(b),32044,GeTe-xCu2Te-yBiTe-zPbTe_ x=0.015_ y=0_ z=0,undefined,,5.4e+26,0.0078846,0.000032833,
27940,10.1016/j.mtphys.2019.100096,26308,3(b),32044,GeTe-xCu2Te-yBiTe-zPbTe_ x=0.015_ y=0_ z=0,undefined,,5.45e+26,0.0078015,0.000032569,
27940,10.1016/j.mtphys.2019.100096,26308,3(b),32044,GeTe-xCu2Te-yBiTe-zPbTe_ x=0.015_ y=0_ z=0,undefined,,5.5e+26,0.0077185,0.000032306,
27940,10.1016/j.mtphys.2019.100096,26308,3(b),32044,GeTe-xCu2Te-yBiTe-zPbTe_ x=0.015_ y=0_ z=0,undefined,,5.55e+26,0.0076354,0.000032043,
27940,10.1016/j.mtphys.2019.100096,26308,3(b),32044,GeTe-xCu2Te-yBiTe-zPbTe_ x=0.015_ y=0_ z=0,undefined,,5.6e+26,0.0075524,0.000031779,
27940,10.1016/j.mtphys.2019.100096,26308,3(b),32044,GeTe-xCu2Te-yBiTe-zPbTe_ x=0.015_ y=0_ z=0,undefined,,5.65e+26,0.0074693,0.000031516,
27940,10.1016/j.mtphys.2019.100096,26308,3(b),32044,GeTe-xCu2Te-yBiTe-zPbTe_ x=0.015_ y=0_ z=0,undefined,,5.7e+26,0.0073863,0.000031253,
27940,10.1016/j.mtphys.2019.100096,26308,3(b),32044,GeTe-xCu2Te-yBiTe-zPbTe_ x=0.015_ y=0_ z=0,undefined,,5.75e+26,0.0073032,0.000030989,
27940,10.1016/j.mtphys.2019.100096,26308,3(b),32044,GeTe-xCu2Te-yBiTe-zPbTe_ x=0.015_ y=0_ z=0,undefined,,5.8e+26,0.0072202,0.000030726,
27940,10.1016/j.mtphys.2019.100096,26308,3(b),32044,GeTe-xCu2Te-yBiTe-zPbTe_ x=0.015_ y=0_ z=0,undefined,,5.85e+26,0.0071371,0.000030463,
27940,10.1016/j.mtphys.2019.100096,26308,3(b),32044,GeTe-xCu2Te-yBiTe-zPbTe_ x=0.015_ y=0_ z=0,undefined,,5.9e+26,0.0070541,0.000030199,
27940,10.1016/j.mtphys.2019.100096,26308,3(b),32044,GeTe-xCu2Te-yBiTe-zPbTe_ x=0.015_ y=0_ z=0,undefined,,5.95e+26,0.006971,0.000029936,
27940,10.1016/j.mtphys.2019.100096,26308,3(b),32044,GeTe-xCu2Te-yBiTe-zPbTe_ x=0.015_ y=0_ z=0,undefined,,6e+26,0.006888,0.000029673,
27940,10.1016/j.mtphys.2019.100096,26308,3(b),32044,GeTe-xCu2Te-yBiTe-zPbTe_ x=0.015_ y=0_ z=0,undefined,,6.05e+26,0.0068049,0.000029409,
27940,10.1016/j.mtphys.2019.100096,26308,3(b),32044,GeTe-xCu2Te-yBiTe-zPbTe_ x=0.015_ y=0_ z=0,undefined,,6.1e+26,0.0067219,0.000029146,
27940,10.1016/j.mtphys.2019.100096,26308,3(b),32044,GeTe-xCu2Te-yBiTe-zPbTe_ x=0.015_ y=0_ z=0,undefined,,6.15e+26,0.0066388,0.000028883,
27940,10.1016/j.mtphys.2019.100096,26308,3(b),32044,GeTe-xCu2Te-yBiTe-zPbTe_ x=0.015_ y=0_ z=0,undefined,,6.2e+26,0.0065558,0.00002862,
27940,10.1016/j.mtphys.2019.100096,26308,3(b),32044,GeTe-xCu2Te-yBiTe-zPbTe_ x=0.015_ y=0_ z=0,undefined,,6.25e+26,0.0064727,0.000028356,
27940,10.1016/j.mtphys.2019.100096,26308,3(b),32044,GeTe-xCu2Te-yBiTe-zPbTe_ x=0.015_ y=0_ z=0,undefined,,6.3e+26,0.0063897,0.000028093,
27940,10.1016/j.mtphys.2019.100096,26308,3(b),32044,GeTe-xCu2Te-yBiTe-zPbTe_ x=0.015_ y=0_ z=0,undefined,,6.35e+26,0.0063066,0.00002783,
27940,10.1016/j.mtphys.2019.100096,26308,3(b),32044,GeTe-xCu2Te-yBiTe-zPbTe_ x=0.015_ y=0_ z=0,undefined,,6.4e+26,0.0062236,0.000027566,
27940,10.1016/j.mtphys.2019.100096,26308,3(b),32044,GeTe-xCu2Te-yBiTe-zPbTe_ x=0.015_ y=0_ z=0,undefined,,6.45e+26,0.0061405,0.000027303,
27940,10.1016/j.mtphys.2019.100096,26308,3(b),32044,GeTe-xCu2Te-yBiTe-zPbTe_ x=0.015_ y=0_ z=0,undefined,,6.5e+26,0.0060575,0.00002704,
27940,10.1016/j.mtphys.2019.100096,26308,3(b),32044,GeTe-xCu2Te-yBiTe-zPbTe_ x=0.015_ y=0_ z=0,undefined,,6.55e+26,0.0059744,0.000026776,
27940,10.1016/j.mtphys.2019.100096,26308,3(b),32044,GeTe-xCu2Te-yBiTe-zPbTe_ x=0.015_ y=0_ z=0,undefined,,6.6e+26,0.0058914,0.000026513,
27940,10.1016/j.mtphys.2019.100096,26308,3(b),32044,GeTe-xCu2Te-yBiTe-zPbTe_ x=0.015_ y=0_ z=0,undefined,,6.65e+26,0.0058083,0.00002625,
27940,10.1016/j.mtphys.2019.100096,26308,3(b),32044,GeTe-xCu2Te-yBiTe-zPbTe_ x=0.015_ y=0_ z=0,undefined,,6.7e+26,,0.000025986,
27940,10.1016/j.mtphys.2019.100096,26308,3(b),32044,GeTe-xCu2Te-yBiTe-zPbTe_ x=0.015_ y=0_ z=0,undefined,,6.75e+26,,0.000025723,
27940,10.1016/j.mtphys.2019.100096,26308,3(b),32044,GeTe-xCu2Te-yBiTe-zPbTe_ x=0.015_ y=0_ z=0,undefined,,6.8e+26,,0.00002546,
27940,10.1016/j.mtphys.2019.100096,26308,3(b),32044,GeTe-xCu2Te-yBiTe-zPbTe_ x=0.015_ y=0_ z=0,undefined,,6.85e+26,,0.000025196,
27940,10.1016/j.mtphys.2019.100096,26308,3(b),32044,GeTe-xCu2Te-yBiTe-zPbTe_ x=0.015_ y=0_ z=0,undefined,,6.9e+26,,0.000024933,
27940,10.1016/j.mtphys.2019.100096,26308,3(b),32044,GeTe-xCu2Te-yBiTe-zPbTe_ x=0.015_ y=0_ z=0,undefined,,6.95e+26,,0.00002467,
27940,10.1016/j.mtphys.2019.100096,26308,3(b),32044,GeTe-xCu2Te-yBiTe-zPbTe_ x=0.015_ y=0_ z=0,undefined,,7e+26,,0.000024406,
27940,10.1016/j.mtphys.2019.100096,25720,4(a),32045,GeTe-xCu2Te-yBiTe-zPbTe_ x=0.015_ y=0.02_ z=0,undefined,350,,,,0.29307
27940,10.1016/j.mtphys.2019.100096,25720,4(a),32045,GeTe-xCu2Te-yBiTe-zPbTe_ x=0.015_ y=0.02_ z=0,undefined,400,,,,0.53726
27940,10.1016/j.mtphys.2019.100096,25720,4(a),32045,GeTe-xCu2Te-yBiTe-zPbTe_ x=0.015_ y=0.02_ z=0,undefined,450,,,,0.78144
27940,10.1016/j.mtphys.2019.100096,25720,4(a),32045,GeTe-xCu2Te-yBiTe-zPbTe_ x=0.015_ y=0.02_ z=0,undefined,500,,,,1.0256
27940,10.1016/j.mtphys.2019.100096,25720,4(a),32045,GeTe-xCu2Te-yBiTe-zPbTe_ x=0.015_ y=0.02_ z=0,undefined,550,,,,1.2698
27940,10.1016/j.mtphys.2019.100096,25720,4(a),32045,GeTe-xCu2Te-yBiTe-zPbTe_ x=0.015_ y=0.02_ z=0,undefined,600,,,,1.514
27940,10.1016/j.mtphys.2019.100096,25720,4(a),32045,GeTe-xCu2Te-yBiTe-zPbTe_ x=0.015_ y=0.02_ z=0,undefined,650,,,,1.7582
27940,10.1016/j.mtphys.2019.100096,26308,3(b),32045,GeTe-xCu2Te-yBiTe-zPbTe_ x=0.015_ y=0.02_ z=0,undefined,,6.5e+25,0.0092652,0.00012544,
27940,10.1016/j.mtphys.2019.100096,26308,3(b),32045,GeTe-xCu2Te-yBiTe-zPbTe_ x=0.015_ y=0.02_ z=0,undefined,,7e+25,0.0094188,0.00012263,
27940,10.1016/j.mtphys.2019.100096,26308,3(b),32045,GeTe-xCu2Te-yBiTe-zPbTe_ x=0.015_ y=0.02_ z=0,undefined,,7.5e+25,0.0095725,0.00011982,
27940,10.1016/j.mtphys.2019.100096,26308,3(b),32045,GeTe-xCu2Te-yBiTe-zPbTe_ x=0.015_ y=0.02_ z=0,undefined,,8e+25,0.0097261,0.00011701,
27940,10.1016/j.mtphys.2019.100096,26308,3(b),32045,GeTe-xCu2Te-yBiTe-zPbTe_ x=0.015_ y=0.02_ z=0,undefined,,8.5e+25,0.0098797,0.0001142,
27940,10.1016/j.mtphys.2019.100096,26308,3(b),32045,GeTe-xCu2Te-yBiTe-zPbTe_ x=0.015_ y=0.02_ z=0,undefined,,9e+25,0.010033,0.00011139,
27940,10.1016/j.mtphys.2019.100096,26308,3(b),32045,GeTe-xCu2Te-yBiTe-zPbTe_ x=0.015_ y=0.02_ z=0,undefined,,9.5e+25,0.010187,0.00010858,
27940,10.1016/j.mtphys.2019.100096,26308,3(b),32045,GeTe-xCu2Te-yBiTe-zPbTe_ x=0.015_ y=0.02_ z=0,undefined,,1e+26,0.010341,0.00010577,
27940,10.1016/j.mtphys.2019.100096,26308,3(b),32045,GeTe-xCu2Te-yBiTe-zPbTe_ x=0.015_ y=0.02_ z=0,undefined,,1.05e+26,0.010494,0.00010296,
27940,10.1016/j.mtphys.2019.100096,26308,3(b),32045,GeTe-xCu2Te-yBiTe-zPbTe_ x=0.015_ y=0.02_ z=0,undefined,,1.1e+26,0.010648,0.00010014,
27940,10.1016/j.mtphys.2019.100096,26308,3(b),32045,GeTe-xCu2Te-yBiTe-zPbTe_ x=0.015_ y=0.02_ z=0,undefined,,1.15e+26,0.010802,0.000097333,
27940,10.1016/j.mtphys.2019.100096,26308,3(b),32045,GeTe-xCu2Te-yBiTe-zPbTe_ x=0.015_ y=0.02_ z=0,undefined,,1.2e+26,0.010955,0.000094522,
27940,10.1016/j.mtphys.2019.100096,26308,3(b),32045,GeTe-xCu2Te-yBiTe-zPbTe_ x=0.015_ y=0.02_ z=0,undefined,,1.25e+26,0.011109,0.000091712,
27940,10.1016/j.mtphys.2019.100096,26308,3(b),32045,GeTe-xCu2Te-yBiTe-zPbTe_ x=0.015_ y=0.02_ z=0,undefined,,1.3e+26,0.011262,0.000088901,
27940,10.1016/j.mtphys.2019.100096,26308,3(b),32045,GeTe-xCu2Te-yBiTe-zPbTe_ x=0.015_ y=0.02_ z=0,undefined,,1.35e+26,0.011416,0.00008609,
27940,10.1016/j.mtphys.2019.100096,26308,3(b),32045,GeTe-xCu2Te-yBiTe-zPbTe_ x=0.015_ y=0.02_ z=0,undefined,,1.4e+26,0.01157,0.000083279,
27940,10.1016/j.mtphys.2019.100096,26308,3(b),32045,GeTe-xCu2Te-yBiTe-zPbTe_ x=0.015_ y=0.02_ z=0,undefined,,1.45e+26,0.011723,0.000080468,
27940,10.1016/j.mtphys.2019.100096,26308,3(b),32045,GeTe-xCu2Te-yBiTe-zPbTe_ x=0.015_ y=0.02_ z=0,undefined,,1.5e+26,0.011877,0.000077657,
27940,10.1016/j.mtphys.2019.100096,26308,3(b),32045,GeTe-xCu2Te-yBiTe-zPbTe_ x=0.015_ y=0.02_ z=0,undefined,,1.55e+26,0.012031,0.000074846,
27940,10.1016/j.mtphys.2019.100096,26308,3(b),32045,GeTe-xCu2Te-yBiTe-zPbTe_ x=0.015_ y=0.02_ z=0,undefined,,1.6e+26,0.012184,0.000072035,
27940,10.1016/j.mtphys.2019.100096,26308,3(b),32045,GeTe-xCu2Te-yBiTe-zPbTe_ x=0.015_ y=0.02_ z=0,undefined,,1.65e+26,0.012338,0.000069225,
27940,10.1016/j.mtphys.2019.100096,26308,3(b),32045,GeTe-xCu2Te-yBiTe-zPbTe_ x=0.015_ y=0.02_ z=0,undefined,,1.7e+26,0.012492,0.000066414,
27940,10.1016/j.mtphys.2019.100096,26308,3(b),32045,GeTe-xCu2Te-yBiTe-zPbTe_ x=0.015_ y=0.02_ z=0,undefined,,1.75e+26,0.012645,0.000063603,
27940,10.1016/j.mtphys.2019.100096,26308,3(b),32045,GeTe-xCu2Te-yBiTe-zPbTe_ x=0.015_ y=0.02_ z=0,undefined,,1.8e+26,0.012799,0.000060792,
27940,10.1016/j.mtphys.2019.100096,26308,3(b),32045,GeTe-xCu2Te-yBiTe-zPbTe_ x=0.015_ y=0.02_ z=0,undefined,,1.85e+26,0.012952,0.000057981,
27940,10.1016/j.mtphys.2019.100096,26308,3(b),32045,GeTe-xCu2Te-yBiTe-zPbTe_ x=0.015_ y=0.02_ z=0,undefined,,1.9e+26,0.013106,0.00005517,
27940,10.1016/j.mtphys.2019.100096,26308,3(b),32045,GeTe-xCu2Te-yBiTe-zPbTe_ x=0.015_ y=0.02_ z=0,undefined,,1.95e+26,0.01326,0.000052359,
27940,10.1016/j.mtphys.2019.100096,26308,3(b),32045,GeTe-xCu2Te-yBiTe-zPbTe_ x=0.015_ y=0.02_ z=0,undefined,,2e+26,0.013413,0.000049548,
27940,10.1016/j.mtphys.2019.100096,26308,3(b),32045,GeTe-xCu2Te-yBiTe-zPbTe_ x=0.015_ y=0.02_ z=0,undefined,,2.05e+26,0.013567,0.000046738,
27940,10.1016/j.mtphys.2019.100096,26308,3(b),32045,GeTe-xCu2Te-yBiTe-zPbTe_ x=0.015_ y=0.02_ z=0,undefined,,2.1e+26,0.013721,0.000043927,
27940,10.1016/j.mtphys.2019.100096,26308,3(b),32045,GeTe-xCu2Te-yBiTe-zPbTe_ x=0.015_ y=0.02_ z=0,undefined,,2.15e+26,0.013874,0.000041116,
27940,10.1016/j.mtphys.2019.100096,26311,3(d),32045,GeTe-xCu2Te-yBiTe-zPbTe_ x=0.015_ y=0.02_ z=0,undefined,,2.2e+26,0.014028,,
27940,10.1016/j.mtphys.2019.100096,25720,4(a),32046,GeTe-xCu2Te-yBiTe-zPbTe_ x=0.015_ y=0.02_ z=0.08,undefined,350,,,,0.47862
27940,10.1016/j.mtphys.2019.100096,25720,4(a),32046,GeTe-xCu2Te-yBiTe-zPbTe_ x=0.015_ y=0.02_ z=0.08,undefined,400,,,,0.73052
27940,10.1016/j.mtphys.2019.100096,25720,4(a),32046,GeTe-xCu2Te-yBiTe-zPbTe_ x=0.015_ y=0.02_ z=0.08,undefined,450,,,,0.98242