sid,DOI,figureid,fignum,sampleid,samplename,composition,Temperature,Electrical resistivity,Lattice thermal conductivity,Power factor,Seebeck coefficient,Thermal conductivity,ZT,Electrical conductivity,Figure of merit Z
71,10.1016/j.actamat.2015.01.018,4586,6(a),5855,parallel,MgAg0.97Sb0.99,512.5,0.000024193,,0.0020656,0.0002254,0.93528,1.1402,41334.2702434589,0.0022085365
71,10.1016/j.actamat.2015.01.018,4586,6(a),5855,parallel,MgAg0.97Sb0.99,513,0.000024124,,0.0020663,0.00022527,0.93581,1.1411,41452.4954402255,0.0022080337
71,10.1016/j.actamat.2015.01.018,4586,6(a),5855,parallel,MgAg0.97Sb0.99,513.5,0.000024055,,0.0020671,0.00022513,0.93634,1.1419,41571.3988775722,0.0022076383
71,10.1016/j.actamat.2015.01.018,4586,6(a),5855,parallel,MgAg0.97Sb0.99,514,0.000023986,,0.0020679,0.000225,0.93688,1.1428,41690.9864087384,0.0022072197
71,10.1016/j.actamat.2015.01.018,4586,6(a),5855,parallel,MgAg0.97Sb0.99,514.5,0.000023917,,0.0020687,0.00022486,0.93741,1.1436,41811.2639545093,0.0022068252
71,10.1016/j.actamat.2015.01.018,4586,6(a),5855,parallel,MgAg0.97Sb0.99,515,0.000023847,,0.0020694,0.00022472,0.93795,1.1445,41933.9958904684,0.002206301
71,10.1016/j.actamat.2015.01.018,4586,6(a),5855,parallel,MgAg0.97Sb0.99,515.5,0.000023778,,0.0020702,0.00022459,0.93848,1.1454,42055.6817226007,0.0022059074
71,10.1016/j.actamat.2015.01.018,4586,6(a),5855,parallel,MgAg0.97Sb0.99,516,0.000023708,,0.002071,0.00022445,0.93901,1.1462,42179.8549012991,0.0022055143
71,10.1016/j.actamat.2015.01.018,4586,6(a),5855,parallel,MgAg0.97Sb0.99,516.5,0.000023638,,0.0020718,0.00022432,0.93955,1.1471,42304.7635163719,0.0022050982
71,10.1016/j.actamat.2015.01.018,4586,6(a),5855,parallel,MgAg0.97Sb0.99,517,0.000023568,,0.0020725,0.00022418,0.94008,1.148,42430.4141208418,0.0022045996
71,10.1016/j.actamat.2015.01.018,4586,6(a),5855,parallel,MgAg0.97Sb0.99,517.5,0.000023498,,0.0020733,0.00022404,0.94062,1.1488,42556.8133458167,0.0022041845
71,10.1016/j.actamat.2015.01.018,4586,6(a),5855,parallel,MgAg0.97Sb0.99,518,0.000023428,,0.0020741,0.00022391,0.94115,1.1497,42683.9679016561,0.0022037932
71,10.1016/j.actamat.2015.01.018,4586,6(a),5855,parallel,MgAg0.97Sb0.99,518.5,0.000023358,,0.0020749,0.00022377,0.94168,1.1506,42811.8845791592,0.0022034024
71,10.1016/j.actamat.2015.01.018,4586,6(a),5855,parallel,MgAg0.97Sb0.99,519,0.000023288,,0.0020756,0.00022363,0.94222,1.1514,42940.5702507729,0.0022028826
71,10.1016/j.actamat.2015.01.018,4586,6(a),5855,parallel,MgAg0.97Sb0.99,519.5,0.000023217,,0.0020764,0.0002235,0.94275,1.1523,43071.8869793686,0.0022024927
71,10.1016/j.actamat.2015.01.018,4586,6(a),5855,parallel,MgAg0.97Sb0.99,520,0.000023147,,0.0020772,0.00022336,0.94329,1.1532,43202.1428262842,0.00220208
71,10.1016/j.actamat.2015.01.018,4586,6(a),5855,parallel,MgAg0.97Sb0.99,520.5,0.000023076,,0.002078,0.00022323,0.94382,1.154,43335.0667360028,0.002201691
71,10.1016/j.actamat.2015.01.018,4586,6(a),5855,parallel,MgAg0.97Sb0.99,521,0.000023005,,0.0020787,0.00022309,0.94435,1.1549,43468.8111280156,0.0022011966
71,10.1016/j.actamat.2015.01.018,4586,6(a),5855,parallel,MgAg0.97Sb0.99,521.5,0.000022934,,0.0020795,0.00022295,0.94489,1.1557,43603.3836225691,0.0022007853
71,10.1016/j.actamat.2015.01.018,4586,6(a),5855,parallel,MgAg0.97Sb0.99,522,0.000022863,,0.0020803,0.00022282,0.94542,1.1566,43738.7919345668,0.0022003977
71,10.1016/j.actamat.2015.01.018,4586,6(a),5855,parallel,MgAg0.97Sb0.99,522.5,0.000022792,,0.002081,0.00022268,0.94595,1.1575,43875.0438750439,0.0021999049
71,10.1016/j.actamat.2015.01.018,4586,6(a),5855,parallel,MgAg0.97Sb0.99,523,0.000022721,,0.0020818,0.00022254,0.94649,1.1583,44012.1473526693,0.002199495
71,10.1016/j.actamat.2015.01.018,4586,6(a),5855,parallel,MgAg0.97Sb0.99,523.5,0.000022649,,0.0020826,0.00022241,0.94702,1.1592,44152.0596935847,0.0021991088
71,10.1016/j.actamat.2015.01.018,4586,6(a),5855,parallel,MgAg0.97Sb0.99,524,0.000022578,,0.0020834,0.00022227,0.94756,1.1601,44290.902648596,0.0021986998
71,10.1016/j.actamat.2015.01.018,4586,6(a),5855,parallel,MgAg0.97Sb0.99,524.5,0.000022506,,0.0020841,0.00022214,0.94809,1.1609,44432.5957522438,0.002198209
71,10.1016/j.actamat.2015.01.018,4586,6(a),5855,parallel,MgAg0.97Sb0.99,525,0.000022434,,0.0020849,0.000222,0.94862,1.1618,44575.1983596327,0.0021978242
71,10.1016/j.actamat.2015.01.018,4586,6(a),5855,parallel,MgAg0.97Sb0.99,525.5,0.000022363,,0.0020857,0.00022186,0.94916,1.1627,44716.7195814515,0.0021974167
71,10.1016/j.actamat.2015.01.018,4586,6(a),5855,parallel,MgAg0.97Sb0.99,526,0.000022291,,0.0020865,0.00022173,0.94969,1.1635,44861.1547261227,0.0021970327
71,10.1016/j.actamat.2015.01.018,4586,6(a),5855,parallel,MgAg0.97Sb0.99,526.5,0.000022219,,0.0020872,0.00022159,0.95023,1.1644,45006.5259462622,0.0021965208
71,10.1016/j.actamat.2015.01.018,4586,6(a),5855,parallel,MgAg0.97Sb0.99,527,0.000022146,,0.002088,0.00022146,0.95076,1.1652,45154.8812426623,0.0021961378
71,10.1016/j.actamat.2015.01.018,4586,6(a),5855,parallel,MgAg0.97Sb0.99,527.5,0.000022074,,0.0020888,0.00022132,0.95129,1.1661,45302.1654435082,0.0021957552
71,10.1016/j.actamat.2015.01.018,4586,6(a),5855,parallel,MgAg0.97Sb0.99,528,0.000022002,,0.0020896,0.00022118,0.95183,1.167,45450.4135987637,0.00219535
71,10.1016/j.actamat.2015.01.018,4586,6(a),5855,parallel,MgAg0.97Sb0.99,528.5,0.000021929,,0.0020903,0.00022105,0.95236,1.1678,45601.7146244699,0.0021948633
71,10.1016/j.actamat.2015.01.018,4586,6(a),5855,parallel,MgAg0.97Sb0.99,529,0.000021856,,0.0020911,0.00022091,0.9529,1.1687,45754.0263543192,0.002194459
71,10.1016/j.actamat.2015.01.018,4586,6(a),5855,parallel,MgAg0.97Sb0.99,529.5,0.000021784,,0.0020919,0.00022077,0.95343,1.1696,45905.2515607786,0.0021940782
71,10.1016/j.actamat.2015.01.018,4586,6(a),5855,parallel,MgAg0.97Sb0.99,530,0.000021711,,0.0020927,0.00022064,0.95396,1.1704,46059.6011238543,0.0021936978
71,10.1016/j.actamat.2015.01.018,4586,6(a),5855,parallel,MgAg0.97Sb0.99,530.5,0.000021638,,0.0020934,0.0002205,0.9545,1.1713,46214.9921434513,0.0021931902
71,10.1016/j.actamat.2015.01.018,4586,6(a),5855,parallel,MgAg0.97Sb0.99,531,0.000021564,,0.0020942,0.00022037,0.95503,1.1722,46373.585605639,0.0021928107
71,10.1016/j.actamat.2015.01.018,4586,6(a),5855,parallel,MgAg0.97Sb0.99,531.5,0.000021491,,0.002095,0.00022023,0.95557,1.173,46531.1060443907,0.0021924087
71,10.1016/j.actamat.2015.01.018,4586,6(a),5855,parallel,MgAg0.97Sb0.99,532,0.000021418,,0.0020958,0.00022009,0.9561,1.1739,46689.7002521244,0.0021920301
71,10.1016/j.actamat.2015.01.018,4586,6(a),5855,parallel,MgAg0.97Sb0.99,532.5,0.000021344,,0.0020965,0.00021996,0.95663,1.1747,46851.5742128936,0.0021915474
71,10.1016/j.actamat.2015.01.018,4586,6(a),5855,parallel,MgAg0.97Sb0.99,533,0.000021271,,0.0020973,0.00021982,0.95717,1.1756,47012.3642517982,0.0021911468
71,10.1016/j.actamat.2015.01.018,4586,6(a),5855,parallel,MgAg0.97Sb0.99,533.5,0.000021197,,0.0020981,0.00021969,0.9577,1.1765,47176.4872387602,0.0021907696
71,10.1016/j.actamat.2015.01.018,4586,6(a),5855,parallel,MgAg0.97Sb0.99,534,0.000021123,,0.0020988,0.00021955,0.95824,1.1773,47341.760166643,0.0021902655
71,10.1016/j.actamat.2015.01.018,4586,6(a),5855,parallel,MgAg0.97Sb0.99,534.5,0.000021049,,0.0020996,0.00021941,0.95877,1.1782,47508.1951636657,0.0021898891
71,10.1016/j.actamat.2015.01.018,4586,6(a),5855,parallel,MgAg0.97Sb0.99,535,0.000020975,,0.0021004,0.00021928,0.9593,1.1791,47675.8045292014,0.0021895132
71,10.1016/j.actamat.2015.01.018,4586,6(a),5855,parallel,MgAg0.97Sb0.99,535.5,0.000020901,,0.0021012,0.00021914,0.95984,1.1799,47844.6007368069,0.0021891149
71,10.1016/j.actamat.2015.01.018,4586,6(a),5855,parallel,MgAg0.97Sb0.99,536,0.000020827,,0.0021019,0.000219,0.96037,1.1808,48014.5964373169,0.0021886356
71,10.1016/j.actamat.2015.01.018,4586,6(a),5855,parallel,MgAg0.97Sb0.99,536.5,0.000020752,,0.0021027,0.00021887,0.96091,1.1817,48188.1264456438,0.0021882382
71,10.1016/j.actamat.2015.01.018,4586,6(a),5855,parallel,MgAg0.97Sb0.99,537,0.000020678,,0.0021035,0.00021873,0.96144,1.1825,48360.5764580714,0.002187864
71,10.1016/j.actamat.2015.01.018,4586,6(a),5855,parallel,MgAg0.97Sb0.99,537.5,0.000020603,,0.0021043,0.0002186,0.96197,1.1834,48536.6208804543,0.0021874903
71,10.1016/j.actamat.2015.01.018,4586,6(a),5855,parallel,MgAg0.97Sb0.99,538,0.000020528,,0.002105,0.00021846,0.96251,1.1843,48713.9516757599,0.0021869903
71,10.1016/j.actamat.2015.01.018,4586,6(a),5855,parallel,MgAg0.97Sb0.99,538.5,0.000020453,,0.0021058,0.00021832,0.96304,1.1851,48892.5829951596,0.0021866174
71,10.1016/j.actamat.2015.01.018,4586,6(a),5855,parallel,MgAg0.97Sb0.99,539,0.000020378,,0.0021066,0.00021819,0.96358,1.186,49072.5291981549,0.0021862222
71,10.1016/j.actamat.2015.01.018,4586,6(a),5855,parallel,MgAg0.97Sb0.99,539.5,0.000020303,,0.0021074,0.00021805,0.96411,1.1868,49253.8048564252,0.0021858502
71,10.1016/j.actamat.2015.01.018,4586,6(a),5855,parallel,MgAg0.97Sb0.99,540,0.000020228,,0.0021081,0.00021792,0.96464,1.1877,49436.4247577615,0.0021853749
71,10.1016/j.actamat.2015.01.018,4586,6(a),5855,parallel,MgAg0.97Sb0.99,540.5,0.000020153,,0.0021089,0.00021778,0.96518,1.1886,49620.4039100878,0.002184981
71,10.1016/j.actamat.2015.01.018,4586,6(a),5855,parallel,MgAg0.97Sb0.99,541,0.000020077,,0.0021097,0.00021764,0.96571,1.1894,49808.2382826119,0.0021846103
71,10.1016/j.actamat.2015.01.018,4586,6(a),5855,parallel,MgAg0.97Sb0.99,541.5,0.000020002,,0.0021105,0.00021751,0.96624,1.1903,49995.00049995,0.0021842399
71,10.1016/j.actamat.2015.01.018,4586,6(a),5855,parallel,MgAg0.97Sb0.99,542,0.000019926,,0.0021112,0.00021737,0.96678,1.1912,50185.6870420556,0.002183744
71,10.1016/j.actamat.2015.01.018,4586,6(a),5855,parallel,MgAg0.97Sb0.99,542.5,0.00001985,,0.002112,0.00021723,0.96731,1.192,50377.8337531486,0.0021833745
71,10.1016/j.actamat.2015.01.018,4586,6(a),5855,parallel,MgAg0.97Sb0.99,543,0.000019774,,0.0021128,0.0002171,0.96785,1.1929,50571.4574694043,0.0021829829
71,10.1016/j.actamat.2015.01.018,4586,6(a),5855,parallel,MgAg0.97Sb0.99,543.5,0.000019698,,0.0021136,0.00021696,0.96838,1.1938,50766.5752868311,0.0021826143
71,10.1016/j.actamat.2015.01.018,4586,6(a),5855,parallel,MgAg0.97Sb0.99,544,0.000019622,,0.0021143,0.00021683,0.96891,1.1946,50963.2045663031,0.0021821428
71,10.1016/j.actamat.2015.01.018,4586,6(a),5855,parallel,MgAg0.97Sb0.99,544.5,0.000019546,,0.0021151,0.00021669,0.96945,1.1955,51161.3629387087,0.0021817525
71,10.1016/j.actamat.2015.01.018,4586,6(a),5855,parallel,MgAg0.97Sb0.99,545,0.000019469,,0.0021159,0.00021655,0.96998,1.1963,51363.7064050542,0.0021813852
71,10.1016/j.actamat.2015.01.018,4586,6(a),5855,parallel,MgAg0.97Sb0.99,545.5,0.000019393,,0.0021166,0.00021642,0.97052,1.1972,51564.9976795751,0.0021808927
71,10.1016/j.actamat.2015.01.018,4586,6(a),5855,parallel,MgAg0.97Sb0.99,546,0.000019316,,0.0021174,0.00021628,0.97105,1.1981,51770.5529095051,0.0021805262
71,10.1016/j.actamat.2015.01.018,4586,6(a),5855,parallel,MgAg0.97Sb0.99,546.5,0.00001924,,0.0024281,0.00021614,0.97158,1.1989,51975.051975052,0.0024991251
71,10.1016/j.actamat.2015.01.018,4586,6(a),5855,parallel,MgAg0.97Sb0.99,547,0.000019163,,0.0024349,0.00021601,0.97212,1.1998,52183.8960496791,0.0025047319
71,10.1016/j.actamat.2015.01.018,4586,6(a),5855,parallel,MgAg0.97Sb0.99,547.5,0.000019086,,,,0.97265,,52394.4252331552,
71,10.1016/j.actamat.2015.01.018,4586,6(a),5855,parallel,MgAg0.97Sb0.99,548,0.000019009,,,,0.97319,,52606.6600031564,
71,10.1016/j.actamat.2015.01.018,4586,6(a),5855,parallel,MgAg0.97Sb0.99,548.5,0.000018931,,,,0.97372,,52823.4113359041,
71,10.1016/j.actamat.2015.01.018,4587,6(b),5855,parallel,MgAg0.97Sb0.99,304,,,0.0017428,0.00028219,0.71262,0.77992,,0.0024456232
71,10.1016/j.actamat.2015.01.018,4588,6(c),5855,parallel,MgAg0.97Sb0.99,303,,,0.0017413,,0.71155,0.77819,,0.0024471927
71,10.1016/j.actamat.2015.01.018,4588,6(c),5855,parallel,MgAg0.97Sb0.99,303.5,,,0.0017421,,0.71208,0.77906,,0.0024464948
71,10.1016/j.actamat.2015.01.018,4589,6(d),5855,parallel,MgAg0.97Sb0.99,296.5,,,,,0.70461,,,
71,10.1016/j.actamat.2015.01.018,4589,6(d),5855,parallel,MgAg0.97Sb0.99,297,,,,,0.70514,,,
71,10.1016/j.actamat.2015.01.018,4589,6(d),5855,parallel,MgAg0.97Sb0.99,297.5,,,,,0.70568,,,
71,10.1016/j.actamat.2015.01.018,4589,6(d),5855,parallel,MgAg0.97Sb0.99,298,,,,,0.70621,,,
71,10.1016/j.actamat.2015.01.018,4589,6(d),5855,parallel,MgAg0.97Sb0.99,298.5,,,,,0.70675,,,
71,10.1016/j.actamat.2015.01.018,4589,6(d),5855,parallel,MgAg0.97Sb0.99,299,,,,,0.70728,,,
71,10.1016/j.actamat.2015.01.018,4589,6(d),5855,parallel,MgAg0.97Sb0.99,299.5,,,,,0.70781,,,
71,10.1016/j.actamat.2015.01.018,4589,6(d),5855,parallel,MgAg0.97Sb0.99,300,,,,,0.70835,,,
71,10.1016/j.actamat.2015.01.018,4589,6(d),5855,parallel,MgAg0.97Sb0.99,300.5,,,,,0.70888,,,
71,10.1016/j.actamat.2015.01.018,4589,6(d),5855,parallel,MgAg0.97Sb0.99,301,,,,,0.70942,,,
71,10.1016/j.actamat.2015.01.018,4589,6(d),5855,parallel,MgAg0.97Sb0.99,301.5,,,,,0.70995,,,
71,10.1016/j.actamat.2015.01.018,4589,6(d),5855,parallel,MgAg0.97Sb0.99,302,,,,,0.71048,,,
71,10.1016/j.actamat.2015.01.018,4589,6(d),5855,parallel,MgAg0.97Sb0.99,302.5,,,,,0.71102,0.77733,,
71,10.1016/j.actamat.2015.01.018,4589,6(d),5855,parallel,MgAg0.97Sb0.99,549,,,,,0.97425,,,
71,10.1016/j.actamat.2015.01.018,4586,6(a),5856,perpendicular,MgAg0.97Sb0.99,305.5,0.000032216,,0.0017543,0.00026266,0.68981,0.7535,31040.4767817234,0.0025431641
71,10.1016/j.actamat.2015.01.018,4586,6(a),5856,perpendicular,MgAg0.97Sb0.99,306,0.000032341,,0.0017549,0.00026257,0.69038,0.75433,30920.5033857951,0.0025419334
71,10.1016/j.actamat.2015.01.018,4586,6(a),5856,perpendicular,MgAg0.97Sb0.99,306.5,0.000032465,,0.0017556,0.00026249,0.69096,0.75516,30802.4025874018,0.0025408128
71,10.1016/j.actamat.2015.01.018,4586,6(a),5856,perpendicular,MgAg0.97Sb0.99,307,0.000032587,,0.0017562,0.00026241,0.69153,0.75599,30687.0838064259,0.0025395861
71,10.1016/j.actamat.2015.01.018,4586,6(a),5856,perpendicular,MgAg0.97Sb0.99,307.5,0.000032708,,0.0017568,0.00026232,0.69211,0.75682,30573.5599853247,0.0025383248
71,10.1016/j.actamat.2015.01.018,4586,6(a),5856,perpendicular,MgAg0.97Sb0.99,308,0.000032828,,0.0017574,0.00026224,0.69268,0.75765,30461.8009016693,0.0025371023
71,10.1016/j.actamat.2015.01.018,4586,6(a),5856,perpendicular,MgAg0.97Sb0.99,308.5,0.000032946,,0.0017581,0.00026215,0.69326,0.75849,30352.6983548837,0.0025359894
71,10.1016/j.actamat.2015.01.018,4586,6(a),5856,perpendicular,MgAg0.97Sb0.99,309,0.000033063,,0.0017587,0.00026207,0.69383,0.75932,30245.2892961921,0.0025347708
71,10.1016/j.actamat.2015.01.018,4586,6(a),5856,perpendicular,MgAg0.97Sb0.99,309.5,0.000033179,,0.0017593,0.00026199,0.6944,0.76015,30139.5460984358,0.0025335541
71,10.1016/j.actamat.2015.01.018,4586,6(a),5856,perpendicular,MgAg0.97Sb0.99,310,0.000033293,,0.0017599,0.0002619,0.69498,0.76098,30036.3439762112,0.0025323031
71,10.1016/j.actamat.2015.01.018,4586,6(a),5856,perpendicular,MgAg0.97Sb0.99,310.5,0.000033406,,0.0017606,0.00026182,0.69555,0.76181,29934.7422618691,0.0025312343
71,10.1016/j.actamat.2015.01.018,4586,6(a),5856,perpendicular,MgAg0.97Sb0.99,311,0.000033518,,0.0017612,0.00026174,0.69613,0.76264,29834.7156751596,0.0025299872
71,10.1016/j.actamat.2015.01.018,4586,6(a),5856,perpendicular,MgAg0.97Sb0.99,311.5,0.000033629,,0.0017618,0.00026165,0.6967,0.76347,29736.2395551459,0.0025287785
71,10.1016/j.actamat.2015.01.018,4586,6(a),5856,perpendicular,MgAg0.97Sb0.99,312,0.000033738,,0.0017624,0.00026157,0.69728,0.7643,29640.1683561563,0.0025275356
71,10.1016/j.actamat.2015.01.018,4586,6(a),5856,perpendicular,MgAg0.97Sb0.99,312.5,0.000033846,,0.0017631,0.00026148,0.69785,0.76514,29545.5888435857,0.0025264742
71,10.1016/j.actamat.2015.01.018,4586,6(a),5856,perpendicular,MgAg0.97Sb0.99,313,0.000033952,,0.0017637,0.0002614,0.69843,0.76597,29453.3459000942,0.0025252352
71,10.1016/j.actamat.2015.01.018,4586,6(a),5856,perpendicular,MgAg0.97Sb0.99,313.5,0.000034057,,0.0017643,0.00026132,0.699,0.7668,29362.5392723963,0.0025240343
71,10.1016/j.actamat.2015.01.018,4586,6(a),5856,perpendicular,MgAg0.97Sb0.99,314,0.000034161,,0.001765,0.00026123,0.69958,0.76763,29273.1477415767,0.0025229423
71,10.1016/j.actamat.2015.01.018,4586,6(a),5856,perpendicular,MgAg0.97Sb0.99,314.5,0.000034264,,0.0017656,0.00026115,0.70015,0.76846,29185.1505953771,0.0025217453
71,10.1016/j.actamat.2015.01.018,4586,6(a),5856,perpendicular,MgAg0.97Sb0.99,315,0.000034365,,0.0017662,0.00026106,0.70073,0.76929,29099.3743634512,0.0025205143
71,10.1016/j.actamat.2015.01.018,4586,6(a),5856,perpendicular,MgAg0.97Sb0.99,315.5,0.000034465,,0.0017668,0.00026098,0.7013,0.77012,29014.9426954882,0.0025193213
71,10.1016/j.actamat.2015.01.018,4586,6(a),5856,perpendicular,MgAg0.97Sb0.99,316,0.000034564,,0.0017675,0.0002609,0.70188,0.77096,28931.8365929869,0.0025182367
71,10.1016/j.actamat.2015.01.018,4586,6(a),5856,perpendicular,MgAg0.97Sb0.99,316.5,0.000034662,,0.0017681,0.00026081,0.70245,0.77179,28850.0375050488,0.0025170475
71,10.1016/j.actamat.2015.01.018,4586,6(a),5856,perpendicular,MgAg0.97Sb0.99,317,0.000034758,,0.0017687,0.00026073,0.70303,0.77262,28770.355026181,0.0025158244
71,10.1016/j.actamat.2015.01.018,4586,6(a),5856,perpendicular,MgAg0.97Sb0.99,317.5,0.000034853,,0.0017693,0.00026064,0.7036,0.77345,28691.9346971566,0.002514639
71,10.1016/j.actamat.2015.01.018,4586,6(a),5856,perpendicular,MgAg0.97Sb0.99,318,0.000034947,,0.00177,0.00026056,0.70418,0.77428,28614.7594929465,0.0025135619
71,10.1016/j.actamat.2015.01.018,4586,6(a),5856,perpendicular,MgAg0.97Sb0.99,318.5,0.000035039,,0.0017706,0.00026048,0.70475,0.77511,28539.6272724678,0.0025123803
71,10.1016/j.actamat.2015.01.018,4586,6(a),5856,perpendicular,MgAg0.97Sb0.99,319,0.000035131,,0.0017712,0.00026039,0.70533,0.77594,28464.8885599613,0.002511165
71,10.1016/j.actamat.2015.01.018,4586,6(a),5856,perpendicular,MgAg0.97Sb0.99,319.5,0.000035221,,0.0017718,0.00026031,0.7059,0.77677,28392.1524090741,0.0025099873
71,10.1016/j.actamat.2015.01.018,4586,6(a),5856,perpendicular,MgAg0.97Sb0.99,320,0.000035309,,0.0017725,0.00026023,0.70648,0.77761,28321.3911467331,0.0025089174
71,10.1016/j.actamat.2015.01.018,4586,6(a),5856,perpendicular,MgAg0.97Sb0.99,320.5,0.000035397,,0.0017731,0.00026014,0.70705,0.77844,28250.9817216148,0.0025077434
71,10.1016/j.actamat.2015.01.018,4586,6(a),5856,perpendicular,MgAg0.97Sb0.99,321,0.000035483,,0.0017737,0.00026006,0.70763,0.77927,28182.5099343348,0.0025065359
71,10.1016/j.actamat.2015.01.018,4586,6(a),5856,perpendicular,MgAg0.97Sb0.99,321.5,0.000035569,,0.0017744,0.00025997,0.7082,0.7801,28114.3692541258,0.0025055069
71,10.1016/j.actamat.2015.01.018,4586,6(a),5856,perpendicular,MgAg0.97Sb0.99,322,0.000035653,,0.001775,0.00025989,0.70878,0.78093,28048.130592096,0.0025043032
71,10.1016/j.actamat.2015.01.018,4586,6(a),5856,perpendicular,MgAg0.97Sb0.99,322.5,0.000035735,,0.0017756,0.00025981,0.70935,0.78176,27983.76941374,0.0025031367
71,10.1016/j.actamat.2015.01.018,4586,6(a),5856,perpendicular,MgAg0.97Sb0.99,323,0.000035817,,0.0017762,0.00025972,0.70993,0.78259,27919.7029343608,0.0025019368
71,10.1016/j.actamat.2015.01.018,4586,6(a),5856,perpendicular,MgAg0.97Sb0.99,323.5,0.000035897,,0.0017769,0.00025964,0.7105,0.78343,27857.4811265565,0.0025009148
71,10.1016/j.actamat.2015.01.018,4586,6(a),5856,perpendicular,MgAg0.97Sb0.99,324,0.000035976,,0.0017775,0.00025955,0.71108,0.78426,27796.3086502112,0.0024997187
71,10.1016/j.actamat.2015.01.018,4586,6(a),5856,perpendicular,MgAg0.97Sb0.99,324.5,0.000036054,,0.0017781,0.00025947,0.71165,0.78509,27736.1735175015,0.0024985597
71,10.1016/j.actamat.2015.01.018,4586,6(a),5856,perpendicular,MgAg0.97Sb0.99,325,0.000036131,,0.0017787,0.00025939,0.71223,0.78592,27677.0640170491,0.0024973674
71,10.1016/j.actamat.2015.01.018,4586,6(a),5856,perpendicular,MgAg0.97Sb0.99,325.5,0.000036207,,0.0017794,0.0002593,0.7128,0.78675,27618.9687077085,0.0024963524
71,10.1016/j.actamat.2015.01.018,4586,6(a),5856,perpendicular,MgAg0.97Sb0.99,326,0.000036281,,0.00178,0.00025922,0.71338,0.78758,27562.6360905157,0.0024951639