sid,DOI,figureid,fignum,sampleid,samplename,composition,Temperature,Electrical resistivity,Lattice thermal conductivity,Power factor,Seebeck coefficient,Thermal conductivity,ZT,Electrical conductivity,Figure of merit Z
71,10.1016/j.actamat.2015.01.018,4580,3(a),5853,MgAg0.963Cu0.007Sb0.99,MgAg0.963Cu0.007Sb0.99,317.5,0.00003028,0.51618,0.0019681,0.00025078,0.66732,0.98741,33025.0990752972,0.0029492597
71,10.1016/j.actamat.2015.01.018,4580,3(a),5853,MgAg0.963Cu0.007Sb0.99,MgAg0.963Cu0.007Sb0.99,318,0.000030256,0.51628,0.0019687,0.00025069,0.66789,0.98825,33051.2956107879,0.0029476411
71,10.1016/j.actamat.2015.01.018,4580,3(a),5853,MgAg0.963Cu0.007Sb0.99,MgAg0.963Cu0.007Sb0.99,318.5,0.000030231,0.51639,0.0019693,0.0002506,0.66846,0.98909,33078.6278985148,0.0029460252
71,10.1016/j.actamat.2015.01.018,4580,3(a),5853,MgAg0.963Cu0.007Sb0.99,MgAg0.963Cu0.007Sb0.99,319,0.000030206,0.51649,0.00197,0.00025051,0.66903,0.98994,33106.0054293849,0.0029445615
71,10.1016/j.actamat.2015.01.018,4580,3(a),5853,MgAg0.963Cu0.007Sb0.99,MgAg0.963Cu0.007Sb0.99,319.5,0.000030181,0.5166,0.0019706,0.00025042,0.6696,0.99078,33133.4283158278,0.002942951
71,10.1016/j.actamat.2015.01.018,4580,3(a),5853,MgAg0.963Cu0.007Sb0.99,MgAg0.963Cu0.007Sb0.99,320,0.000030157,0.5167,0.0019712,0.00025034,0.67016,0.99162,33159.797062042,0.0029413871
71,10.1016/j.actamat.2015.01.018,4580,3(a),5853,MgAg0.963Cu0.007Sb0.99,MgAg0.963Cu0.007Sb0.99,320.5,0.000030132,0.51681,0.0019719,0.00025025,0.67073,0.99247,33187.3091729723,0.0029399311
71,10.1016/j.actamat.2015.01.018,4580,3(a),5853,MgAg0.963Cu0.007Sb0.99,MgAg0.963Cu0.007Sb0.99,321,0.000030107,0.51691,0.0019725,0.00025016,0.6713,0.99331,33214.8669744578,0.0029383286
71,10.1016/j.actamat.2015.01.018,4580,3(a),5853,MgAg0.963Cu0.007Sb0.99,MgAg0.963Cu0.007Sb0.99,321.5,0.000030082,0.51701,0.0019731,0.00025007,0.67187,0.99415,33242.4705804135,0.0029367288
71,10.1016/j.actamat.2015.01.018,4580,3(a),5853,MgAg0.963Cu0.007Sb0.99,MgAg0.963Cu0.007Sb0.99,322,0.000030058,0.51712,0.0019738,0.00024998,0.67244,0.995,33269.0132410673,0.0029352805
71,10.1016/j.actamat.2015.01.018,4580,3(a),5853,MgAg0.963Cu0.007Sb0.99,MgAg0.963Cu0.007Sb0.99,322.5,0.000030033,0.51722,0.0019744,0.00024989,0.673,0.99584,33296.7069556821,0.0029337296
71,10.1016/j.actamat.2015.01.018,4580,3(a),5853,MgAg0.963Cu0.007Sb0.99,MgAg0.963Cu0.007Sb0.99,323,0.000030008,0.51733,0.001975,0.0002498,0.67357,0.99668,33324.4468141829,0.0029321377
71,10.1016/j.actamat.2015.01.018,4580,3(a),5853,MgAg0.963Cu0.007Sb0.99,MgAg0.963Cu0.007Sb0.99,323.5,0.000029984,0.51743,0.0019757,0.00024972,0.67414,0.99753,33351.1205976521,0.0029306969
71,10.1016/j.actamat.2015.01.018,4580,3(a),5853,MgAg0.963Cu0.007Sb0.99,MgAg0.963Cu0.007Sb0.99,324,0.000029959,0.51754,0.0019763,0.00024963,0.67471,0.99837,33378.9512333523,0.0029291103
71,10.1016/j.actamat.2015.01.018,4580,3(a),5853,MgAg0.963Cu0.007Sb0.99,MgAg0.963Cu0.007Sb0.99,324.5,0.000029934,0.51764,0.0019769,0.00024954,0.67528,0.99921,33406.8283557159,0.0029275264
71,10.1016/j.actamat.2015.01.018,4580,3(a),5853,MgAg0.963Cu0.007Sb0.99,MgAg0.963Cu0.007Sb0.99,325,0.000029909,0.51774,0.0019776,0.00024945,0.67585,1.0001,33434.7520813133,0.0029260931
71,10.1016/j.actamat.2015.01.018,4580,3(a),5853,MgAg0.963Cu0.007Sb0.99,MgAg0.963Cu0.007Sb0.99,325.5,0.000029885,0.51785,0.0019782,0.00024936,0.67641,1.0009,33461.6028107746,0.0029245576
71,10.1016/j.actamat.2015.01.018,4580,3(a),5853,MgAg0.963Cu0.007Sb0.99,MgAg0.963Cu0.007Sb0.99,326,0.00002986,0.51795,0.0019788,0.00024927,0.67698,1.0017,33489.6182183523,0.0029229815
71,10.1016/j.actamat.2015.01.018,4580,3(a),5853,MgAg0.963Cu0.007Sb0.99,MgAg0.963Cu0.007Sb0.99,326.5,0.000029835,0.51806,0.0019795,0.00024919,0.67755,1.0026,33517.6805765041,0.0029215556
71,10.1016/j.actamat.2015.01.018,4580,3(a),5853,MgAg0.963Cu0.007Sb0.99,MgAg0.963Cu0.007Sb0.99,327,0.000029811,0.51816,0.0019801,0.0002491,0.67812,1.0034,33544.6647210761,0.0029199847
71,10.1016/j.actamat.2015.01.018,4580,3(a),5853,MgAg0.963Cu0.007Sb0.99,MgAg0.963Cu0.007Sb0.99,327.5,0.000029786,0.51827,0.0019807,0.00024901,0.67869,1.0043,33572.819445377,0.0029184164
71,10.1016/j.actamat.2015.01.018,4580,3(a),5853,MgAg0.963Cu0.007Sb0.99,MgAg0.963Cu0.007Sb0.99,328,0.000029761,0.51837,0.0019814,0.00024892,0.67925,1.0051,33601.0214710527,0.0029170409
71,10.1016/j.actamat.2015.01.018,4580,3(a),5853,MgAg0.963Cu0.007Sb0.99,MgAg0.963Cu0.007Sb0.99,328.5,0.000029736,0.51847,0.001982,0.00024883,0.67982,1.006,33629.2709174065,0.0029154776
71,10.1016/j.actamat.2015.01.018,4580,3(a),5853,MgAg0.963Cu0.007Sb0.99,MgAg0.963Cu0.007Sb0.99,329,0.000029712,0.51858,0.0019826,0.00024874,0.68039,1.0068,33656.4351103931,0.002913917
71,10.1016/j.actamat.2015.01.018,4580,3(a),5853,MgAg0.963Cu0.007Sb0.99,MgAg0.963Cu0.007Sb0.99,329.5,0.000029687,0.51868,0.0019833,0.00024865,0.68096,1.0076,33684.7778488901,0.0029125059
71,10.1016/j.actamat.2015.01.018,4580,3(a),5853,MgAg0.963Cu0.007Sb0.99,MgAg0.963Cu0.007Sb0.99,330,0.000029662,0.51879,0.0019839,0.00024857,0.68153,1.0085,33713.1683635628,0.0029109504
71,10.1016/j.actamat.2015.01.018,4580,3(a),5853,MgAg0.963Cu0.007Sb0.99,MgAg0.963Cu0.007Sb0.99,330.5,0.000029638,0.51889,0.0019845,0.00024848,0.6821,1.0093,33740.4683177003,0.0029093974
71,10.1016/j.actamat.2015.01.018,4580,3(a),5853,MgAg0.963Cu0.007Sb0.99,MgAg0.963Cu0.007Sb0.99,331,0.000029613,0.519,0.0019852,0.00024839,0.68266,1.0102,33768.9528247729,0.0029080362
71,10.1016/j.actamat.2015.01.018,4580,3(a),5853,MgAg0.963Cu0.007Sb0.99,MgAg0.963Cu0.007Sb0.99,331.5,0.000029588,0.5191,0.0019858,0.0002483,0.68323,1.011,33797.4854670812,0.0029064883
71,10.1016/j.actamat.2015.01.018,4580,3(a),5853,MgAg0.963Cu0.007Sb0.99,MgAg0.963Cu0.007Sb0.99,332,0.000029563,0.5192,0.0019864,0.00024821,0.6838,1.0119,33826.0663667422,0.002904943
71,10.1016/j.actamat.2015.01.018,4580,3(a),5853,MgAg0.963Cu0.007Sb0.99,MgAg0.963Cu0.007Sb0.99,332.5,0.000029539,0.51931,0.0019871,0.00024812,0.68437,1.0127,33853.5495446698,0.0029035463
71,10.1016/j.actamat.2015.01.018,4580,3(a),5853,MgAg0.963Cu0.007Sb0.99,MgAg0.963Cu0.007Sb0.99,333,0.000029514,0.51941,0.0019877,0.00024803,0.68494,1.0135,33882.2253845633,0.002902006
71,10.1016/j.actamat.2015.01.018,4580,3(a),5853,MgAg0.963Cu0.007Sb0.99,MgAg0.963Cu0.007Sb0.99,333.5,0.000029489,0.51952,0.0019883,0.00024795,0.6855,1.0144,33910.9498457052,0.0029005106
71,10.1016/j.actamat.2015.01.018,4580,3(a),5853,MgAg0.963Cu0.007Sb0.99,MgAg0.963Cu0.007Sb0.99,334,0.000029465,0.51962,0.001989,0.00024786,0.68607,1.0152,33938.5711861531,0.0028991211
71,10.1016/j.actamat.2015.01.018,4580,3(a),5853,MgAg0.963Cu0.007Sb0.99,MgAg0.963Cu0.007Sb0.99,334.5,0.00002944,0.51973,0.0019896,0.00024777,0.68664,1.0161,33967.3913043478,0.0028975883
71,10.1016/j.actamat.2015.01.018,4580,3(a),5853,MgAg0.963Cu0.007Sb0.99,MgAg0.963Cu0.007Sb0.99,335,0.000029415,0.51983,0.0019902,0.00024768,0.68721,1.0169,33996.2604113547,0.002896058
71,10.1016/j.actamat.2015.01.018,4580,3(a),5853,MgAg0.963Cu0.007Sb0.99,MgAg0.963Cu0.007Sb0.99,335.5,0.00002939,0.51993,0.0019909,0.00024759,0.68778,1.0178,34025.1786321878,0.0028946756
71,10.1016/j.actamat.2015.01.018,4580,3(a),5853,MgAg0.963Cu0.007Sb0.99,MgAg0.963Cu0.007Sb0.99,336,0.000029366,0.52004,0.0019915,0.0002475,0.68835,1.0186,34052.9864469114,0.0028931503
71,10.1016/j.actamat.2015.01.018,4580,3(a),5853,MgAg0.963Cu0.007Sb0.99,MgAg0.963Cu0.007Sb0.99,336.5,0.000029341,0.52014,0.0019921,0.00024742,0.68891,1.0194,34082.0012951161,0.0028916694
71,10.1016/j.actamat.2015.01.018,4580,3(a),5853,MgAg0.963Cu0.007Sb0.99,MgAg0.963Cu0.007Sb0.99,337,0.000029316,0.52025,0.0019928,0.00024733,0.68948,1.0203,34111.0656296903,0.0028902941
71,10.1016/j.actamat.2015.01.018,4580,3(a),5853,MgAg0.963Cu0.007Sb0.99,MgAg0.963Cu0.007Sb0.99,337.5,0.000029292,0.52035,0.0019934,0.00024724,0.69005,1.0211,34139.0140652738,0.0028887762
71,10.1016/j.actamat.2015.01.018,4580,3(a),5853,MgAg0.963Cu0.007Sb0.99,MgAg0.963Cu0.007Sb0.99,338,0.000029267,0.52046,0.0019941,0.00024715,0.69062,1.022,34168.1757610961,0.0028874055
71,10.1016/j.actamat.2015.01.018,4580,3(a),5853,MgAg0.963Cu0.007Sb0.99,MgAg0.963Cu0.007Sb0.99,338.5,0.000029242,0.52056,0.0019947,0.00024706,0.69119,1.0228,34197.3873196088,0.0028858924
71,10.1016/j.actamat.2015.01.018,4580,3(a),5853,MgAg0.963Cu0.007Sb0.99,MgAg0.963Cu0.007Sb0.99,339,0.000029217,0.52066,0.0019953,0.00024697,0.69175,1.0237,34226.6488688093,0.0028844236
71,10.1016/j.actamat.2015.01.018,4580,3(a),5853,MgAg0.963Cu0.007Sb0.99,MgAg0.963Cu0.007Sb0.99,339.5,0.000029193,0.52077,0.001996,0.00024688,0.69232,1.0245,34254.7871064981,0.0028830599
71,10.1016/j.actamat.2015.01.018,4580,3(a),5853,MgAg0.963Cu0.007Sb0.99,MgAg0.963Cu0.007Sb0.99,340,0.000029168,0.52087,0.0019966,0.0002468,0.69289,1.0254,34284.1470104224,0.0028815541
71,10.1016/j.actamat.2015.01.018,4580,3(a),5853,MgAg0.963Cu0.007Sb0.99,MgAg0.963Cu0.007Sb0.99,340.5,0.000029143,0.52098,0.0019972,0.00024671,0.69346,1.0262,34313.5572864839,0.0028800508
71,10.1016/j.actamat.2015.01.018,4580,3(a),5853,MgAg0.963Cu0.007Sb0.99,MgAg0.963Cu0.007Sb0.99,341,0.000029118,0.52108,0.0019979,0.00024662,0.69403,1.027,34343.0180644275,0.002878694
71,10.1016/j.actamat.2015.01.018,4580,3(a),5853,MgAg0.963Cu0.007Sb0.99,MgAg0.963Cu0.007Sb0.99,341.5,0.000029094,0.52119,0.0019985,0.00024653,0.6946,1.0279,34371.3480442703,0.0028771955
71,10.1016/j.actamat.2015.01.018,4580,3(a),5853,MgAg0.963Cu0.007Sb0.99,MgAg0.963Cu0.007Sb0.99,342,0.000029069,0.52129,0.0019991,0.00024644,0.69516,1.0287,34400.9081839761,0.0028757408
71,10.1016/j.actamat.2015.01.018,4580,3(a),5853,MgAg0.963Cu0.007Sb0.99,MgAg0.963Cu0.007Sb0.99,342.5,0.000029044,0.52139,0.0019998,0.00024635,0.69573,1.0296,34430.5192122297,0.0028743909
71,10.1016/j.actamat.2015.01.018,4580,3(a),5853,MgAg0.963Cu0.007Sb0.99,MgAg0.963Cu0.007Sb0.99,343,0.00002902,0.5215,0.0020004,0.00024627,0.6963,1.0304,34458.9937973811,0.0028728996
71,10.1016/j.actamat.2015.01.018,4580,3(a),5853,MgAg0.963Cu0.007Sb0.99,MgAg0.963Cu0.007Sb0.99,343.5,0.000028995,0.5216,0.002001,0.00024618,0.69687,1.0313,34488.7049491292,0.0028714107
71,10.1016/j.actamat.2015.01.018,4580,3(a),5853,MgAg0.963Cu0.007Sb0.99,MgAg0.963Cu0.007Sb0.99,344,0.00002897,0.52171,0.0020017,0.00024609,0.69744,1.0321,34518.4673800483,0.0028700677
71,10.1016/j.actamat.2015.01.018,4580,3(a),5853,MgAg0.963Cu0.007Sb0.99,MgAg0.963Cu0.007Sb0.99,344.5,0.000028945,0.52181,0.0020023,0.000246,0.698,1.0329,34548.2812230092,0.0028686246
71,10.1016/j.actamat.2015.01.018,4580,3(a),5853,MgAg0.963Cu0.007Sb0.99,MgAg0.963Cu0.007Sb0.99,345,0.000028921,0.52192,0.0020029,0.00024591,0.69857,1.0338,34576.9510044604,0.0028671429
71,10.1016/j.actamat.2015.01.018,4580,3(a),5853,MgAg0.963Cu0.007Sb0.99,MgAg0.963Cu0.007Sb0.99,345.5,0.000028896,0.52202,0.0020036,0.00024582,0.69914,1.0346,34606.8660022148,0.0028658066
71,10.1016/j.actamat.2015.01.018,4580,3(a),5853,MgAg0.963Cu0.007Sb0.99,MgAg0.963Cu0.007Sb0.99,346,0.000028871,0.52212,0.0020042,0.00024573,0.69971,1.0355,34636.832808008,0.0028643295
71,10.1016/j.actamat.2015.01.018,4580,3(a),5853,MgAg0.963Cu0.007Sb0.99,MgAg0.963Cu0.007Sb0.99,346.5,0.000028847,0.52223,0.0020048,0.00024565,0.70028,1.0363,34665.6498076056,0.0028628549
71,10.1016/j.actamat.2015.01.018,4580,3(a),5853,MgAg0.963Cu0.007Sb0.99,MgAg0.963Cu0.007Sb0.99,347,0.000028822,0.52233,0.0020055,0.00024556,0.70084,1.0372,34695.7185483311,0.0028615661
71,10.1016/j.actamat.2015.01.018,4580,3(a),5853,MgAg0.963Cu0.007Sb0.99,MgAg0.963Cu0.007Sb0.99,347.5,0.000028797,0.52244,0.0020061,0.00024547,0.70141,1.038,34725.8394971698,0.0028600961
71,10.1016/j.actamat.2015.01.018,4580,3(a),5853,MgAg0.963Cu0.007Sb0.99,MgAg0.963Cu0.007Sb0.99,348,0.000028772,0.52254,0.0020067,0.00024538,0.70198,1.0388,34756.0127902127,0.0028586285
71,10.1016/j.actamat.2015.01.018,4580,3(a),5853,MgAg0.963Cu0.007Sb0.99,MgAg0.963Cu0.007Sb0.99,348.5,0.000028748,0.52265,0.0020074,0.00024529,0.70255,1.0397,34785.0285237234,0.0028573055
71,10.1016/j.actamat.2015.01.018,4580,3(a),5853,MgAg0.963Cu0.007Sb0.99,MgAg0.963Cu0.007Sb0.99,349,0.000028723,0.52275,0.002008,0.0002452,0.70312,1.0405,34815.3048079936,0.0028558425
71,10.1016/j.actamat.2015.01.018,4580,3(a),5853,MgAg0.963Cu0.007Sb0.99,MgAg0.963Cu0.007Sb0.99,349.5,0.000028698,0.52285,0.0020086,0.00024511,0.70369,1.0414,34845.6338420796,0.0028543819
71,10.1016/j.actamat.2015.01.018,4580,3(a),5853,MgAg0.963Cu0.007Sb0.99,MgAg0.963Cu0.007Sb0.99,350,0.000028674,0.52296,0.0020093,0.00024503,0.70425,1.0422,34874.799469903,0.0028531061
71,10.1016/j.actamat.2015.01.018,4580,3(a),5853,MgAg0.963Cu0.007Sb0.99,MgAg0.963Cu0.007Sb0.99,350.5,0.000028649,0.52306,0.0020099,0.00024494,0.70482,1.0431,34905.2322943209,0.0028516501
71,10.1016/j.actamat.2015.01.018,4580,3(a),5853,MgAg0.963Cu0.007Sb0.99,MgAg0.963Cu0.007Sb0.99,351,0.000028624,0.52317,0.0020105,0.00024485,0.70539,1.0439,34935.7182783678,0.0028501963
71,10.1016/j.actamat.2015.01.018,4580,3(a),5853,MgAg0.963Cu0.007Sb0.99,MgAg0.963Cu0.007Sb0.99,351.5,0.000028599,0.52327,0.0020112,0.00024476,0.70596,1.0447,34966.2575614532,0.0028488866
71,10.1016/j.actamat.2015.01.018,4580,3(a),5853,MgAg0.963Cu0.007Sb0.99,MgAg0.963Cu0.007Sb0.99,352,0.000028575,0.52338,0.0020118,0.00024467,0.70653,1.0456,34995.6255468067,0.0028474375
71,10.1016/j.actamat.2015.01.018,4580,3(a),5853,MgAg0.963Cu0.007Sb0.99,MgAg0.963Cu0.007Sb0.99,352.5,0.00002855,0.52348,0.0020124,0.00024458,0.70709,1.0464,35026.2697022767,0.0028460309
71,10.1016/j.actamat.2015.01.018,4580,3(a),5853,MgAg0.963Cu0.007Sb0.99,MgAg0.963Cu0.007Sb0.99,353,0.000028525,0.52358,0.0020131,0.0002445,0.70766,1.0473,35056.967572305,0.0028447277
71,10.1016/j.actamat.2015.01.018,4580,3(a),5853,MgAg0.963Cu0.007Sb0.99,MgAg0.963Cu0.007Sb0.99,353.5,0.000028501,0.52369,0.0020137,0.00024441,0.70823,1.0481,35086.4881933967,0.0028432854
71,10.1016/j.actamat.2015.01.018,4580,3(a),5853,MgAg0.963Cu0.007Sb0.99,MgAg0.963Cu0.007Sb0.99,354,0.000028476,0.52379,0.0020143,0.00024432,0.7088,1.049,35117.2917544599,0.0028418454
71,10.1016/j.actamat.2015.01.018,4580,3(a),5853,MgAg0.963Cu0.007Sb0.99,MgAg0.963Cu0.007Sb0.99,354.5,0.000028451,0.5239,0.002015,0.00024423,0.70937,1.0498,35148.1494499315,0.0028405487
71,10.1016/j.actamat.2015.01.018,4580,3(a),5853,MgAg0.963Cu0.007Sb0.99,MgAg0.963Cu0.007Sb0.99,355,0.000028426,0.524,0.0020156,0.00024414,0.70994,1.0506,35179.0614226412,0.0028391132
71,10.1016/j.actamat.2015.01.018,4580,3(a),5853,MgAg0.963Cu0.007Sb0.99,MgAg0.963Cu0.007Sb0.99,355.5,0.000028402,0.52411,0.0020162,0.00024405,0.7105,1.0515,35208.7881135131,0.0028377199
71,10.1016/j.actamat.2015.01.018,4580,3(a),5853,MgAg0.963Cu0.007Sb0.99,MgAg0.963Cu0.007Sb0.99,356,0.000028377,0.52421,0.0020169,0.00024396,0.71107,1.0523,35239.8068858583,0.0028364296
71,10.1016/j.actamat.2015.01.018,4580,3(a),5853,MgAg0.963Cu0.007Sb0.99,MgAg0.963Cu0.007Sb0.99,356.5,0.000028352,0.52431,0.0020175,0.00024388,0.71164,1.0532,35270.8803611738,0.0028350008
71,10.1016/j.actamat.2015.01.018,4580,3(a),5853,MgAg0.963Cu0.007Sb0.99,MgAg0.963Cu0.007Sb0.99,357,0.000028328,0.52442,0.0020181,0.00024379,0.71221,1.054,35300.7624964699,0.0028335744
71,10.1016/j.actamat.2015.01.018,4580,3(a),5853,MgAg0.963Cu0.007Sb0.99,MgAg0.963Cu0.007Sb0.99,357.5,0.000028303,0.52452,0.0020188,0.0002437,0.71278,1.0549,35331.943610218,0.0028322905
71,10.1016/j.actamat.2015.01.018,4580,3(a),5853,MgAg0.963Cu0.007Sb0.99,MgAg0.963Cu0.007Sb0.99,358,0.000028278,0.52463,0.0020194,0.00024361,0.71334,1.0557,35363.1798571328,0.0028309081
71,10.1016/j.actamat.2015.01.018,4580,3(a),5853,MgAg0.963Cu0.007Sb0.99,MgAg0.963Cu0.007Sb0.99,358.5,0.000028253,0.52473,0.00202,0.00024352,0.71391,1.0566,35394.4713835699,0.0028294883
71,10.1016/j.actamat.2015.01.018,4580,3(a),5853,MgAg0.963Cu0.007Sb0.99,MgAg0.963Cu0.007Sb0.99,359,0.000028229,0.52484,0.0020207,0.00024343,0.71448,1.0574,35424.5633922562,0.0028282107
71,10.1016/j.actamat.2015.01.018,4580,3(a),5853,MgAg0.963Cu0.007Sb0.99,MgAg0.963Cu0.007Sb0.99,359.5,0.000028204,0.52494,0.0020213,0.00024335,0.71505,1.0582,35455.9636930932,0.0028267953
71,10.1016/j.actamat.2015.01.018,4580,3(a),5853,MgAg0.963Cu0.007Sb0.99,MgAg0.963Cu0.007Sb0.99,360,0.000028179,0.52505,0.0020219,0.00024326,0.71562,1.0591,35487.4197097129,0.0028253822
71,10.1016/j.actamat.2015.01.018,4580,3(a),5853,MgAg0.963Cu0.007Sb0.99,MgAg0.963Cu0.007Sb0.99,360.5,0.000028154,0.52515,0.0020226,0.00024317,0.71619,1.0599,35518.9315905378,0.0028241109
71,10.1016/j.actamat.2015.01.018,4580,3(a),5853,MgAg0.963Cu0.007Sb0.99,MgAg0.963Cu0.007Sb0.99,361,0.00002813,0.52525,0.0020232,0.00024308,0.71675,1.0608,35549.2356914326,0.0028227415
71,10.1016/j.actamat.2015.01.018,4580,3(a),5853,MgAg0.963Cu0.007Sb0.99,MgAg0.963Cu0.007Sb0.99,361.5,0.000028105,0.52536,0.0020238,0.00024299,0.71732,1.0616,35580.8574986657,0.002821335
71,10.1016/j.actamat.2015.01.018,4580,3(a),5853,MgAg0.963Cu0.007Sb0.99,MgAg0.963Cu0.007Sb0.99,362,0.00002808,0.52546,0.0020245,0.0002429,0.71789,1.0625,35612.5356125356,0.0028200699
71,10.1016/j.actamat.2015.01.018,4580,3(a),5853,MgAg0.963Cu0.007Sb0.99,MgAg0.963Cu0.007Sb0.99,362.5,0.000028056,0.52557,0.0020251,0.00024281,0.71846,1.0633,35642.999714856,0.0028186677
71,10.1016/j.actamat.2015.01.018,4580,3(a),5853,MgAg0.963Cu0.007Sb0.99,MgAg0.963Cu0.007Sb0.99,363,0.000028031,0.52567,0.0020257,0.00024273,0.71903,1.0641,35674.7886268774,0.0028172677
71,10.1016/j.actamat.2015.01.018,4580,3(a),5853,MgAg0.963Cu0.007Sb0.99,MgAg0.963Cu0.007Sb0.99,363.5,0.000028006,0.52578,0.0020264,0.00024264,0.71959,1.065,35706.6342926516,0.002816048
71,10.1016/j.actamat.2015.01.018,4580,3(a),5853,MgAg0.963Cu0.007Sb0.99,MgAg0.963Cu0.007Sb0.99,364,0.000027981,0.52588,0.002027,0.00024255,0.72016,1.0658,35738.5368643008,0.0028146523
71,10.1016/j.actamat.2015.01.018,4580,3(a),5853,MgAg0.963Cu0.007Sb0.99,MgAg0.963Cu0.007Sb0.99,364.5,0.000027957,0.52598,0.0020276,0.00024246,0.72073,1.0667,35769.2170118396,0.0028132588
71,10.1016/j.actamat.2015.01.018,4580,3(a),5853,MgAg0.963Cu0.007Sb0.99,MgAg0.963Cu0.007Sb0.99,365,0.000027932,0.52609,0.0020283,0.00024237,0.7213,1.0675,35801.2315623657,0.0028120061
71,10.1016/j.actamat.2015.01.018,4580,3(a),5853,MgAg0.963Cu0.007Sb0.99,MgAg0.963Cu0.007Sb0.99,365.5,0.000027907,0.52619,0.0020289,0.00024228,0.72187,1.0684,35833.3034722471,0.0028106169
71,10.1016/j.actamat.2015.01.018,4580,3(a),5853,MgAg0.963Cu0.007Sb0.99,MgAg0.963Cu0.007Sb0.99,366,0.000027883,0.5263,0.0020295,0.00024219,0.72244,1.0692,35864.1466126314,0.0028092298
71,10.1016/j.actamat.2015.01.018,4580,3(a),5853,MgAg0.963Cu0.007Sb0.99,MgAg0.963Cu0.007Sb0.99,366.5,0.000027858,0.5264,0.0020302,0.00024211,0.723,1.07,35896.3313949314,0.0028080221
71,10.1016/j.actamat.2015.01.018,4580,3(a),5853,MgAg0.963Cu0.007Sb0.99,MgAg0.963Cu0.007Sb0.99,367,0.000027833,0.52651,0.0020308,0.00024202,0.72357,1.0709,35928.5739948981,0.0028066393
71,10.1016/j.actamat.2015.01.018,4580,3(a),5853,MgAg0.963Cu0.007Sb0.99,MgAg0.963Cu0.007Sb0.99,367.5,0.000027808,0.52661,0.0020314,0.00024193,0.72414,1.0717,35960.8745684695,0.0028052587
71,10.1016/j.actamat.2015.01.018,4580,3(a),5853,MgAg0.963Cu0.007Sb0.99,MgAg0.963Cu0.007Sb0.99,368,0.000027784,0.52671,0.0020321,0.00024184,0.72471,1.0726,35991.9378059315,0.0028040182
71,10.1016/j.actamat.2015.01.018,4580,3(a),5853,MgAg0.963Cu0.007Sb0.99,MgAg0.963Cu0.007Sb0.99,368.5,0.000027759,0.52682,0.0020327,0.00024175,0.72528,1.0734,36024.3524622645,0.0028026417
71,10.1016/j.actamat.2015.01.018,4580,3(a),5853,MgAg0.963Cu0.007Sb0.99,MgAg0.963Cu0.007Sb0.99,369,0.000027734,0.52692,0.0020333,0.00024166,0.72584,1.0743,36056.825557078,0.0028013061
71,10.1016/j.actamat.2015.01.018,4580,3(a),5853,MgAg0.963Cu0.007Sb0.99,MgAg0.963Cu0.007Sb0.99,369.5,0.00002771,0.52703,0.002034,0.00024158,0.72641,1.0751,36088.0548538434,0.0028000716
71,10.1016/j.actamat.2015.01.018,4580,3(a),5853,MgAg0.963Cu0.007Sb0.99,MgAg0.963Cu0.007Sb0.99,370,0.000027685,0.52713,0.0020346,0.00024149,0.72698,1.0759,36120.6429474445,0.0027987015
71,10.1016/j.actamat.2015.01.018,4580,3(a),5853,MgAg0.963Cu0.007Sb0.99,MgAg0.963Cu0.007Sb0.99,370.5,0.00002766,0.52724,0.0020352,0.0002414,0.72755,1.0768,36153.2899493854,0.0027973335