sid,DOI,figureid,fignum,sampleid,samplename,composition,Temperature,Electrical resistivity,Lattice thermal conductivity,Power factor,Seebeck coefficient,Thermal conductivity,ZT,Electrical conductivity,Figure of merit Z
71,10.1016/j.actamat.2015.01.018,4586,6(a),5855,parallel,MgAg0.97Sb0.99,323,0.000041947,,0.0017723,0.00027701,0.73291,0.81275,23839.6071232746,0.0024181687
71,10.1016/j.actamat.2015.01.018,4586,6(a),5855,parallel,MgAg0.97Sb0.99,323.5,0.000041922,,0.001773,0.00027688,0.73344,0.81362,23853.82376795,0.0024173757
71,10.1016/j.actamat.2015.01.018,4586,6(a),5855,parallel,MgAg0.97Sb0.99,324,0.000041897,,0.0017738,0.00027674,0.73398,0.81448,23868.0573788099,0.0024166871
71,10.1016/j.actamat.2015.01.018,4586,6(a),5855,parallel,MgAg0.97Sb0.99,324.5,0.000041872,,0.0017746,0.00027661,0.73451,0.81534,23882.3079862438,0.0024160325
71,10.1016/j.actamat.2015.01.018,4586,6(a),5855,parallel,MgAg0.97Sb0.99,325,0.000041846,,0.0017753,0.00027647,0.73504,0.81621,23897.1466806863,0.0024152427
71,10.1016/j.actamat.2015.01.018,4586,6(a),5855,parallel,MgAg0.97Sb0.99,325.5,0.000041821,,0.0017761,0.00027633,0.73558,0.81707,23911.4320556658,0.0024145572
71,10.1016/j.actamat.2015.01.018,4586,6(a),5855,parallel,MgAg0.97Sb0.99,326,0.000041796,,0.0017769,0.0002762,0.73611,0.81794,23925.7345200498,0.0024139055
71,10.1016/j.actamat.2015.01.018,4586,6(a),5855,parallel,MgAg0.97Sb0.99,326.5,0.00004177,,0.0017777,0.00027606,0.73665,0.8188,23940.6272444338,0.002413222
71,10.1016/j.actamat.2015.01.018,4586,6(a),5855,parallel,MgAg0.97Sb0.99,327,0.000041745,,0.0017784,0.00027592,0.73718,0.81966,23954.9646664271,0.0024124366
71,10.1016/j.actamat.2015.01.018,4586,6(a),5855,parallel,MgAg0.97Sb0.99,327.5,0.000041719,,0.0017792,0.00027579,0.73771,0.82053,23969.8938133704,0.0024117878
71,10.1016/j.actamat.2015.01.018,4586,6(a),5855,parallel,MgAg0.97Sb0.99,328,0.000041693,,0.00178,0.00027565,0.73825,0.82139,23984.8415801214,0.0024111073
71,10.1016/j.actamat.2015.01.018,4586,6(a),5855,parallel,MgAg0.97Sb0.99,328.5,0.000041667,,0.0017808,0.00027552,0.73878,0.82226,23999.808001536,0.0024104605
71,10.1016/j.actamat.2015.01.018,4586,6(a),5855,parallel,MgAg0.97Sb0.99,329,0.000041641,,0.0017815,0.00027538,0.73932,0.82312,24014.7931125573,0.0024096467
71,10.1016/j.actamat.2015.01.018,4586,6(a),5855,parallel,MgAg0.97Sb0.99,329.5,0.000041614,,0.0017823,0.00027524,0.73985,0.82398,24030.374393233,0.0024090018
71,10.1016/j.actamat.2015.01.018,4586,6(a),5855,parallel,MgAg0.97Sb0.99,330,0.000041588,,0.0017831,0.00027511,0.74038,0.82485,24045.3977108781,0.0024083579
71,10.1016/j.actamat.2015.01.018,4586,6(a),5855,parallel,MgAg0.97Sb0.99,330.5,0.000041562,,0.0017839,0.00027497,0.74092,0.82571,24060.43982484,0.0024076823
71,10.1016/j.actamat.2015.01.018,4586,6(a),5855,parallel,MgAg0.97Sb0.99,331,0.000041535,,0.0017846,0.00027484,0.74145,0.82658,24076.0804141086,0.0024069054
71,10.1016/j.actamat.2015.01.018,4586,6(a),5855,parallel,MgAg0.97Sb0.99,331.5,0.000041508,,0.0017854,0.0002747,0.74199,0.82744,24091.7413510649,0.0024062319
71,10.1016/j.actamat.2015.01.018,4586,6(a),5855,parallel,MgAg0.97Sb0.99,332,0.000041481,,0.0017862,0.00027456,0.74252,0.8283,24107.4226754418,0.0024055918
71,10.1016/j.actamat.2015.01.018,4586,6(a),5855,parallel,MgAg0.97Sb0.99,332.5,0.000041454,,0.001787,0.00027443,0.74305,0.82917,24123.1244270758,0.0024049526
71,10.1016/j.actamat.2015.01.018,4586,6(a),5855,parallel,MgAg0.97Sb0.99,333,0.000041427,,0.0017877,0.00027429,0.74359,0.83003,24138.8466459073,0.0024041474
71,10.1016/j.actamat.2015.01.018,4586,6(a),5855,parallel,MgAg0.97Sb0.99,333.5,0.0000414,,0.0017885,0.00027415,0.74412,0.83089,24154.5893719807,0.0024035102
71,10.1016/j.actamat.2015.01.018,4586,6(a),5855,parallel,MgAg0.97Sb0.99,334,0.000041373,,0.0017893,0.00027402,0.74466,0.83176,24170.3526454451,0.0024028416
71,10.1016/j.actamat.2015.01.018,4586,6(a),5855,parallel,MgAg0.97Sb0.99,334.5,0.000041346,,0.0017901,0.00027388,0.74519,0.83262,24186.1365065544,0.0024022061
71,10.1016/j.actamat.2015.01.018,4586,6(a),5855,parallel,MgAg0.97Sb0.99,335,0.000041318,,0.0017908,0.00027375,0.74572,0.83349,24202.5267437921,0.0024014375
71,10.1016/j.actamat.2015.01.018,4586,6(a),5855,parallel,MgAg0.97Sb0.99,335.5,0.00004129,,0.0017916,0.00027361,0.74626,0.83435,24218.9392104626,0.0024007718
71,10.1016/j.actamat.2015.01.018,4586,6(a),5855,parallel,MgAg0.97Sb0.99,336,0.000041263,,0.0017924,0.00027347,0.74679,0.83521,24234.7866127039,0.0024001393
71,10.1016/j.actamat.2015.01.018,4586,6(a),5855,parallel,MgAg0.97Sb0.99,336.5,0.000041235,,0.0017931,0.00027334,0.74733,0.83608,24251.2428761974,0.0023993417
71,10.1016/j.actamat.2015.01.018,4586,6(a),5855,parallel,MgAg0.97Sb0.99,337,0.000041207,,0.0017939,0.0002732,0.74786,0.83694,24267.721503628,0.002398711
71,10.1016/j.actamat.2015.01.018,4586,6(a),5855,parallel,MgAg0.97Sb0.99,337.5,0.000041179,,0.0017947,0.00027306,0.74839,0.83781,24284.2225406154,0.0023980812
71,10.1016/j.actamat.2015.01.018,4586,6(a),5855,parallel,MgAg0.97Sb0.99,338,0.00004115,,0.0017955,0.00027293,0.74893,0.83867,24301.3365735115,0.0023974203
71,10.1016/j.actamat.2015.01.018,4586,6(a),5855,parallel,MgAg0.97Sb0.99,338.5,0.000041122,,0.0017962,0.00027279,0.74946,0.83953,24317.8833714314,0.0023966589
71,10.1016/j.actamat.2015.01.018,4586,6(a),5855,parallel,MgAg0.97Sb0.99,339,0.000041094,,0.001797,0.00027266,0.75,0.8404,24334.4527181584,0.002396
71,10.1016/j.actamat.2015.01.018,4586,6(a),5855,parallel,MgAg0.97Sb0.99,339.5,0.000041065,,0.0017978,0.00027252,0.75053,0.84126,24351.6376476318,0.0023953739
71,10.1016/j.actamat.2015.01.018,4586,6(a),5855,parallel,MgAg0.97Sb0.99,340,0.000041036,,0.0017986,0.00027238,0.75106,0.84213,24368.8468661663,0.0023947488
71,10.1016/j.actamat.2015.01.018,4586,6(a),5855,parallel,MgAg0.97Sb0.99,340.5,0.000041007,,0.0017993,0.00027225,0.7516,0.84299,24386.0804252932,0.0023939596
71,10.1016/j.actamat.2015.01.018,4586,6(a),5855,parallel,MgAg0.97Sb0.99,341,0.000040979,,0.0018001,0.00027211,0.75213,0.84385,24402.7428682984,0.0023933363
71,10.1016/j.actamat.2015.01.018,4586,6(a),5855,parallel,MgAg0.97Sb0.99,341.5,0.00004095,,0.0018009,0.00027198,0.75267,0.84472,24420.0244200244,0.0023926821
71,10.1016/j.actamat.2015.01.018,4586,6(a),5855,parallel,MgAg0.97Sb0.99,342,0.00004092,,0.0018017,0.00027184,0.7532,0.84558,24437.9276637341,0.0023920605
71,10.1016/j.actamat.2015.01.018,4586,6(a),5855,parallel,MgAg0.97Sb0.99,342.5,0.000040891,,0.0018024,0.0002717,0.75373,0.84645,24455.2591034702,0.0023913072
71,10.1016/j.actamat.2015.01.018,4586,6(a),5855,parallel,MgAg0.97Sb0.99,343,0.000040862,,0.0018032,0.00027157,0.75427,0.84731,24472.6151436542,0.0023906559
71,10.1016/j.actamat.2015.01.018,4586,6(a),5855,parallel,MgAg0.97Sb0.99,343.5,0.000040832,,0.001804,0.00027143,0.7548,0.84817,24490.5956112853,0.0023900371
71,10.1016/j.actamat.2015.01.018,4586,6(a),5855,parallel,MgAg0.97Sb0.99,344,0.000040803,,0.0018048,0.00027129,0.75533,0.84904,24508.0018626081,0.0023894192
71,10.1016/j.actamat.2015.01.018,4586,6(a),5855,parallel,MgAg0.97Sb0.99,344.5,0.000040773,,0.0018055,0.00027116,0.75587,0.8499,24526.0343855002,0.0023886383
71,10.1016/j.actamat.2015.01.018,4586,6(a),5855,parallel,MgAg0.97Sb0.99,345,0.000040743,,0.0018063,0.00027102,0.7564,0.85077,24544.0934639079,0.0023880222
71,10.1016/j.actamat.2015.01.018,4586,6(a),5855,parallel,MgAg0.97Sb0.99,345.5,0.000040713,,0.0018071,0.00027089,0.75694,0.85163,24562.1791565348,0.0023873755
71,10.1016/j.actamat.2015.01.018,4586,6(a),5855,parallel,MgAg0.97Sb0.99,346,0.000040683,,0.0018079,0.00027075,0.75747,0.85249,24580.2915222575,0.0023867612
71,10.1016/j.actamat.2015.01.018,4586,6(a),5855,parallel,MgAg0.97Sb0.99,346.5,0.000040653,,0.0018086,0.00027061,0.758,0.85336,24598.4306201264,0.0023860158
71,10.1016/j.actamat.2015.01.018,4586,6(a),5855,parallel,MgAg0.97Sb0.99,347,0.000040622,,0.0018094,0.00027048,0.75854,0.85422,24617.2025011078,0.0023853719
71,10.1016/j.actamat.2015.01.018,4586,6(a),5855,parallel,MgAg0.97Sb0.99,347.5,0.000040592,,0.0018102,0.00027034,0.75907,0.85509,24635.3961371699,0.0023847603
71,10.1016/j.actamat.2015.01.018,4586,6(a),5855,parallel,MgAg0.97Sb0.99,348,0.000040561,,0.0018109,0.00027021,0.75961,0.85595,24654.2245013683,0.0023839865
71,10.1016/j.actamat.2015.01.018,4586,6(a),5855,parallel,MgAg0.97Sb0.99,348.5,0.000040531,,0.0018117,0.00027007,0.76014,0.85681,24672.472921961,0.0023833767
71,10.1016/j.actamat.2015.01.018,4586,6(a),5855,parallel,MgAg0.97Sb0.99,349,0.0000405,,0.0018125,0.00026993,0.76067,0.85768,24691.3580246914,0.0023827678
71,10.1016/j.actamat.2015.01.018,4586,6(a),5855,parallel,MgAg0.97Sb0.99,349.5,0.000040469,,0.0018133,0.0002698,0.76121,0.85854,24710.2720600954,0.0023821285
71,10.1016/j.actamat.2015.01.018,4586,6(a),5855,parallel,MgAg0.97Sb0.99,350,0.000040438,,0.001814,0.00026966,0.76174,0.85941,24729.2150947129,0.00238139
71,10.1016/j.actamat.2015.01.018,4586,6(a),5855,parallel,MgAg0.97Sb0.99,350.5,0.000040407,,0.0018148,0.00026952,0.76228,0.86027,24748.1871952879,0.0023807525
71,10.1016/j.actamat.2015.01.018,4586,6(a),5855,parallel,MgAg0.97Sb0.99,351,0.000040376,,0.0018156,0.00026939,0.76281,0.86113,24767.1884287696,0.0023801471
71,10.1016/j.actamat.2015.01.018,4586,6(a),5855,parallel,MgAg0.97Sb0.99,351.5,0.000040344,,0.0018164,0.00026925,0.76334,0.862,24786.833234186,0.0023795425
71,10.1016/j.actamat.2015.01.018,4586,6(a),5855,parallel,MgAg0.97Sb0.99,352,0.000040313,,0.0018171,0.00026912,0.76388,0.86286,24805.893880386,0.0023787768
71,10.1016/j.actamat.2015.01.018,4586,6(a),5855,parallel,MgAg0.97Sb0.99,352.5,0.000040281,,0.0018179,0.00026898,0.76441,0.86373,24825.6001588838,0.002378174
71,10.1016/j.actamat.2015.01.018,4586,6(a),5855,parallel,MgAg0.97Sb0.99,353,0.000040249,,0.0018187,0.00026884,0.76495,0.86459,24845.337772367,0.002377541
71,10.1016/j.actamat.2015.01.018,4586,6(a),5855,parallel,MgAg0.97Sb0.99,353.5,0.000040218,,0.0018195,0.00026871,0.76548,0.86545,24864.4885374708,0.00237694
71,10.1016/j.actamat.2015.01.018,4586,6(a),5855,parallel,MgAg0.97Sb0.99,354,0.000040186,,0.0018202,0.00026857,0.76601,0.86632,24884.2880605186,0.0023762092
71,10.1016/j.actamat.2015.01.018,4586,6(a),5855,parallel,MgAg0.97Sb0.99,354.5,0.000040154,,0.001821,0.00026843,0.76655,0.86718,24904.119141306,0.0023755789
71,10.1016/j.actamat.2015.01.018,4586,6(a),5855,parallel,MgAg0.97Sb0.99,355,0.000040121,,0.0018218,0.0002683,0.76708,0.86805,24924.603075696,0.0023749804
71,10.1016/j.actamat.2015.01.018,4586,6(a),5855,parallel,MgAg0.97Sb0.99,355.5,0.000040089,,0.0018226,0.00026816,0.76762,0.86891,24944.4984908578,0.0023743519
71,10.1016/j.actamat.2015.01.018,4586,6(a),5855,parallel,MgAg0.97Sb0.99,356,0.000040057,,0.0018233,0.00026803,0.76815,0.86977,24964.4256933869,0.0023736249
71,10.1016/j.actamat.2015.01.018,4586,6(a),5855,parallel,MgAg0.97Sb0.99,356.5,0.000040024,,0.0018241,0.00026789,0.76868,0.87064,24985.0089946032,0.0023730291
71,10.1016/j.actamat.2015.01.018,4586,6(a),5855,parallel,MgAg0.97Sb0.99,357,0.000039991,,0.0018249,0.00026775,0.76922,0.8715,25005.6262659098,0.0023724032
71,10.1016/j.actamat.2015.01.018,4586,6(a),5855,parallel,MgAg0.97Sb0.99,357.5,0.000039959,,0.0018257,0.00026762,0.76975,0.87236,25025.6512925749,0.002371809
71,10.1016/j.actamat.2015.01.018,4586,6(a),5855,parallel,MgAg0.97Sb0.99,358,0.000039926,,0.0018264,0.00026748,0.77029,0.87323,25046.335721084,0.0023710551
71,10.1016/j.actamat.2015.01.018,4586,6(a),5855,parallel,MgAg0.97Sb0.99,358.5,0.000039893,,0.0018272,0.00026735,0.77082,0.87409,25067.0543704409,0.0023704626
71,10.1016/j.actamat.2015.01.018,4586,6(a),5855,parallel,MgAg0.97Sb0.99,359,0.00003986,,0.001828,0.00026721,0.77135,0.87496,25087.8073256397,0.002369871
71,10.1016/j.actamat.2015.01.018,4586,6(a),5855,parallel,MgAg0.97Sb0.99,359.5,0.000039827,,0.0018287,0.00026707,0.77189,0.87582,25108.5946719562,0.00236912
71,10.1016/j.actamat.2015.01.018,4586,6(a),5855,parallel,MgAg0.97Sb0.99,360,0.000039793,,0.0018295,0.00026694,0.77242,0.87668,25130.0479983917,0.0023685301
71,10.1016/j.actamat.2015.01.018,4586,6(a),5855,parallel,MgAg0.97Sb0.99,360.5,0.00003976,,0.0018303,0.0002668,0.77296,0.87755,25150.9054325956,0.0023679104
71,10.1016/j.actamat.2015.01.018,4586,6(a),5855,parallel,MgAg0.97Sb0.99,361,0.000039726,,0.0018311,0.00026666,0.77349,0.87841,25172.4311534008,0.0023673221
71,10.1016/j.actamat.2015.01.018,4586,6(a),5855,parallel,MgAg0.97Sb0.99,361.5,0.000039692,,0.0018318,0.00026653,0.77402,0.87928,25193.9937518895,0.0023666055
71,10.1016/j.actamat.2015.01.018,4586,6(a),5855,parallel,MgAg0.97Sb0.99,362,0.000039659,,0.0018326,0.00026639,0.77456,0.88014,25214.9575127966,0.0023659884
71,10.1016/j.actamat.2015.01.018,4586,6(a),5855,parallel,MgAg0.97Sb0.99,362.5,0.000039625,,0.0018334,0.00026626,0.77509,0.881,25236.5930599369,0.0023654027
71,10.1016/j.actamat.2015.01.018,4586,6(a),5855,parallel,MgAg0.97Sb0.99,363,0.000039591,,0.0018342,0.00026612,0.77562,0.88187,25258.2657674724,0.0023648178
71,10.1016/j.actamat.2015.01.018,4586,6(a),5855,parallel,MgAg0.97Sb0.99,363.5,0.000039556,,0.0018349,0.00026598,0.77616,0.88273,25280.6148245525,0.0023640744
71,10.1016/j.actamat.2015.01.018,4586,6(a),5855,parallel,MgAg0.97Sb0.99,364,0.000039522,,0.0018357,0.00026585,0.77669,0.8836,25302.3632407267,0.0023634912
71,10.1016/j.actamat.2015.01.018,4586,6(a),5855,parallel,MgAg0.97Sb0.99,364.5,0.000039488,,0.0018365,0.00026571,0.77723,0.88446,25324.14910859,0.0023628784
71,10.1016/j.actamat.2015.01.018,4586,6(a),5855,parallel,MgAg0.97Sb0.99,365,0.000039453,,0.0018373,0.00026558,0.77776,0.88532,25346.6149595721,0.0023622969
71,10.1016/j.actamat.2015.01.018,4586,6(a),5855,parallel,MgAg0.97Sb0.99,365.5,0.000039419,,0.001838,0.00026544,0.77829,0.88619,25368.4771303179,0.0023615876
71,10.1016/j.actamat.2015.01.018,4586,6(a),5855,parallel,MgAg0.97Sb0.99,366,0.000039384,,0.0018388,0.0002653,0.77883,0.88705,25391.0217347146,0.0023609774
71,10.1016/j.actamat.2015.01.018,4586,6(a),5855,parallel,MgAg0.97Sb0.99,366.5,0.000039349,,0.0018396,0.00026517,0.77936,0.88792,25413.6064448906,0.0023603983
71,10.1016/j.actamat.2015.01.018,4586,6(a),5855,parallel,MgAg0.97Sb0.99,367,0.000039314,,0.0018404,0.00026503,0.7799,0.88878,25436.2313679605,0.0023597897
71,10.1016/j.actamat.2015.01.018,4586,6(a),5855,parallel,MgAg0.97Sb0.99,367.5,0.000039279,,0.0018411,0.00026489,0.78043,0.88964,25458.8966114209,0.0023590841
71,10.1016/j.actamat.2015.01.018,4586,6(a),5855,parallel,MgAg0.97Sb0.99,368,0.000039244,,0.0018419,0.00026476,0.78096,0.89051,25481.6022831516,0.0023585075
71,10.1016/j.actamat.2015.01.018,4586,6(a),5855,parallel,MgAg0.97Sb0.99,368.5,0.000039208,,0.0018427,0.00026462,0.7815,0.89137,25504.9989798,0.0023579015
71,10.1016/j.actamat.2015.01.018,4586,6(a),5855,parallel,MgAg0.97Sb0.99,369,0.000039173,,0.0018435,0.00026449,0.78203,0.89224,25527.7869961453,0.0023573264
71,10.1016/j.actamat.2015.01.018,4586,6(a),5855,parallel,MgAg0.97Sb0.99,369.5,0.000039137,,0.0018442,0.00026435,0.78257,0.8931,25551.268620487,0.0023565943
71,10.1016/j.actamat.2015.01.018,4586,6(a),5855,parallel,MgAg0.97Sb0.99,370,0.000039102,,0.001845,0.00026421,0.7831,0.89396,25574.1394302082,0.0023560209
71,10.1016/j.actamat.2015.01.018,4586,6(a),5855,parallel,MgAg0.97Sb0.99,370.5,0.000039066,,0.0018458,0.00026408,0.78363,0.89483,25597.7064455025,0.0023554484
71,10.1016/j.actamat.2015.01.018,4586,6(a),5855,parallel,MgAg0.97Sb0.99,371,0.00003903,,0.0018465,0.00026394,0.78417,0.89569,25621.3169356905,0.002354719
71,10.1016/j.actamat.2015.01.018,4586,6(a),5855,parallel,MgAg0.97Sb0.99,371.5,0.000038994,,0.0018473,0.00026381,0.7847,0.89656,25644.9710211827,0.0023541481
71,10.1016/j.actamat.2015.01.018,4586,6(a),5855,parallel,MgAg0.97Sb0.99,372,0.000038958,,0.0018481,0.00026367,0.78524,0.89742,25668.6688228348,0.002353548
71,10.1016/j.actamat.2015.01.018,4586,6(a),5855,parallel,MgAg0.97Sb0.99,372.5,0.000038922,,0.0018489,0.00026353,0.78577,0.89828,25692.4104619495,0.0023529786
71,10.1016/j.actamat.2015.01.018,4586,6(a),5855,parallel,MgAg0.97Sb0.99,373,0.000038885,,0.0018496,0.0002634,0.7863,0.89915,25716.8574000257,0.0023522828
71,10.1016/j.actamat.2015.01.018,4586,6(a),5855,parallel,MgAg0.97Sb0.99,373.5,0.000038849,,0.0018504,0.00026326,0.78684,0.90001,25740.6883060053,0.0023516852
71,10.1016/j.actamat.2015.01.018,4586,6(a),5855,parallel,MgAg0.97Sb0.99,374,0.000038812,,0.0018512,0.00026312,0.78737,0.90088,25765.2272493043,0.0023511183
71,10.1016/j.actamat.2015.01.018,4586,6(a),5855,parallel,MgAg0.97Sb0.99,374.5,0.000038775,,0.001852,0.00026299,0.78791,0.90174,25789.8130238556,0.0023505223
71,10.1016/j.actamat.2015.01.018,4586,6(a),5855,parallel,MgAg0.97Sb0.99,375,0.000038739,,0.0018527,0.00026285,0.78844,0.9026,25813.7793954413,0.00234983
71,10.1016/j.actamat.2015.01.018,4586,6(a),5855,parallel,MgAg0.97Sb0.99,375.5,0.000038702,,0.0018535,0.00026272,0.78897,0.90347,25838.4579608289,0.0023492655
71,10.1016/j.actamat.2015.01.018,4586,6(a),5855,parallel,MgAg0.97Sb0.99,376,0.000038665,,0.0018543,0.00026258,0.78951,0.90433,25863.1837579206,0.002348672
71,10.1016/j.actamat.2015.01.018,4586,6(a),5855,parallel,MgAg0.97Sb0.99,376.5,0.000038627,,0.0018551,0.00026244,0.79004,0.9052,25888.6271261035,0.002348109
71,10.1016/j.actamat.2015.01.018,4586,6(a),5855,parallel,MgAg0.97Sb0.99,377,0.00003859,,0.0018558,0.00026231,0.79058,0.90606,25913.4490800726,0.0023473905
71,10.1016/j.actamat.2015.01.018,4586,6(a),5855,parallel,MgAg0.97Sb0.99,377.5,0.000038553,,0.0018566,0.00026217,0.79111,0.90692,25938.3186781833,0.0023468291
71,10.1016/j.actamat.2015.01.018,4586,6(a),5855,parallel,MgAg0.97Sb0.99,378,0.000038515,,0.0018574,0.00026203,0.79164,0.90779,25963.9101648708,0.0023462685
71,10.1016/j.actamat.2015.01.018,4586,6(a),5855,parallel,MgAg0.97Sb0.99,378.5,0.000038478,,0.0018582,0.0002619,0.79218,0.90865,25988.8767607464,0.002345679
71,10.1016/j.actamat.2015.01.018,4586,6(a),5855,parallel,MgAg0.97Sb0.99,379,0.00003844,,0.0018589,0.00026176,0.79271,0.90952,26014.5681581686,0.0023449938
71,10.1016/j.actamat.2015.01.018,4586,6(a),5855,parallel,MgAg0.97Sb0.99,379.5,0.000038402,,0.0018597,0.00026163,0.79325,0.91038,26040.3104005,0.0023444059
71,10.1016/j.actamat.2015.01.018,4586,6(a),5855,parallel,MgAg0.97Sb0.99,380,0.000038364,,0.0018605,0.00026149,0.79378,0.91124,26066.1036388281,0.0023438484
71,10.1016/j.actamat.2015.01.018,4586,6(a),5855,parallel,MgAg0.97Sb0.99,380.5,0.000038326,,0.0018613,0.00026135,0.79431,0.91211,26091.9480248395,0.0023432917
71,10.1016/j.actamat.2015.01.018,4586,6(a),5855,parallel,MgAg0.97Sb0.99,381,0.000038288,,0.001862,0.00026122,0.79485,0.91297,26117.8437108232,0.0023425804
71,10.1016/j.actamat.2015.01.018,4586,6(a),5855,parallel,MgAg0.97Sb0.99,381.5,0.000038249,,0.0018628,0.00026108,0.79538,0.91383,26144.4743653429,0.0023420252
71,10.1016/j.actamat.2015.01.018,4586,6(a),5855,parallel,MgAg0.97Sb0.99,382,0.000038211,,0.0018636,0.00026095,0.79592,0.9147,26170.4744707022,0.0023414414
71,10.1016/j.actamat.2015.01.018,4586,6(a),5855,parallel,MgAg0.97Sb0.99,382.5,0.000038172,,0.0018643,0.00026081,0.79645,0.91556,26197.2126165776,0.0023407621
71,10.1016/j.actamat.2015.01.018,4586,6(a),5855,parallel,MgAg0.97Sb0.99,383,0.000038133,,0.0018651,0.00026067,0.79698,0.91643,26224.0054545931,0.0023402093
71,10.1016/j.actamat.2015.01.018,4586,6(a),5855,parallel,MgAg0.97Sb0.99,383.5,0.000038095,,0.0018659,0.00026054,0.79752,0.91729,26250.1640635254,0.0023396278
71,10.1016/j.actamat.2015.01.018,4586,6(a),5855,parallel,MgAg0.97Sb0.99,384,0.000038056,,0.0018667,0.0002604,0.79805,0.91815,26277.0653773387,0.0023390765
71,10.1016/j.actamat.2015.01.018,4586,6(a),5855,parallel,MgAg0.97Sb0.99,384.5,0.000038017,,0.0018674,0.00026026,0.79858,0.91902,26304.0218849462,0.0023384007
71,10.1016/j.actamat.2015.01.018,4586,6(a),5855,parallel,MgAg0.97Sb0.99,385,0.000037977,,0.0018682,0.00026013,0.79912,0.91988,26331.7270979804,0.0023378216
71,10.1016/j.actamat.2015.01.018,4586,6(a),5855,parallel,MgAg0.97Sb0.99,385.5,0.000037938,,0.001869,0.00025999,0.79965,0.92075,26358.7959302019,0.0023372726