sid,DOI,figureid,fignum,sampleid,samplename,composition,Temperature,Electrical resistivity,Lattice thermal conductivity,Power factor,Seebeck coefficient,Thermal conductivity,ZT,Electrical conductivity,Figure of merit Z
71,10.1016/j.actamat.2015.01.018,4580,3(a),5853,MgAg0.963Cu0.007Sb0.99,MgAg0.963Cu0.007Sb0.99,537.5,0.000019404,,0.0022469,0.00021185,0.91732,1.3584,51535.7658214801,0.0024494179
71,10.1016/j.actamat.2015.01.018,4580,3(a),5853,MgAg0.963Cu0.007Sb0.99,MgAg0.963Cu0.007Sb0.99,538,0.00001938,,0.0022476,0.00021176,0.91788,1.3593,51599.5872033024,0.0024486861
71,10.1016/j.actamat.2015.01.018,4580,3(a),5853,MgAg0.963Cu0.007Sb0.99,MgAg0.963Cu0.007Sb0.99,538.5,0.000019355,,0.0022482,0.00021167,0.91845,1.3601,51666.236114699,0.0024478197
71,10.1016/j.actamat.2015.01.018,4580,3(a),5853,MgAg0.963Cu0.007Sb0.99,MgAg0.963Cu0.007Sb0.99,539,0.00001933,,0.0022488,0.00021158,0.91902,1.361,51733.0574236937,0.0024469544
71,10.1016/j.actamat.2015.01.018,4580,3(a),5853,MgAg0.963Cu0.007Sb0.99,MgAg0.963Cu0.007Sb0.99,539.5,0.000019305,,0.0022495,0.00021149,0.91959,1.3618,51800.0518000518,0.0024461988
71,10.1016/j.actamat.2015.01.018,4580,3(a),5853,MgAg0.963Cu0.007Sb0.99,MgAg0.963Cu0.007Sb0.99,540,0.000019281,,0.0022501,0.0002114,0.92016,1.3626,51864.5298480369,0.0024453356
71,10.1016/j.actamat.2015.01.018,4580,3(a),5853,MgAg0.963Cu0.007Sb0.99,MgAg0.963Cu0.007Sb0.99,540.5,0.000019256,,0.0022507,0.00021131,0.92073,1.3635,51931.8653926049,0.0024444734
71,10.1016/j.actamat.2015.01.018,4580,3(a),5853,MgAg0.963Cu0.007Sb0.99,MgAg0.963Cu0.007Sb0.99,541,0.000019231,,0.0022514,0.00021123,0.92129,1.3643,51999.3760074879,0.0024437474
71,10.1016/j.actamat.2015.01.018,4580,3(a),5853,MgAg0.963Cu0.007Sb0.99,MgAg0.963Cu0.007Sb0.99,541.5,0.000019207,,0.002252,0.00021114,0.92186,1.3652,52064.3515385016,0.0024428872
71,10.1016/j.actamat.2015.01.018,4580,3(a),5853,MgAg0.963Cu0.007Sb0.99,MgAg0.963Cu0.007Sb0.99,542,0.000019182,,0.0022526,0.00021105,0.92243,1.366,52132.2072776561,0.0024420281
71,10.1016/j.actamat.2015.01.018,4580,3(a),5853,MgAg0.963Cu0.007Sb0.99,MgAg0.963Cu0.007Sb0.99,542.5,0.000019157,,0.0022533,0.00021096,0.923,1.3669,52200.2401211046,0.0024412784
71,10.1016/j.actamat.2015.01.018,4580,3(a),5853,MgAg0.963Cu0.007Sb0.99,MgAg0.963Cu0.007Sb0.99,543,0.000019132,,0.0022539,0.00021087,0.92357,1.3677,52268.4507631194,0.0024404214
71,10.1016/j.actamat.2015.01.018,4580,3(a),5853,MgAg0.963Cu0.007Sb0.99,MgAg0.963Cu0.007Sb0.99,543.5,0.000019108,,0.0022545,0.00021078,0.92413,1.3686,52334.1009001465,0.0024395918
71,10.1016/j.actamat.2015.01.018,4580,3(a),5853,MgAg0.963Cu0.007Sb0.99,MgAg0.963Cu0.007Sb0.99,544,0.000019083,,0.0022552,0.00021069,0.9247,1.3694,52402.6620552324,0.002438845
71,10.1016/j.actamat.2015.01.018,4580,3(a),5853,MgAg0.963Cu0.007Sb0.99,MgAg0.963Cu0.007Sb0.99,544.5,0.000019058,,0.0022558,0.00021061,0.92527,1.3702,52471.4030853185,0.0024379911
71,10.1016/j.actamat.2015.01.018,4580,3(a),5853,MgAg0.963Cu0.007Sb0.99,MgAg0.963Cu0.007Sb0.99,545,0.000019034,,0.0022564,0.00021052,0.92584,1.3711,52537.5643585163,0.0024371382
71,10.1016/j.actamat.2015.01.018,4580,3(a),5853,MgAg0.963Cu0.007Sb0.99,MgAg0.963Cu0.007Sb0.99,545.5,0.000019009,,0.0022571,0.00021043,0.92641,1.3719,52606.6600031564,0.0024363943
71,10.1016/j.actamat.2015.01.018,4580,3(a),5853,MgAg0.963Cu0.007Sb0.99,MgAg0.963Cu0.007Sb0.99,546,0.000018984,,0.0022577,0.00021034,0.92698,1.3728,52675.9376316898,0.0024355434
71,10.1016/j.actamat.2015.01.018,4580,3(a),5853,MgAg0.963Cu0.007Sb0.99,MgAg0.963Cu0.007Sb0.99,546.5,0.000018959,,0.0023316,0.00021025,0.92754,1.3738,52745.3979640276,0.002513746
71,10.1016/j.actamat.2015.01.018,4580,3(a),5853,MgAg0.963Cu0.007Sb0.99,MgAg0.963Cu0.007Sb0.99,547,0.000018935,,0.0023326,0.00021016,0.92811,1.3748,52812.2524425667,0.0025132797
71,10.1016/j.actamat.2015.01.018,4581,3(b),5853,MgAg0.963Cu0.007Sb0.99,MgAg0.963Cu0.007Sb0.99,547.5,,,,0.00021008,0.92868,,,
71,10.1016/j.actamat.2015.01.018,4583,3(d),5853,MgAg0.963Cu0.007Sb0.99,MgAg0.963Cu0.007Sb0.99,298.5,,,,,0.64573,,,
71,10.1016/j.actamat.2015.01.018,4583,3(d),5853,MgAg0.963Cu0.007Sb0.99,MgAg0.963Cu0.007Sb0.99,299,,,,,0.6463,,,
71,10.1016/j.actamat.2015.01.018,4583,3(d),5853,MgAg0.963Cu0.007Sb0.99,MgAg0.963Cu0.007Sb0.99,299.5,,,,,0.64687,,,
71,10.1016/j.actamat.2015.01.018,4583,3(d),5853,MgAg0.963Cu0.007Sb0.99,MgAg0.963Cu0.007Sb0.99,300,,,,,0.64744,,,
71,10.1016/j.actamat.2015.01.018,4583,3(d),5853,MgAg0.963Cu0.007Sb0.99,MgAg0.963Cu0.007Sb0.99,300.5,,,,,0.64801,,,
71,10.1016/j.actamat.2015.01.018,4583,3(d),5853,MgAg0.963Cu0.007Sb0.99,MgAg0.963Cu0.007Sb0.99,301,,,,,0.64857,,,
71,10.1016/j.actamat.2015.01.018,4583,3(d),5853,MgAg0.963Cu0.007Sb0.99,MgAg0.963Cu0.007Sb0.99,301.5,,,,,0.64914,,,
71,10.1016/j.actamat.2015.01.018,4583,3(d),5853,MgAg0.963Cu0.007Sb0.99,MgAg0.963Cu0.007Sb0.99,302,,,,,0.64971,,,
71,10.1016/j.actamat.2015.01.018,4583,3(d),5853,MgAg0.963Cu0.007Sb0.99,MgAg0.963Cu0.007Sb0.99,302.5,,,,,0.65028,,,
71,10.1016/j.actamat.2015.01.018,4583,3(d),5853,MgAg0.963Cu0.007Sb0.99,MgAg0.963Cu0.007Sb0.99,303,,,,,0.65085,,,
71,10.1016/j.actamat.2015.01.018,4583,3(d),5853,MgAg0.963Cu0.007Sb0.99,MgAg0.963Cu0.007Sb0.99,548,,,,,0.92925,,,
71,10.1016/j.actamat.2015.01.018,4583,3(d),5853,MgAg0.963Cu0.007Sb0.99,MgAg0.963Cu0.007Sb0.99,548.5,,,,,0.92982,,,
71,10.1016/j.actamat.2015.01.018,4583,3(d),5853,MgAg0.963Cu0.007Sb0.99,MgAg0.963Cu0.007Sb0.99,549,,,,,0.93038,,,
71,10.1016/j.actamat.2015.01.018,4580,3(a),5854,MgAg0.96Cu0.01Sb0.99,MgAg0.96Cu0.01Sb0.99,303.5,0.00003907,,,,0.64392,0.87806,25595.0857435372,
71,10.1016/j.actamat.2015.01.018,4580,3(a),5854,MgAg0.96Cu0.01Sb0.99,MgAg0.96Cu0.01Sb0.99,304,0.000039031,0.54826,0.0018346,0.00027074,0.64446,0.87903,25620.6605006277,0.0028467244
71,10.1016/j.actamat.2015.01.018,4580,3(a),5854,MgAg0.96Cu0.01Sb0.99,MgAg0.96Cu0.01Sb0.99,304.5,0.000038992,0.54818,0.0018354,0.00027062,0.645,0.88001,25646.2864177267,0.0028455814
71,10.1016/j.actamat.2015.01.018,4580,3(a),5854,MgAg0.96Cu0.01Sb0.99,MgAg0.96Cu0.01Sb0.99,305,0.000038952,0.54811,0.0018363,0.00027051,0.64554,0.88098,25672.6227151366,0.0028445952
71,10.1016/j.actamat.2015.01.018,4580,3(a),5854,MgAg0.96Cu0.01Sb0.99,MgAg0.96Cu0.01Sb0.99,305.5,0.000038913,0.54804,0.0018371,0.00027039,0.64608,0.88195,25698.3527355897,0.0028434559
71,10.1016/j.actamat.2015.01.018,4580,3(a),5854,MgAg0.96Cu0.01Sb0.99,MgAg0.96Cu0.01Sb0.99,306,0.000038874,0.54796,0.0018379,0.00027028,0.64662,0.88293,25724.134382878,0.0028423185
71,10.1016/j.actamat.2015.01.018,4580,3(a),5854,MgAg0.96Cu0.01Sb0.99,MgAg0.96Cu0.01Sb0.99,306.5,0.000038834,0.54789,0.0018388,0.00027016,0.64716,0.8839,25750.6308904568,0.0028413375
71,10.1016/j.actamat.2015.01.018,4580,3(a),5854,MgAg0.96Cu0.01Sb0.99,MgAg0.96Cu0.01Sb0.99,307,0.000038795,0.54782,0.0018396,0.00027004,0.6477,0.88487,25776.5175924733,0.0028402038
71,10.1016/j.actamat.2015.01.018,4580,3(a),5854,MgAg0.96Cu0.01Sb0.99,MgAg0.96Cu0.01Sb0.99,307.5,0.000038756,0.54774,0.0018405,0.00026993,0.64824,0.88585,25802.4563938487,0.0028392262
71,10.1016/j.actamat.2015.01.018,4580,3(a),5854,MgAg0.96Cu0.01Sb0.99,MgAg0.96Cu0.01Sb0.99,308,0.000038717,0.54767,0.0018413,0.00026981,0.64878,0.88682,25828.4474520237,0.0028380961
71,10.1016/j.actamat.2015.01.018,4580,3(a),5854,MgAg0.96Cu0.01Sb0.99,MgAg0.96Cu0.01Sb0.99,308.5,0.000038677,0.5476,0.0018421,0.0002697,0.64932,0.88779,25855.1593970577,0.0028369679
71,10.1016/j.actamat.2015.01.018,4580,3(a),5854,MgAg0.96Cu0.01Sb0.99,MgAg0.96Cu0.01Sb0.99,309,0.000038638,0.54752,0.001843,0.00026958,0.64986,0.88877,25881.2567938299,0.0028359954
71,10.1016/j.actamat.2015.01.018,4580,3(a),5854,MgAg0.96Cu0.01Sb0.99,MgAg0.96Cu0.01Sb0.99,309.5,0.000038599,0.54745,0.0018438,0.00026946,0.6504,0.88974,25907.4069276406,0.0028348708
71,10.1016/j.actamat.2015.01.018,4580,3(a),5854,MgAg0.96Cu0.01Sb0.99,MgAg0.96Cu0.01Sb0.99,310,0.000038559,0.54738,0.0018446,0.00026935,0.65094,0.89072,25934.2825280739,0.0028337481
71,10.1016/j.actamat.2015.01.018,4580,3(a),5854,MgAg0.96Cu0.01Sb0.99,MgAg0.96Cu0.01Sb0.99,310.5,0.00003852,0.5473,0.0018455,0.00026923,0.65148,0.89169,25960.5399792316,0.0028327807
71,10.1016/j.actamat.2015.01.018,4580,3(a),5854,MgAg0.96Cu0.01Sb0.99,MgAg0.96Cu0.01Sb0.99,311,0.000038481,0.54723,0.0018463,0.00026911,0.65202,0.89266,25986.8506535693,0.0028316616
71,10.1016/j.actamat.2015.01.018,4580,3(a),5854,MgAg0.96Cu0.01Sb0.99,MgAg0.96Cu0.01Sb0.99,311.5,0.000038442,0.54716,0.0018471,0.000269,0.65256,0.89364,26013.2147130742,0.0028305443
71,10.1016/j.actamat.2015.01.018,4580,3(a),5854,MgAg0.96Cu0.01Sb0.99,MgAg0.96Cu0.01Sb0.99,312,0.000038402,0.54708,0.001848,0.00026888,0.6531,0.89461,26040.3104005,0.002829582
71,10.1016/j.actamat.2015.01.018,4580,3(a),5854,MgAg0.96Cu0.01Sb0.99,MgAg0.96Cu0.01Sb0.99,312.5,0.000038363,0.54701,0.0018488,0.00026877,0.65364,0.89558,26066.7830982978,0.0028284683
71,10.1016/j.actamat.2015.01.018,4580,3(a),5854,MgAg0.96Cu0.01Sb0.99,MgAg0.96Cu0.01Sb0.99,313,0.000038324,0.54694,0.0018496,0.00026865,0.65418,0.89656,26093.3096753992,0.0028273564
71,10.1016/j.actamat.2015.01.018,4580,3(a),5854,MgAg0.96Cu0.01Sb0.99,MgAg0.96Cu0.01Sb0.99,313.5,0.000038284,0.54687,0.0018505,0.00026853,0.65472,0.89753,26120.5725629506,0.0028263991
71,10.1016/j.actamat.2015.01.018,4580,3(a),5854,MgAg0.96Cu0.01Sb0.99,MgAg0.96Cu0.01Sb0.99,314,0.000038245,0.54679,0.0018513,0.00026842,0.65526,0.8985,26147.2087854622,0.0028252907
71,10.1016/j.actamat.2015.01.018,4580,3(a),5854,MgAg0.96Cu0.01Sb0.99,MgAg0.96Cu0.01Sb0.99,314.5,0.000038206,0.54672,0.0018521,0.0002683,0.6558,0.89948,26173.8993875308,0.0028241842
71,10.1016/j.actamat.2015.01.018,4580,3(a),5854,MgAg0.96Cu0.01Sb0.99,MgAg0.96Cu0.01Sb0.99,315,0.000038166,0.54665,0.001853,0.00026819,0.65634,0.90045,26201.3310276162,0.0028232319
71,10.1016/j.actamat.2015.01.018,4580,3(a),5854,MgAg0.96Cu0.01Sb0.99,MgAg0.96Cu0.01Sb0.99,315.5,0.000038127,0.54657,0.0018538,0.00026807,0.65688,0.90142,26228.1322946993,0.0028221289
71,10.1016/j.actamat.2015.01.018,4580,3(a),5854,MgAg0.96Cu0.01Sb0.99,MgAg0.96Cu0.01Sb0.99,316,0.000038088,0.5465,0.0018547,0.00026795,0.65742,0.9024,26254.9884478051,0.0028211798
71,10.1016/j.actamat.2015.01.018,4580,3(a),5854,MgAg0.96Cu0.01Sb0.99,MgAg0.96Cu0.01Sb0.99,316.5,0.000038049,0.54643,0.0018555,0.00026784,0.65796,0.90337,26281.8996557071,0.0028200802
71,10.1016/j.actamat.2015.01.018,4580,3(a),5854,MgAg0.96Cu0.01Sb0.99,MgAg0.96Cu0.01Sb0.99,317,0.000038009,0.54635,0.0018563,0.00026772,0.6585,0.90435,26309.5582625168,0.0028189825
71,10.1016/j.actamat.2015.01.018,4580,3(a),5854,MgAg0.96Cu0.01Sb0.99,MgAg0.96Cu0.01Sb0.99,317.5,0.00003797,0.54628,0.0018572,0.00026761,0.65904,0.90532,26336.5815117198,0.0028180384
71,10.1016/j.actamat.2015.01.018,4580,3(a),5854,MgAg0.96Cu0.01Sb0.99,MgAg0.96Cu0.01Sb0.99,318,0.000037931,0.54621,0.001858,0.00026749,0.65958,0.90629,26363.6603306003,0.0028169441
71,10.1016/j.actamat.2015.01.018,4580,3(a),5854,MgAg0.96Cu0.01Sb0.99,MgAg0.96Cu0.01Sb0.99,318.5,0.000037891,0.54613,0.0018588,0.00026737,0.66012,0.90727,26391.4913831781,0.0028158517
71,10.1016/j.actamat.2015.01.018,4580,3(a),5854,MgAg0.96Cu0.01Sb0.99,MgAg0.96Cu0.01Sb0.99,319,0.000037852,0.54606,0.0018597,0.00026726,0.66066,0.90824,26418.6832928247,0.0028149124
71,10.1016/j.actamat.2015.01.018,4580,3(a),5854,MgAg0.96Cu0.01Sb0.99,MgAg0.96Cu0.01Sb0.99,319.5,0.000037813,0.54599,0.0018605,0.00026714,0.6612,0.90921,26445.9312934705,0.0028138234
71,10.1016/j.actamat.2015.01.018,4580,3(a),5854,MgAg0.96Cu0.01Sb0.99,MgAg0.96Cu0.01Sb0.99,320,0.000037774,0.54591,0.0018613,0.00026703,0.66174,0.91019,26473.23555885,0.0028127361
71,10.1016/j.actamat.2015.01.018,4580,3(a),5854,MgAg0.96Cu0.01Sb0.99,MgAg0.96Cu0.01Sb0.99,320.5,0.000037734,0.54584,0.0018622,0.00026691,0.66228,0.91116,26501.2985636296,0.0028118017
71,10.1016/j.actamat.2015.01.018,4580,3(a),5854,MgAg0.96Cu0.01Sb0.99,MgAg0.96Cu0.01Sb0.99,321,0.000037695,0.54577,0.001863,0.00026679,0.66282,0.91213,26528.7173365168,0.0028107178
71,10.1016/j.actamat.2015.01.018,4580,3(a),5854,MgAg0.96Cu0.01Sb0.99,MgAg0.96Cu0.01Sb0.99,321.5,0.000037656,0.54569,0.0018638,0.00026668,0.66336,0.91311,26556.1929041853,0.0028096358
71,10.1016/j.actamat.2015.01.018,4580,3(a),5854,MgAg0.96Cu0.01Sb0.99,MgAg0.96Cu0.01Sb0.99,322,0.000037616,0.54562,0.0018647,0.00026656,0.6639,0.91408,26584.4321565291,0.0028087061
71,10.1016/j.actamat.2015.01.018,4580,3(a),5854,MgAg0.96Cu0.01Sb0.99,MgAg0.96Cu0.01Sb0.99,322.5,0.000037577,0.54555,0.0018655,0.00026645,0.66444,0.91505,26612.0233121324,0.0028076275
71,10.1016/j.actamat.2015.01.018,4580,3(a),5854,MgAg0.96Cu0.01Sb0.99,MgAg0.96Cu0.01Sb0.99,323,0.000037538,0.54547,0.0018664,0.00026633,0.66498,0.91603,26639.6717992434,0.002806701
71,10.1016/j.actamat.2015.01.018,4580,3(a),5854,MgAg0.96Cu0.01Sb0.99,MgAg0.96Cu0.01Sb0.99,323.5,0.000037499,0.5454,0.0018672,0.00026621,0.66552,0.917,26667.3777967412,0.0028056257
71,10.1016/j.actamat.2015.01.018,4580,3(a),5854,MgAg0.96Cu0.01Sb0.99,MgAg0.96Cu0.01Sb0.99,324,0.000037459,0.54533,0.001868,0.0002661,0.66606,0.91797,26695.854133853,0.0028045521
71,10.1016/j.actamat.2015.01.018,4580,3(a),5854,MgAg0.96Cu0.01Sb0.99,MgAg0.96Cu0.01Sb0.99,324.5,0.00003742,0.54525,0.0018689,0.00026598,0.6666,0.91895,26723.6771779797,0.0028036304
71,10.1016/j.actamat.2015.01.018,4580,3(a),5854,MgAg0.96Cu0.01Sb0.99,MgAg0.96Cu0.01Sb0.99,325,0.000037381,0.54518,0.0018697,0.00026587,0.66714,0.91992,26751.5582782697,0.0028025602
71,10.1016/j.actamat.2015.01.018,4580,3(a),5854,MgAg0.96Cu0.01Sb0.99,MgAg0.96Cu0.01Sb0.99,325.5,0.000037341,0.54511,0.0018705,0.00026575,0.66768,0.9209,26780.2147773225,0.0028014917
71,10.1016/j.actamat.2015.01.018,4580,3(a),5854,MgAg0.96Cu0.01Sb0.99,MgAg0.96Cu0.01Sb0.99,326,0.000037302,0.54503,0.0018714,0.00026563,0.66822,0.92187,26808.2140367809,0.0028005747
71,10.1016/j.actamat.2015.01.018,4580,3(a),5854,MgAg0.96Cu0.01Sb0.99,MgAg0.96Cu0.01Sb0.99,326.5,0.000037263,0.54496,0.0018722,0.00026552,0.66876,0.92284,26836.2719051069,0.0027995095
71,10.1016/j.actamat.2015.01.018,4580,3(a),5854,MgAg0.96Cu0.01Sb0.99,MgAg0.96Cu0.01Sb0.99,327,0.000037224,0.54489,0.001873,0.0002654,0.6693,0.92382,26864.3885665162,0.0027984461
71,10.1016/j.actamat.2015.01.018,4580,3(a),5854,MgAg0.96Cu0.01Sb0.99,MgAg0.96Cu0.01Sb0.99,327.5,0.000037184,0.54482,0.0018739,0.00026529,0.66984,0.92479,26893.2874354561,0.0027975337
71,10.1016/j.actamat.2015.01.018,4580,3(a),5854,MgAg0.96Cu0.01Sb0.99,MgAg0.96Cu0.01Sb0.99,328,0.000037145,0.54474,0.0018747,0.00026517,0.67038,0.92576,26921.5237582447,0.0027964736
71,10.1016/j.actamat.2015.01.018,4580,3(a),5854,MgAg0.96Cu0.01Sb0.99,MgAg0.96Cu0.01Sb0.99,328.5,0.000037106,0.54467,0.0018755,0.00026505,0.67092,0.92674,26949.8194362098,0.0027954153
71,10.1016/j.actamat.2015.01.018,4580,3(a),5854,MgAg0.96Cu0.01Sb0.99,MgAg0.96Cu0.01Sb0.99,329,0.000037066,0.5446,0.0018764,0.00026494,0.67146,0.92771,26978.9024982464,0.0027945075
71,10.1016/j.actamat.2015.01.018,4580,3(a),5854,MgAg0.96Cu0.01Sb0.99,MgAg0.96Cu0.01Sb0.99,329.5,0.000037027,0.54452,0.0018772,0.00026482,0.672,0.92868,27007.3189834445,0.0027934524
71,10.1016/j.actamat.2015.01.018,4580,3(a),5854,MgAg0.96Cu0.01Sb0.99,MgAg0.96Cu0.01Sb0.99,330,0.000036988,0.54445,0.001878,0.0002647,0.67254,0.92966,27035.7953931005,0.002792399
71,10.1016/j.actamat.2015.01.018,4580,3(a),5854,MgAg0.96Cu0.01Sb0.99,MgAg0.96Cu0.01Sb0.99,330.5,0.000036949,0.54438,0.0018789,0.00026459,0.67308,0.93063,27064.3319169666,0.0027914958
71,10.1016/j.actamat.2015.01.018,4580,3(a),5854,MgAg0.96Cu0.01Sb0.99,MgAg0.96Cu0.01Sb0.99,331,0.000036909,0.5443,0.0018797,0.00026447,0.67362,0.9316,27093.6627922729,0.0027904457
71,10.1016/j.actamat.2015.01.018,4580,3(a),5854,MgAg0.96Cu0.01Sb0.99,MgAg0.96Cu0.01Sb0.99,331.5,0.00003687,0.54423,0.0018806,0.00026436,0.67416,0.93258,27122.321670735,0.0027895455
71,10.1016/j.actamat.2015.01.018,4580,3(a),5854,MgAg0.96Cu0.01Sb0.99,MgAg0.96Cu0.01Sb0.99,332,0.000036831,0.54416,0.0018814,0.00026424,0.67471,0.93355,27151.0412424316,0.0027884573
71,10.1016/j.actamat.2015.01.018,4580,3(a),5854,MgAg0.96Cu0.01Sb0.99,MgAg0.96Cu0.01Sb0.99,332.5,0.000036791,0.54408,0.0018822,0.00026412,0.67525,0.93453,27180.5604631568,0.0027874121
71,10.1016/j.actamat.2015.01.018,4580,3(a),5854,MgAg0.96Cu0.01Sb0.99,MgAg0.96Cu0.01Sb0.99,333,0.000036752,0.54401,0.0018831,0.00026401,0.67579,0.9355,27209.4035698737,0.0027865165
71,10.1016/j.actamat.2015.01.018,4580,3(a),5854,MgAg0.96Cu0.01Sb0.99,MgAg0.96Cu0.01Sb0.99,333.5,0.000036713,0.54394,0.0018839,0.00026389,0.67633,0.93647,27238.3079563098,0.0027854745
71,10.1016/j.actamat.2015.01.018,4580,3(a),5854,MgAg0.96Cu0.01Sb0.99,MgAg0.96Cu0.01Sb0.99,334,0.000036674,0.54386,0.0018847,0.00026378,0.67687,0.93745,27267.2738179637,0.0027844342
71,10.1016/j.actamat.2015.01.018,4580,3(a),5854,MgAg0.96Cu0.01Sb0.99,MgAg0.96Cu0.01Sb0.99,334.5,0.000036634,0.54379,0.0018856,0.00026366,0.67741,0.93842,27297.0464595731,0.0027835432
71,10.1016/j.actamat.2015.01.018,4580,3(a),5854,MgAg0.96Cu0.01Sb0.99,MgAg0.96Cu0.01Sb0.99,335,0.000036595,0.54372,0.0018864,0.00026354,0.67795,0.93939,27326.1374504714,0.0027825061
71,10.1016/j.actamat.2015.01.018,4580,3(a),5854,MgAg0.96Cu0.01Sb0.99,MgAg0.96Cu0.01Sb0.99,335.5,0.000036556,0.54364,0.0018872,0.00026343,0.67849,0.94037,27355.2905131852,0.0027814706
71,10.1016/j.actamat.2015.01.018,4580,3(a),5854,MgAg0.96Cu0.01Sb0.99,MgAg0.96Cu0.01Sb0.99,336,0.000036516,0.54357,0.0018881,0.00026331,0.67903,0.94134,27385.255778289,0.0027805841
71,10.1016/j.actamat.2015.01.018,4580,3(a),5854,MgAg0.96Cu0.01Sb0.99,MgAg0.96Cu0.01Sb0.99,336.5,0.000036477,0.5435,0.0018889,0.0002632,0.67957,0.94231,27414.5351865559,0.0027795518
71,10.1016/j.actamat.2015.01.018,4580,3(a),5854,MgAg0.96Cu0.01Sb0.99,MgAg0.96Cu0.01Sb0.99,337,0.000036438,0.54342,0.0018897,0.00026308,0.68011,0.94329,27443.8772709808,0.0027785211
71,10.1016/j.actamat.2015.01.018,4580,3(a),5854,MgAg0.96Cu0.01Sb0.99,MgAg0.96Cu0.01Sb0.99,337.5,0.000036399,0.54335,0.0018906,0.00026296,0.68065,0.94426,27473.2822330284,0.002777639
71,10.1016/j.actamat.2015.01.018,4580,3(a),5854,MgAg0.96Cu0.01Sb0.99,MgAg0.96Cu0.01Sb0.99,338,0.000036359,0.54328,0.0018914,0.00026285,0.68119,0.94523,27503.5066971039,0.0027766115
71,10.1016/j.actamat.2015.01.018,4580,3(a),5854,MgAg0.96Cu0.01Sb0.99,MgAg0.96Cu0.01Sb0.99,338.5,0.00003632,0.5432,0.0018923,0.00026273,0.68173,0.94621,27533.0396475771,0.0027757323
71,10.1016/j.actamat.2015.01.018,4580,3(a),5854,MgAg0.96Cu0.01Sb0.99,MgAg0.96Cu0.01Sb0.99,339,0.000036281,0.54313,0.0018931,0.00026262,0.68227,0.94718,27562.6360905157,0.002774708
71,10.1016/j.actamat.2015.01.018,4580,3(a),5854,MgAg0.96Cu0.01Sb0.99,MgAg0.96Cu0.01Sb0.99,339.5,0.000036241,0.54306,0.0018939,0.0002625,0.68281,0.94816,27593.0575867112,0.0027736852
71,10.1016/j.actamat.2015.01.018,4580,3(a),5854,MgAg0.96Cu0.01Sb0.99,MgAg0.96Cu0.01Sb0.99,340,0.000036202,0.54298,0.0018948,0.00026238,0.68335,0.94913,27622.7832716424,0.0027728104
71,10.1016/j.actamat.2015.01.018,4580,3(a),5854,MgAg0.96Cu0.01Sb0.99,MgAg0.96Cu0.01Sb0.99,340.5,0.000036163,0.54291,0.0018956,0.00026227,0.68389,0.9501,27652.5730719243,0.0027717908
71,10.1016/j.actamat.2015.01.018,4580,3(a),5854,MgAg0.96Cu0.01Sb0.99,MgAg0.96Cu0.01Sb0.99,341,0.000036123,0.54284,0.0018964,0.00026215,0.68443,0.95108,27683.193533206,0.0027707728
71,10.1016/j.actamat.2015.01.018,4580,3(a),5854,MgAg0.96Cu0.01Sb0.99,MgAg0.96Cu0.01Sb0.99,341.5,0.000036084,0.54277,0.0018973,0.00026204,0.68497,0.95205,27713.1138454717,0.0027699023
71,10.1016/j.actamat.2015.01.018,4580,3(a),5854,MgAg0.96Cu0.01Sb0.99,MgAg0.96Cu0.01Sb0.99,342,0.000036045,0.54269,0.0018981,0.00026192,0.68551,0.95302,27743.0989041476,0.0027688874
71,10.1016/j.actamat.2015.01.018,4580,3(a),5854,MgAg0.96Cu0.01Sb0.99,MgAg0.96Cu0.01Sb0.99,342.5,0.000036006,0.54262,0.0018989,0.0002618,0.68605,0.954,27773.1489196245,0.0027678741
71,10.1016/j.actamat.2015.01.018,4580,3(a),5854,MgAg0.96Cu0.01Sb0.99,MgAg0.96Cu0.01Sb0.99,343,0.000035966,0.54255,0.0018998,0.00026169,0.68659,0.95497,27804.0371461936,0.002767008