sid,DOI,figureid,fignum,sampleid,samplename,composition,Temperature,Electrical resistivity,Lattice thermal conductivity,Power factor,Seebeck coefficient,Thermal conductivity,ZT,Electrical conductivity,Figure of merit Z
71,10.1016/j.actamat.2015.01.018,4586,6(a),5856,perpendicular,MgAg0.97Sb0.99,387.5,0.000037971,,0.0018571,0.0002489,0.78409,0.88984,26335.887914461,0.0023684781
71,10.1016/j.actamat.2015.01.018,4586,6(a),5856,perpendicular,MgAg0.97Sb0.99,388,0.000037936,,0.0018577,0.00024882,0.78467,0.89067,26360.1855757065,0.0023674921
71,10.1016/j.actamat.2015.01.018,4586,6(a),5856,perpendicular,MgAg0.97Sb0.99,388.5,0.000037901,,0.0018583,0.00024873,0.78524,0.8915,26384.5281127147,0.0023665376
71,10.1016/j.actamat.2015.01.018,4586,6(a),5856,perpendicular,MgAg0.97Sb0.99,389,0.000037865,,0.0018589,0.00024865,0.78582,0.89233,26409.6130991681,0.0023655545
71,10.1016/j.actamat.2015.01.018,4586,6(a),5856,perpendicular,MgAg0.97Sb0.99,389.5,0.000037829,,0.0018596,0.00024857,0.78639,0.89316,26434.7458299188,0.00236473
71,10.1016/j.actamat.2015.01.018,4586,6(a),5856,perpendicular,MgAg0.97Sb0.99,390,0.000037792,,0.0018602,0.00024848,0.78697,0.89399,26460.6265876376,0.0023637496
71,10.1016/j.actamat.2015.01.018,4586,6(a),5856,perpendicular,MgAg0.97Sb0.99,390.5,0.000037754,,0.0018608,0.0002484,0.78754,0.89483,26487.2596281189,0.0023628006
71,10.1016/j.actamat.2015.01.018,4586,6(a),5856,perpendicular,MgAg0.97Sb0.99,391,0.000037716,,0.0018614,0.00024831,0.78812,0.89566,26513.9463357726,0.0023618231
71,10.1016/j.actamat.2015.01.018,4586,6(a),5856,perpendicular,MgAg0.97Sb0.99,391.5,0.000037677,,0.0018621,0.00024823,0.78869,0.89649,26541.3912997319,0.0023610037
71,10.1016/j.actamat.2015.01.018,4586,6(a),5856,perpendicular,MgAg0.97Sb0.99,392,0.000037638,,0.0018627,0.00024815,0.78927,0.89732,26568.8931399118,0.0023600289
71,10.1016/j.actamat.2015.01.018,4586,6(a),5856,perpendicular,MgAg0.97Sb0.99,392.5,0.000037598,,0.0018633,0.00024806,0.78984,0.89815,26597.1594233736,0.0023590854
71,10.1016/j.actamat.2015.01.018,4586,6(a),5856,perpendicular,MgAg0.97Sb0.99,393,0.000037558,,0.001864,0.00024798,0.79042,0.89898,26625.4859151179,0.0023582399
71,10.1016/j.actamat.2015.01.018,4586,6(a),5856,perpendicular,MgAg0.97Sb0.99,393.5,0.000037517,,0.0018646,0.00024789,0.79099,0.89981,26654.5832555908,0.0023572991
71,10.1016/j.actamat.2015.01.018,4586,6(a),5856,perpendicular,MgAg0.97Sb0.99,394,0.000037476,,0.0018652,0.00024781,0.79157,0.90065,26683.744262995,0.0023563298
71,10.1016/j.actamat.2015.01.018,4586,6(a),5856,perpendicular,MgAg0.97Sb0.99,394.5,0.000037434,,0.0018658,0.00024773,0.79214,0.90148,26713.6827483037,0.0023553917
71,10.1016/j.actamat.2015.01.018,4586,6(a),5856,perpendicular,MgAg0.97Sb0.99,395,0.000037391,,0.0018665,0.00024764,0.79272,0.90231,26744.4037335188,0.0023545514
71,10.1016/j.actamat.2015.01.018,4586,6(a),5856,perpendicular,MgAg0.97Sb0.99,395.5,0.000037348,,0.0018671,0.00024756,0.79329,0.90314,26775.1954589268,0.002353616
71,10.1016/j.actamat.2015.01.018,4586,6(a),5856,perpendicular,MgAg0.97Sb0.99,396,0.000037305,,0.0018677,0.00024748,0.79387,0.90397,26806.0581691462,0.0023526522
71,10.1016/j.actamat.2015.01.018,4586,6(a),5856,perpendicular,MgAg0.97Sb0.99,396.5,0.000037261,,0.0018683,0.00024739,0.79444,0.9048,26837.712353399,0.0023517195
71,10.1016/j.actamat.2015.01.018,4586,6(a),5856,perpendicular,MgAg0.97Sb0.99,397,0.000037216,,0.001869,0.00024731,0.79502,0.90563,26870.1633705933,0.0023508843
71,10.1016/j.actamat.2015.01.018,4586,6(a),5856,perpendicular,MgAg0.97Sb0.99,397.5,0.000037171,,0.0018696,0.00024722,0.79559,0.90647,26902.6929595653,0.0023499541
71,10.1016/j.actamat.2015.01.018,4586,6(a),5856,perpendicular,MgAg0.97Sb0.99,398,0.000037126,,0.0018702,0.00024714,0.79617,0.9073,26935.3014060227,0.0023489958
71,10.1016/j.actamat.2015.01.018,4586,6(a),5856,perpendicular,MgAg0.97Sb0.99,398.5,0.00003708,,0.0018708,0.00024706,0.79674,0.90813,26968.7162891046,0.0023480684
71,10.1016/j.actamat.2015.01.018,4586,6(a),5856,perpendicular,MgAg0.97Sb0.99,399,0.000037033,,0.0018715,0.00024697,0.79732,0.90896,27002.943320822,0.0023472382
71,10.1016/j.actamat.2015.01.018,4586,6(a),5856,perpendicular,MgAg0.97Sb0.99,399.5,0.000036986,,0.0018721,0.00024689,0.79789,0.90979,27037.2573406154,0.0023463134
71,10.1016/j.actamat.2015.01.018,4586,6(a),5856,perpendicular,MgAg0.97Sb0.99,400,0.000036939,,0.0018727,0.0002468,0.79847,0.91062,27071.6586805274,0.0023453605
71,10.1016/j.actamat.2015.01.018,4586,6(a),5856,perpendicular,MgAg0.97Sb0.99,400.5,0.000036891,,0.0018734,0.00024672,0.79904,0.91145,27106.8824374509,0.0023445635
71,10.1016/j.actamat.2015.01.018,4586,6(a),5856,perpendicular,MgAg0.97Sb0.99,401,0.000036843,,0.001874,0.00024664,0.79962,0.91228,27142.197975192,0.0023436132
71,10.1016/j.actamat.2015.01.018,4586,6(a),5856,perpendicular,MgAg0.97Sb0.99,401.5,0.000036794,,0.0018746,0.00024655,0.80019,0.91312,27178.3442952655,0.0023426936
71,10.1016/j.actamat.2015.01.018,4586,6(a),5856,perpendicular,MgAg0.97Sb0.99,402,0.000036745,,0.0018752,0.00024647,0.80077,0.91395,27214.587018642,0.0023417461
71,10.1016/j.actamat.2015.01.018,4586,6(a),5856,perpendicular,MgAg0.97Sb0.99,402.5,0.000036695,,0.0018759,0.00024638,0.80134,0.91478,27251.6691647363,0.0023409539
71,10.1016/j.actamat.2015.01.018,4586,6(a),5856,perpendicular,MgAg0.97Sb0.99,403,0.000036645,,0.0018765,0.0002463,0.80192,0.91561,27288.8525037522,0.002340009
71,10.1016/j.actamat.2015.01.018,4586,6(a),5856,perpendicular,MgAg0.97Sb0.99,403.5,0.000036594,,0.0018771,0.00024622,0.80249,0.91644,27326.8841886648,0.0023390946
71,10.1016/j.actamat.2015.01.018,4586,6(a),5856,perpendicular,MgAg0.97Sb0.99,404,0.000036543,,0.0018777,0.00024613,0.80307,0.91727,27365.0220288427,0.0023381523
71,10.1016/j.actamat.2015.01.018,4586,6(a),5856,perpendicular,MgAg0.97Sb0.99,404.5,0.000036491,,0.0018784,0.00024605,0.80364,0.9181,27404.0174289551,0.002337365
71,10.1016/j.actamat.2015.01.018,4586,6(a),5856,perpendicular,MgAg0.97Sb0.99,405,0.00003644,,0.001879,0.00024597,0.80422,0.91894,27442.3710208562,0.0023364254
71,10.1016/j.actamat.2015.01.018,4586,6(a),5856,perpendicular,MgAg0.97Sb0.99,405.5,0.000036387,,0.0018796,0.00024588,0.80479,0.91977,27482.3425948828,0.0023355161
71,10.1016/j.actamat.2015.01.018,4586,6(a),5856,perpendicular,MgAg0.97Sb0.99,406,0.000036334,,0.0018802,0.0002458,0.80537,0.9206,27522.4307810866,0.0023345791
71,10.1016/j.actamat.2015.01.018,4586,6(a),5856,perpendicular,MgAg0.97Sb0.99,406.5,0.000036281,,0.0018809,0.00024571,0.80594,0.92143,27562.6360905157,0.0023337966
71,10.1016/j.actamat.2015.01.018,4586,6(a),5856,perpendicular,MgAg0.97Sb0.99,407,0.000036228,,0.0018815,0.00024563,0.80652,0.92226,27602.9590372088,0.0023328622
71,10.1016/j.actamat.2015.01.018,4586,6(a),5856,perpendicular,MgAg0.97Sb0.99,407.5,0.000036174,,0.0018821,0.00024555,0.80709,0.92309,27644.1643169127,0.002331958
71,10.1016/j.actamat.2015.01.018,4586,6(a),5856,perpendicular,MgAg0.97Sb0.99,408,0.000036119,,0.0018828,0.00024546,0.80767,0.92392,27686.2593095047,0.0023311501
71,10.1016/j.actamat.2015.01.018,4586,6(a),5856,perpendicular,MgAg0.97Sb0.99,408.5,0.000036065,,0.0018834,0.00024538,0.80824,0.92475,27727.7138499931,0.0023302484
71,10.1016/j.actamat.2015.01.018,4586,6(a),5856,perpendicular,MgAg0.97Sb0.99,409,0.000036009,,0.001884,0.00024529,0.80882,0.92559,27770.8350690105,0.0023293193
71,10.1016/j.actamat.2015.01.018,4586,6(a),5856,perpendicular,MgAg0.97Sb0.99,409.5,0.000035954,,0.0018846,0.00024521,0.80939,0.92642,27813.3170161873,0.0023284202
71,10.1016/j.actamat.2015.01.018,4586,6(a),5856,perpendicular,MgAg0.97Sb0.99,410,0.000035898,,0.0018853,0.00024513,0.80997,0.92725,27856.7051089197,0.0023276171
71,10.1016/j.actamat.2015.01.018,4586,6(a),5856,perpendicular,MgAg0.97Sb0.99,410.5,0.000035842,,0.0018859,0.00024504,0.81054,0.92808,27900.228781876,0.0023267205
71,10.1016/j.actamat.2015.01.018,4586,6(a),5856,perpendicular,MgAg0.97Sb0.99,411,0.000035785,,0.0018865,0.00024496,0.81112,0.92891,27944.6695542825,0.0023257964
71,10.1016/j.actamat.2015.01.018,4586,6(a),5856,perpendicular,MgAg0.97Sb0.99,411.5,0.000035728,,0.0018871,0.00024487,0.81169,0.92974,27989.2521271832,0.0023249024
71,10.1016/j.actamat.2015.01.018,4586,6(a),5856,perpendicular,MgAg0.97Sb0.99,412,0.00003567,,0.0018878,0.00024479,0.81227,0.93057,28034.7631062518,0.0023241041
71,10.1016/j.actamat.2015.01.018,4586,6(a),5856,perpendicular,MgAg0.97Sb0.99,412.5,0.000035613,,0.0018884,0.00024471,0.81284,0.93141,28079.6338415747,0.0023232124
71,10.1016/j.actamat.2015.01.018,4586,6(a),5856,perpendicular,MgAg0.97Sb0.99,413,0.000035555,,0.001889,0.00024462,0.81342,0.93224,28125.4394599916,0.0023222935
71,10.1016/j.actamat.2015.01.018,4586,6(a),5856,perpendicular,MgAg0.97Sb0.99,413.5,0.000035496,,0.0018896,0.00024454,0.81399,0.93307,28172.1884155961,0.0023214044
71,10.1016/j.actamat.2015.01.018,4586,6(a),5856,perpendicular,MgAg0.97Sb0.99,414,0.000035437,,0.0018903,0.00024446,0.81457,0.9339,28219.0930383497,0.0023206109
71,10.1016/j.actamat.2015.01.018,4586,6(a),5856,perpendicular,MgAg0.97Sb0.99,414.5,0.000035378,,0.0018909,0.00024437,0.81514,0.93473,28266.1541070722,0.0023197242
71,10.1016/j.actamat.2015.01.018,4586,6(a),5856,perpendicular,MgAg0.97Sb0.99,415,0.000035319,,0.0018915,0.00024429,0.81572,0.93556,28313.3724057873,0.0023188104
71,10.1016/j.actamat.2015.01.018,4586,6(a),5856,perpendicular,MgAg0.97Sb0.99,415.5,0.000035259,,0.0018921,0.0002442,0.81629,0.93639,28361.5530786466,0.0023179262
71,10.1016/j.actamat.2015.01.018,4586,6(a),5856,perpendicular,MgAg0.97Sb0.99,416,0.000035199,,0.0018928,0.00024412,0.81686,0.93722,28409.8980084661,0.0023171657
71,10.1016/j.actamat.2015.01.018,4586,6(a),5856,perpendicular,MgAg0.97Sb0.99,416.5,0.000035138,,0.0018934,0.00024404,0.81744,0.93806,28459.217940691,0.0023162556
71,10.1016/j.actamat.2015.01.018,4586,6(a),5856,perpendicular,MgAg0.97Sb0.99,417,0.000035077,,0.001894,0.00024395,0.81801,0.93889,28508.709410725,0.0023153751
71,10.1016/j.actamat.2015.01.018,4586,6(a),5856,perpendicular,MgAg0.97Sb0.99,417.5,0.000035016,,0.0018947,0.00024387,0.81859,0.93972,28558.373315056,0.0023145897
71,10.1016/j.actamat.2015.01.018,4586,6(a),5856,perpendicular,MgAg0.97Sb0.99,418,0.000034955,,0.0018953,0.00024378,0.81916,0.94055,28608.2105564297,0.0023137116
71,10.1016/j.actamat.2015.01.018,4586,6(a),5856,perpendicular,MgAg0.97Sb0.99,418.5,0.000034893,,0.0018959,0.0002437,0.81974,0.94138,28659.0433611326,0.0023128065
71,10.1016/j.actamat.2015.01.018,4586,6(a),5856,perpendicular,MgAg0.97Sb0.99,419,0.000034831,,0.0018965,0.00024362,0.82031,0.94221,28710.0571330137,0.0023119309
71,10.1016/j.actamat.2015.01.018,4586,6(a),5856,perpendicular,MgAg0.97Sb0.99,419.5,0.000034769,,0.0018972,0.00024353,0.82089,0.94304,28761.2528401737,0.0023111501
71,10.1016/j.actamat.2015.01.018,4586,6(a),5856,perpendicular,MgAg0.97Sb0.99,420,0.000034706,,0.0018978,0.00024345,0.82146,0.94388,28813.4616492825,0.0023102768
71,10.1016/j.actamat.2015.01.018,4586,6(a),5856,perpendicular,MgAg0.97Sb0.99,420.5,0.000034644,,0.0018984,0.00024337,0.82204,0.94471,28865.0271331255,0.0023093767
71,10.1016/j.actamat.2015.01.018,4586,6(a),5856,perpendicular,MgAg0.97Sb0.99,421,0.000034581,,0.001899,0.00024328,0.82261,0.94554,28917.6137185159,0.0023085059
71,10.1016/j.actamat.2015.01.018,4586,6(a),5856,perpendicular,MgAg0.97Sb0.99,421.5,0.000034517,,0.0018997,0.0002432,0.82319,0.94637,28971.2315670539,0.0023077297
71,10.1016/j.actamat.2015.01.018,4586,6(a),5856,perpendicular,MgAg0.97Sb0.99,422,0.000034453,,0.0019003,0.00024311,0.82376,0.9472,29025.0486169564,0.0023068612
71,10.1016/j.actamat.2015.01.018,4586,6(a),5856,perpendicular,MgAg0.97Sb0.99,422.5,0.00003439,,0.0019009,0.00024303,0.82434,0.94803,29078.2204129107,0.002305966
71,10.1016/j.actamat.2015.01.018,4586,6(a),5856,perpendicular,MgAg0.97Sb0.99,423,0.000034325,,0.0019015,0.00024295,0.82491,0.94886,29133.2847778587,0.0023051
71,10.1016/j.actamat.2015.01.018,4586,6(a),5856,perpendicular,MgAg0.97Sb0.99,423.5,0.000034261,,0.0019022,0.00024286,0.82549,0.9497,29187.7061381746,0.0023043283
71,10.1016/j.actamat.2015.01.018,4586,6(a),5856,perpendicular,MgAg0.97Sb0.99,424,0.000034196,,0.0019028,0.00024278,0.82606,0.95053,29243.1863375833,0.0023034646
71,10.1016/j.actamat.2015.01.018,4586,6(a),5856,perpendicular,MgAg0.97Sb0.99,424.5,0.000034131,,0.0019034,0.00024269,0.82664,0.95136,29298.8778529782,0.0023025743
71,10.1016/j.actamat.2015.01.018,4586,6(a),5856,perpendicular,MgAg0.97Sb0.99,425,0.000034066,,0.0019041,0.00024261,0.82721,0.95219,29354.7818939705,0.0023018339
71,10.1016/j.actamat.2015.01.018,4586,6(a),5856,perpendicular,MgAg0.97Sb0.99,425.5,0.000034001,,0.0019047,0.00024253,0.82779,0.95302,29410.8996794212,0.0023009459
71,10.1016/j.actamat.2015.01.018,4586,6(a),5856,perpendicular,MgAg0.97Sb0.99,426,0.000033935,,0.0019053,0.00024244,0.82836,0.95385,29468.1007809047,0.0023000869
71,10.1016/j.actamat.2015.01.018,4586,6(a),5856,perpendicular,MgAg0.97Sb0.99,426.5,0.000033869,,0.0019059,0.00024236,0.82894,0.95468,29525.5248162036,0.0022992014
71,10.1016/j.actamat.2015.01.018,4586,6(a),5856,perpendicular,MgAg0.97Sb0.99,427,0.000033803,,0.0019066,0.00024227,0.82951,0.95551,29583.1730911458,0.0022984654
71,10.1016/j.actamat.2015.01.018,4586,6(a),5856,perpendicular,MgAg0.97Sb0.99,427.5,0.000033737,,0.0019072,0.00024219,0.83009,0.95635,29641.0469217773,0.0022975822
71,10.1016/j.actamat.2015.01.018,4586,6(a),5856,perpendicular,MgAg0.97Sb0.99,428,0.00003367,,0.0019078,0.00024211,0.83066,0.95718,29700.0297000297,0.0022967279
71,10.1016/j.actamat.2015.01.018,4586,6(a),5856,perpendicular,MgAg0.97Sb0.99,428.5,0.000033604,,0.0019084,0.00024202,0.83124,0.95801,29758.36209975,0.0022958472
71,10.1016/j.actamat.2015.01.018,4586,6(a),5856,perpendicular,MgAg0.97Sb0.99,429,0.000033537,,0.0019091,0.00024194,0.83181,0.95884,29817.8131615827,0.0022951155
71,10.1016/j.actamat.2015.01.018,4586,6(a),5856,perpendicular,MgAg0.97Sb0.99,429.5,0.00003347,,0.0019097,0.00024186,0.83239,0.95967,29877.5022408127,0.0022942371
71,10.1016/j.actamat.2015.01.018,4586,6(a),5856,perpendicular,MgAg0.97Sb0.99,430,0.000033402,,0.0019103,0.00024177,0.83296,0.9605,29938.3270462847,0.0022933874
71,10.1016/j.actamat.2015.01.018,4586,6(a),5856,perpendicular,MgAg0.97Sb0.99,430.5,0.000033335,,0.0019109,0.00024169,0.83354,0.96133,29998.5000749963,0.0022925115
71,10.1016/j.actamat.2015.01.018,4586,6(a),5856,perpendicular,MgAg0.97Sb0.99,431,0.000033267,,0.0019116,0.0002416,0.83411,0.96217,30059.8190398894,0.0022917841
71,10.1016/j.actamat.2015.01.018,4586,6(a),5856,perpendicular,MgAg0.97Sb0.99,431.5,0.000033199,,0.0019122,0.00024152,0.83469,0.963,30121.3891984698,0.0022909104
71,10.1016/j.actamat.2015.01.018,4586,6(a),5856,perpendicular,MgAg0.97Sb0.99,432,0.000033131,,0.0019128,0.00024144,0.83526,0.96383,30183.2120974314,0.0022900654
71,10.1016/j.actamat.2015.01.018,4586,6(a),5856,perpendicular,MgAg0.97Sb0.99,432.5,0.000033063,,0.0019135,0.00024135,0.83584,0.96466,30245.2892961921,0.0022893137
71,10.1016/j.actamat.2015.01.018,4586,6(a),5856,perpendicular,MgAg0.97Sb0.99,433,0.000032995,,0.0019141,0.00024127,0.83641,0.96549,30307.6223670253,0.002288471
71,10.1016/j.actamat.2015.01.018,4586,6(a),5856,perpendicular,MgAg0.97Sb0.99,433.5,0.000032926,,0.0019147,0.00024118,0.83699,0.96632,30371.1352730365,0.002287602
71,10.1016/j.actamat.2015.01.018,4586,6(a),5856,perpendicular,MgAg0.97Sb0.99,434,0.000032858,,0.0019153,0.0002411,0.83756,0.96715,30433.9886785562,0.0022867615
71,10.1016/j.actamat.2015.01.018,4586,6(a),5856,perpendicular,MgAg0.97Sb0.99,434.5,0.000032789,,0.001916,0.00024102,0.83814,0.96798,30498.0328768794,0.0022860143
71,10.1016/j.actamat.2015.01.018,4586,6(a),5856,perpendicular,MgAg0.97Sb0.99,435,0.00003272,,0.0019166,0.00024093,0.83871,0.96882,30562.3471882641,0.002285176
71,10.1016/j.actamat.2015.01.018,4586,6(a),5856,perpendicular,MgAg0.97Sb0.99,435.5,0.000032651,,0.0019172,0.00024085,0.83929,0.96965,30626.9333251661,0.0022843117
71,10.1016/j.actamat.2015.01.018,4586,6(a),5856,perpendicular,MgAg0.97Sb0.99,436,0.000032582,,0.0019178,0.00024076,0.83986,0.97048,30691.7930145479,0.0022834758
71,10.1016/j.actamat.2015.01.018,4586,6(a),5856,perpendicular,MgAg0.97Sb0.99,436.5,0.000032512,,0.0019185,0.00024068,0.84044,0.97131,30757.874015748,0.0022827329
71,10.1016/j.actamat.2015.01.018,4586,6(a),5856,perpendicular,MgAg0.97Sb0.99,437,0.000032443,,0.0019191,0.0002406,0.84101,0.97214,30823.2900779829,0.0022818991
71,10.1016/j.actamat.2015.01.018,4586,6(a),5856,perpendicular,MgAg0.97Sb0.99,437.5,0.000032373,,0.0019197,0.00024051,0.84159,0.97297,30889.9391468199,0.0022810395
71,10.1016/j.actamat.2015.01.018,4586,6(a),5856,perpendicular,MgAg0.97Sb0.99,438,0.000032304,,0.0019203,0.00024043,0.84216,0.9738,30955.9187716691,0.002280208
71,10.1016/j.actamat.2015.01.018,4586,6(a),5856,perpendicular,MgAg0.97Sb0.99,438.5,0.000032234,,0.001921,0.00024035,0.84274,0.97464,31023.1432648756,0.0022794693
71,10.1016/j.actamat.2015.01.018,4586,6(a),5856,perpendicular,MgAg0.97Sb0.99,439,0.000032164,,0.0019216,0.00024026,0.84331,0.97547,31090.6603656262,0.0022786401
71,10.1016/j.actamat.2015.01.018,4586,6(a),5856,perpendicular,MgAg0.97Sb0.99,439.5,0.000032094,,0.0019222,0.00024018,0.84389,0.9763,31158.4719885337,0.002277785
71,10.1016/j.actamat.2015.01.018,4586,6(a),5856,perpendicular,MgAg0.97Sb0.99,440,0.000032024,,0.0019229,0.00024009,0.84446,0.97713,31226.5800649513,0.0022770765
71,10.1016/j.actamat.2015.01.018,4586,6(a),5856,perpendicular,MgAg0.97Sb0.99,440.5,0.000031953,,0.0019235,0.00024001,0.84504,0.97796,31295.965949989,0.0022762236
71,10.1016/j.actamat.2015.01.018,4586,6(a),5856,perpendicular,MgAg0.97Sb0.99,441,0.000031883,,0.0019241,0.00023993,0.84561,0.97879,31364.6771006492,0.0022753988
71,10.1016/j.actamat.2015.01.018,4586,6(a),5856,perpendicular,MgAg0.97Sb0.99,441.5,0.000031813,,0.0019247,0.00023984,0.84619,0.97962,31433.6906296168,0.0022745483
71,10.1016/j.actamat.2015.01.018,4586,6(a),5856,perpendicular,MgAg0.97Sb0.99,442,0.000031742,,0.0019254,0.00023976,0.84676,0.98045,31504.001008128,0.0022738438
71,10.1016/j.actamat.2015.01.018,4586,6(a),5856,perpendicular,MgAg0.97Sb0.99,442.5,0.000031672,,0.001926,0.00023967,0.84734,0.98129,31573.6297044708,0.0022729955
71,10.1016/j.actamat.2015.01.018,4586,6(a),5856,perpendicular,MgAg0.97Sb0.99,443,0.000031601,,0.0019266,0.00023959,0.84791,0.98212,31644.5682098668,0.0022721751
71,10.1016/j.actamat.2015.01.018,4586,6(a),5856,perpendicular,MgAg0.97Sb0.99,443.5,0.00003153,,0.0019272,0.00023951,0.84849,0.98295,31715.8261972724,0.0022713291
71,10.1016/j.actamat.2015.01.018,4586,6(a),5856,perpendicular,MgAg0.97Sb0.99,444,0.00003146,,0.0019279,0.00023942,0.84906,0.98378,31786.3954227591,0.0022706287
71,10.1016/j.actamat.2015.01.018,4586,6(a),5856,perpendicular,MgAg0.97Sb0.99,444.5,0.000031389,,0.0019285,0.00023934,0.84964,0.98461,31858.2943069228,0.0022697849
71,10.1016/j.actamat.2015.01.018,4586,6(a),5856,perpendicular,MgAg0.97Sb0.99,445,0.000031318,,0.0019291,0.00023925,0.85021,0.98544,31930.519190242,0.0022689688
71,10.1016/j.actamat.2015.01.018,4586,6(a),5856,perpendicular,MgAg0.97Sb0.99,445.5,0.000031247,,0.0019297,0.00023917,0.85079,0.98627,32003.0722949403,0.0022681273
71,10.1016/j.actamat.2015.01.018,4586,6(a),5856,perpendicular,MgAg0.97Sb0.99,446,0.000031176,,0.0019304,0.00023909,0.85136,0.98711,32075.9558634847,0.0022674309
71,10.1016/j.actamat.2015.01.018,4586,6(a),5856,perpendicular,MgAg0.97Sb0.99,446.5,0.000031105,,0.001931,0.000239,0.85194,0.98794,32149.1721588169,0.0022665915
71,10.1016/j.actamat.2015.01.018,4586,6(a),5856,perpendicular,MgAg0.97Sb0.99,447,0.000031034,,0.0019316,0.00023892,0.85251,0.98877,32222.7234645872,0.0022657799
71,10.1016/j.actamat.2015.01.018,4586,6(a),5856,perpendicular,MgAg0.97Sb0.99,447.5,0.000030963,,0.0019323,0.00023884,0.85309,0.9896,32296.6120853922,0.00226506
71,10.1016/j.actamat.2015.01.018,4586,6(a),5856,perpendicular,MgAg0.97Sb0.99,448,0.000030892,,0.0019329,0.00023875,0.85366,0.99043,32370.8403470154,0.0022642504