sid,DOI,figureid,fignum,sampleid,samplename,composition,Temperature,Electrical resistivity,Lattice thermal conductivity,Power factor,Seebeck coefficient,Thermal conductivity,ZT,Electrical conductivity,Figure of merit Z
71,10.1016/j.actamat.2015.01.018,4580,3(a),5851,MgAg0.97Sb0.99,MgAg0.97Sb0.99,304,0.000043023,0.61249,0.0017693,0.00027825,0.6903,0.79362,23243.3814471329,0.0025630885
71,10.1016/j.actamat.2015.01.018,4580,3(a),5851,MgAg0.97Sb0.99,MgAg0.97Sb0.99,304.5,0.000042976,0.61238,0.0017701,0.00027812,0.69087,0.79452,23268.8011913626,0.0025621318
71,10.1016/j.actamat.2015.01.018,4580,3(a),5851,MgAg0.97Sb0.99,MgAg0.97Sb0.99,305,0.000042928,0.61227,0.0017709,0.00027799,0.69144,0.79542,23294.8192322028,0.0025611767
71,10.1016/j.actamat.2015.01.018,4580,3(a),5851,MgAg0.97Sb0.99,MgAg0.97Sb0.99,305.5,0.000042881,0.61217,0.0017718,0.00027786,0.69201,0.79632,23320.3516709032,0.0025603676
71,10.1016/j.actamat.2015.01.018,4580,3(a),5851,MgAg0.97Sb0.99,MgAg0.97Sb0.99,306,0.000042834,0.61206,0.0017726,0.00027773,0.69258,0.79722,23345.9401410095,0.0025594155
71,10.1016/j.actamat.2015.01.018,4580,3(a),5851,MgAg0.97Sb0.99,MgAg0.97Sb0.99,306.5,0.000042787,0.61195,0.0017735,0.00027759,0.69316,0.79812,23371.5848271671,0.0025585723
71,10.1016/j.actamat.2015.01.018,4580,3(a),5851,MgAg0.97Sb0.99,MgAg0.97Sb0.99,307,0.000042739,0.61184,0.0017743,0.00027746,0.69373,0.79903,23397.8333606308,0.0025576233
71,10.1016/j.actamat.2015.01.018,4580,3(a),5851,MgAg0.97Sb0.99,MgAg0.97Sb0.99,307.5,0.000042692,0.61173,0.0017752,0.00027733,0.6943,0.79993,23423.5922421062,0.0025568198
71,10.1016/j.actamat.2015.01.018,4580,3(a),5851,MgAg0.97Sb0.99,MgAg0.97Sb0.99,308,0.000042645,0.61163,0.001776,0.0002772,0.69487,0.80083,23449.4079024505,0.0025558738
71,10.1016/j.actamat.2015.01.018,4580,3(a),5851,MgAg0.97Sb0.99,MgAg0.97Sb0.99,308.5,0.000042597,0.61152,0.0017769,0.00027707,0.69545,0.80173,23475.8316313355,0.0025550363
71,10.1016/j.actamat.2015.01.018,4580,3(a),5851,MgAg0.97Sb0.99,MgAg0.97Sb0.99,309,0.00004255,0.61141,0.0017777,0.00027693,0.69602,0.80263,23501.7626321974,0.0025540933
71,10.1016/j.actamat.2015.01.018,4580,3(a),5851,MgAg0.97Sb0.99,MgAg0.97Sb0.99,309.5,0.000042503,0.6113,0.0017785,0.0002768,0.69659,0.80353,23527.7509822836,0.0025531518
71,10.1016/j.actamat.2015.01.018,4580,3(a),5851,MgAg0.97Sb0.99,MgAg0.97Sb0.99,310,0.000042455,0.6112,0.0017794,0.00027667,0.69716,0.80443,23554.3516664704,0.0025523553
71,10.1016/j.actamat.2015.01.018,4580,3(a),5851,MgAg0.97Sb0.99,MgAg0.97Sb0.99,310.5,0.000042408,0.61109,0.0017802,0.00027654,0.69773,0.80533,23580.4565176382,0.0025514167
71,10.1016/j.actamat.2015.01.018,4580,3(a),5851,MgAg0.97Sb0.99,MgAg0.97Sb0.99,311,0.000042361,0.61098,0.0017811,0.00027641,0.69831,0.80623,23606.6192960506,0.0025505864
71,10.1016/j.actamat.2015.01.018,4580,3(a),5851,MgAg0.97Sb0.99,MgAg0.97Sb0.99,311.5,0.000042314,0.61087,0.0017819,0.00027627,0.69888,0.80713,23632.8401947346,0.0025496509
71,10.1016/j.actamat.2015.01.018,4580,3(a),5851,MgAg0.97Sb0.99,MgAg0.97Sb0.99,312,0.000042266,0.61076,0.0017828,0.00027614,0.69945,0.80803,23659.6791747504,0.0025488598
71,10.1016/j.actamat.2015.01.018,4580,3(a),5851,MgAg0.97Sb0.99,MgAg0.97Sb0.99,312.5,0.000042219,0.61066,0.0017836,0.00027601,0.70002,0.80893,23686.0181434899,0.0025479272
71,10.1016/j.actamat.2015.01.018,4580,3(a),5851,MgAg0.97Sb0.99,MgAg0.97Sb0.99,313,0.000042172,0.61055,0.0017845,0.00027588,0.7006,0.80983,23712.4158209238,0.0025471025
71,10.1016/j.actamat.2015.01.018,4580,3(a),5851,MgAg0.97Sb0.99,MgAg0.97Sb0.99,313.5,0.000042124,0.61044,0.0017853,0.00027575,0.70117,0.81074,23739.4359510018,0.0025461728
71,10.1016/j.actamat.2015.01.018,4580,3(a),5851,MgAg0.97Sb0.99,MgAg0.97Sb0.99,314,0.000042077,0.61033,0.0017862,0.00027561,0.70174,0.81164,23765.9528958814,0.0025453872
71,10.1016/j.actamat.2015.01.018,4580,3(a),5851,MgAg0.97Sb0.99,MgAg0.97Sb0.99,314.5,0.00004203,0.61022,0.001787,0.00027548,0.70231,0.81254,23792.5291458482,0.0025444604
71,10.1016/j.actamat.2015.01.018,4580,3(a),5851,MgAg0.97Sb0.99,MgAg0.97Sb0.99,315,0.000041982,0.61012,0.0017878,0.00027535,0.70288,0.81344,23819.7322662093,0.0025435352
71,10.1016/j.actamat.2015.01.018,4580,3(a),5851,MgAg0.97Sb0.99,MgAg0.97Sb0.99,315.5,0.000041935,0.61001,0.0017887,0.00027522,0.70346,0.81434,23846.4289972577,0.0025427174
71,10.1016/j.actamat.2015.01.018,4580,3(a),5851,MgAg0.97Sb0.99,MgAg0.97Sb0.99,316,0.000041888,0.6099,0.0017895,0.00027509,0.70403,0.81524,23873.1856378915,0.0025417951
71,10.1016/j.actamat.2015.01.018,4580,3(a),5851,MgAg0.97Sb0.99,MgAg0.97Sb0.99,316.5,0.00004184,0.60979,0.0017904,0.00027496,0.7046,0.81614,23900.5736137667,0.0025410162
71,10.1016/j.actamat.2015.01.018,4580,3(a),5851,MgAg0.97Sb0.99,MgAg0.97Sb0.99,317,0.000041793,0.60968,0.0017912,0.00027482,0.70517,0.81704,23927.4519656402,0.0025400967
71,10.1016/j.actamat.2015.01.018,4580,3(a),5851,MgAg0.97Sb0.99,MgAg0.97Sb0.99,317.5,0.000041746,0.60958,0.0017921,0.00027469,0.70575,0.81794,23954.3908398409,0.0025392844
71,10.1016/j.actamat.2015.01.018,4580,3(a),5851,MgAg0.97Sb0.99,MgAg0.97Sb0.99,318,0.000041699,0.60947,0.0017929,0.00027456,0.70632,0.81884,23981.3904410178,0.0025383679
71,10.1016/j.actamat.2015.01.018,4580,3(a),5851,MgAg0.97Sb0.99,MgAg0.97Sb0.99,318.5,0.000041651,0.60936,0.0017938,0.00027443,0.70689,0.81974,24009.0273943003,0.0025375943
71,10.1016/j.actamat.2015.01.018,4580,3(a),5851,MgAg0.97Sb0.99,MgAg0.97Sb0.99,319,0.000041604,0.60925,0.0017946,0.0002743,0.70746,0.82064,24036.1503701567,0.0025366805
71,10.1016/j.actamat.2015.01.018,4580,3(a),5851,MgAg0.97Sb0.99,MgAg0.97Sb0.99,319.5,0.000041557,0.60914,0.0017955,0.00027416,0.70804,0.82154,24063.3346969223,0.0025358737
71,10.1016/j.actamat.2015.01.018,4580,3(a),5851,MgAg0.97Sb0.99,MgAg0.97Sb0.99,320,0.000041509,0.60904,0.0017963,0.00027403,0.70861,0.82245,24091.1609530463,0.0025349628
71,10.1016/j.actamat.2015.01.018,4580,3(a),5851,MgAg0.97Sb0.99,MgAg0.97Sb0.99,320.5,0.000041462,0.60893,0.0017972,0.0002739,0.70918,0.82335,24118.469924268,0.0025341944
71,10.1016/j.actamat.2015.01.018,4580,3(a),5851,MgAg0.97Sb0.99,MgAg0.97Sb0.99,321,0.000041415,0.60882,0.001798,0.00027377,0.70975,0.82425,24145.8408789086,0.0025332864
71,10.1016/j.actamat.2015.01.018,4580,3(a),5851,MgAg0.97Sb0.99,MgAg0.97Sb0.99,321.5,0.000041367,0.60871,0.0017988,0.00027364,0.71032,0.82515,24173.8583895376,0.0025323798
71,10.1016/j.actamat.2015.01.018,4580,3(a),5851,MgAg0.97Sb0.99,MgAg0.97Sb0.99,322,0.00004132,0.60861,0.0017997,0.0002735,0.7109,0.82605,24201.3552758955,0.0025315797
71,10.1016/j.actamat.2015.01.018,4580,3(a),5851,MgAg0.97Sb0.99,MgAg0.97Sb0.99,322.5,0.000041273,0.6085,0.0018005,0.00027337,0.71147,0.82695,24228.9147869067,0.0025306759
71,10.1016/j.actamat.2015.01.018,4580,3(a),5851,MgAg0.97Sb0.99,MgAg0.97Sb0.99,323,0.000041226,0.60839,0.0018014,0.00027324,0.71204,0.82785,24256.5371367584,0.002529914
71,10.1016/j.actamat.2015.01.018,4580,3(a),5851,MgAg0.97Sb0.99,MgAg0.97Sb0.99,323.5,0.000041178,0.60828,0.0018022,0.00027311,0.71261,0.82875,24284.8122784011,0.0025290131
71,10.1016/j.actamat.2015.01.018,4580,3(a),5851,MgAg0.97Sb0.99,MgAg0.97Sb0.99,324,0.000041131,0.60817,0.0018031,0.00027298,0.71319,0.82965,24312.5623009409,0.0025282183
71,10.1016/j.actamat.2015.01.018,4580,3(a),5851,MgAg0.97Sb0.99,MgAg0.97Sb0.99,324.5,0.000041084,0.60807,0.0018039,0.00027284,0.71376,0.83055,24340.3758154026,0.0025273201
71,10.1016/j.actamat.2015.01.018,4580,3(a),5851,MgAg0.97Sb0.99,MgAg0.97Sb0.99,325,0.000041036,0.60796,0.0018048,0.00027271,0.71433,0.83145,24368.8468661663,0.0025265634
71,10.1016/j.actamat.2015.01.018,4580,3(a),5851,MgAg0.97Sb0.99,MgAg0.97Sb0.99,325.5,0.000040989,0.60785,0.0018056,0.00027258,0.7149,0.83235,24396.7893825173,0.0025256679
71,10.1016/j.actamat.2015.01.018,4580,3(a),5851,MgAg0.97Sb0.99,MgAg0.97Sb0.99,326,0.000040942,0.60774,0.0018065,0.00027245,0.71547,0.83325,24424.796052953,0.0025249137
71,10.1016/j.actamat.2015.01.018,4580,3(a),5851,MgAg0.97Sb0.99,MgAg0.97Sb0.99,326.5,0.000040894,0.60763,0.0018073,0.00027232,0.71605,0.83416,24453.4650559984,0.0025239858
71,10.1016/j.actamat.2015.01.018,4580,3(a),5851,MgAg0.97Sb0.99,MgAg0.97Sb0.99,327,0.000040847,0.60753,0.0018082,0.00027218,0.71662,0.83506,24481.6020760399,0.0025232341
71,10.1016/j.actamat.2015.01.018,4580,3(a),5851,MgAg0.97Sb0.99,MgAg0.97Sb0.99,327.5,0.0000408,0.60742,0.001809,0.00027205,0.71719,0.83596,24509.8039215686,0.0025223441
71,10.1016/j.actamat.2015.01.018,4580,3(a),5851,MgAg0.97Sb0.99,MgAg0.97Sb0.99,328,0.000040752,0.60731,0.0018099,0.00027192,0.71776,0.83686,24538.6729485669,0.002521595
71,10.1016/j.actamat.2015.01.018,4580,3(a),5851,MgAg0.97Sb0.99,MgAg0.97Sb0.99,328.5,0.000040705,0.6072,0.0018107,0.00027179,0.71834,0.83776,24567.0065102567,0.0025206727
71,10.1016/j.actamat.2015.01.018,4580,3(a),5851,MgAg0.97Sb0.99,MgAg0.97Sb0.99,329,0.000040658,0.60709,0.0018116,0.00027166,0.71891,0.83866,24595.405578238,0.002519926
71,10.1016/j.actamat.2015.01.018,4580,3(a),5851,MgAg0.97Sb0.99,MgAg0.97Sb0.99,329.5,0.000040611,0.60699,0.0018124,0.00027152,0.71948,0.83956,24623.8703799463,0.0025190415
71,10.1016/j.actamat.2015.01.018,4580,3(a),5851,MgAg0.97Sb0.99,MgAg0.97Sb0.99,330,0.000040563,0.60688,0.0018132,0.00027139,0.72005,0.84046,24653.0088997362,0.0025181585
71,10.1016/j.actamat.2015.01.018,4580,3(a),5851,MgAg0.97Sb0.99,MgAg0.97Sb0.99,330.5,0.000040516,0.60677,0.0018141,0.00027126,0.72062,0.84136,24681.6072662652,0.0025174156
71,10.1016/j.actamat.2015.01.018,4580,3(a),5851,MgAg0.97Sb0.99,MgAg0.97Sb0.99,331,0.000040469,0.60666,0.0018149,0.00027113,0.7212,0.84226,24710.2720600954,0.0025165003
71,10.1016/j.actamat.2015.01.018,4580,3(a),5851,MgAg0.97Sb0.99,MgAg0.97Sb0.99,331.5,0.000040421,0.60656,0.0018158,0.000271,0.72177,0.84316,24739.6155463744,0.0025157599
71,10.1016/j.actamat.2015.01.018,4580,3(a),5851,MgAg0.97Sb0.99,MgAg0.97Sb0.99,332,0.000040374,0.60645,0.0018166,0.00027087,0.72234,0.84406,24768.415316788,0.0025148822
71,10.1016/j.actamat.2015.01.018,4580,3(a),5851,MgAg0.97Sb0.99,MgAg0.97Sb0.99,332.5,0.000040327,0.60634,0.0018175,0.00027073,0.72291,0.84496,24797.2822178689,0.0025141442
71,10.1016/j.actamat.2015.01.018,4580,3(a),5851,MgAg0.97Sb0.99,MgAg0.97Sb0.99,333,0.000040279,0.60623,0.0018183,0.0002706,0.72349,0.84587,24826.8328409345,0.0025132345
71,10.1016/j.actamat.2015.01.018,4580,3(a),5851,MgAg0.97Sb0.99,MgAg0.97Sb0.99,333.5,0.000040232,0.60612,0.0018192,0.00027047,0.72406,0.84677,24855.8361503281,0.002512499
71,10.1016/j.actamat.2015.01.018,4580,3(a),5851,MgAg0.97Sb0.99,MgAg0.97Sb0.99,334,0.000040185,0.60602,0.00182,0.00027034,0.72463,0.84767,24884.9073037203,0.0025116266
71,10.1016/j.actamat.2015.01.018,4580,3(a),5851,MgAg0.97Sb0.99,MgAg0.97Sb0.99,334.5,0.000040138,0.60591,0.0018209,0.00027021,0.7252,0.84857,24914.0465394389,0.0025108935
71,10.1016/j.actamat.2015.01.018,4580,3(a),5851,MgAg0.97Sb0.99,MgAg0.97Sb0.99,335,0.00004009,0.6058,0.0018217,0.00027007,0.72578,0.84947,24943.8762783737,0.0025099893
71,10.1016/j.actamat.2015.01.018,4580,3(a),5851,MgAg0.97Sb0.99,MgAg0.97Sb0.99,335.5,0.000040043,0.60569,0.0018226,0.00026994,0.72635,0.85037,24973.1538596009,0.0025092586
71,10.1016/j.actamat.2015.01.018,4580,3(a),5851,MgAg0.97Sb0.99,MgAg0.97Sb0.99,336,0.000039996,0.60558,0.0018234,0.00026981,0.72692,0.85127,25002.500250025,0.0025083916
71,10.1016/j.actamat.2015.01.018,4580,3(a),5851,MgAg0.97Sb0.99,MgAg0.97Sb0.99,336.5,0.000039948,0.60548,0.0018243,0.00026968,0.72749,0.85217,25032.5423049965,0.0025076633
71,10.1016/j.actamat.2015.01.018,4580,3(a),5851,MgAg0.97Sb0.99,MgAg0.97Sb0.99,337,0.000039901,0.60537,0.0018251,0.00026955,0.72806,0.85307,25062.0285205885,0.0025067989
71,10.1016/j.actamat.2015.01.018,4580,3(a),5851,MgAg0.97Sb0.99,MgAg0.97Sb0.99,337.5,0.000039854,0.60526,0.001826,0.00026941,0.72864,0.85397,25091.5842826316,0.0025060386
71,10.1016/j.actamat.2015.01.018,4580,3(a),5851,MgAg0.97Sb0.99,MgAg0.97Sb0.99,338,0.000039806,0.60515,0.0018268,0.00026928,0.72921,0.85487,25121.8409285032,0.0025051768
71,10.1016/j.actamat.2015.01.018,4580,3(a),5851,MgAg0.97Sb0.99,MgAg0.97Sb0.99,338.5,0.000039759,0.60504,0.0018277,0.00026915,0.72978,0.85577,25151.5380165497,0.0025044534
71,10.1016/j.actamat.2015.01.018,4580,3(a),5851,MgAg0.97Sb0.99,MgAg0.97Sb0.99,339,0.000039712,0.60494,0.0018285,0.00026902,0.73035,0.85667,25181.3053988719,0.0025035942
71,10.1016/j.actamat.2015.01.018,4580,3(a),5851,MgAg0.97Sb0.99,MgAg0.97Sb0.99,339.5,0.000039664,0.60483,0.0018294,0.00026889,0.73093,0.85758,25211.7789431222,0.0025028388
71,10.1016/j.actamat.2015.01.018,4580,3(a),5851,MgAg0.97Sb0.99,MgAg0.97Sb0.99,340,0.000039617,0.60472,0.0018302,0.00026875,0.7315,0.85848,25241.6891738395,0.0025019822
71,10.1016/j.actamat.2015.01.018,4580,3(a),5851,MgAg0.97Sb0.99,MgAg0.97Sb0.99,340.5,0.00003957,0.60461,0.0018311,0.00026862,0.73207,0.85938,25271.6704574172,0.0025012635
71,10.1016/j.actamat.2015.01.018,4580,3(a),5851,MgAg0.97Sb0.99,MgAg0.97Sb0.99,341,0.000039523,0.60451,0.0018319,0.00026849,0.73264,0.86028,25301.7230473395,0.0025004095
71,10.1016/j.actamat.2015.01.018,4580,3(a),5851,MgAg0.97Sb0.99,MgAg0.97Sb0.99,341.5,0.000039475,0.6044,0.0018328,0.00026836,0.73321,0.86118,25332.4889170361,0.0024996931
71,10.1016/j.actamat.2015.01.018,4580,3(a),5851,MgAg0.97Sb0.99,MgAg0.97Sb0.99,342,0.000039428,0.60429,0.0018336,0.00026823,0.73379,0.86208,25362.6864157452,0.0024988076
71,10.1016/j.actamat.2015.01.018,4580,3(a),5851,MgAg0.97Sb0.99,MgAg0.97Sb0.99,342.5,0.000039381,0.60418,0.0018345,0.00026809,0.73436,0.86298,25392.9559940073,0.0024980936
71,10.1016/j.actamat.2015.01.018,4580,3(a),5851,MgAg0.97Sb0.99,MgAg0.97Sb0.99,343,0.000039333,0.60407,0.0018353,0.00026796,0.73493,0.86388,25423.9442707142,0.0024972446
71,10.1016/j.actamat.2015.01.018,4580,3(a),5851,MgAg0.97Sb0.99,MgAg0.97Sb0.99,343.5,0.000039286,0.60397,0.0018362,0.00026783,0.7355,0.86478,25454.3603319249,0.002496533
71,10.1016/j.actamat.2015.01.018,4580,3(a),5851,MgAg0.97Sb0.99,MgAg0.97Sb0.99,344,0.000039239,0.60386,0.001837,0.0002677,0.73608,0.86568,25484.8492571166,0.0024956526
71,10.1016/j.actamat.2015.01.018,4580,3(a),5851,MgAg0.97Sb0.99,MgAg0.97Sb0.99,344.5,0.000039191,0.60375,0.0018379,0.00026757,0.73665,0.86658,25516.0623612564,0.0024949433
71,10.1016/j.actamat.2015.01.018,4580,3(a),5851,MgAg0.97Sb0.99,MgAg0.97Sb0.99,345,0.000039144,0.60364,0.0018387,0.00026743,0.73722,0.86748,25546.6993664419,0.0024940995
71,10.1016/j.actamat.2015.01.018,4580,3(a),5851,MgAg0.97Sb0.99,MgAg0.97Sb0.99,345.5,0.000039097,0.60353,0.0018396,0.0002673,0.73779,0.86838,25577.4100314602,0.0024933924
71,10.1016/j.actamat.2015.01.018,4580,3(a),5851,MgAg0.97Sb0.99,MgAg0.97Sb0.99,346,0.00003905,0.60343,0.0018404,0.00026717,0.73836,0.86929,25608.1946222791,0.0024925511
71,10.1016/j.actamat.2015.01.018,4580,3(a),5851,MgAg0.97Sb0.99,MgAg0.97Sb0.99,346.5,0.000039002,0.60332,0.0018413,0.00026704,0.73894,0.87019,25639.7107840624,0.0024918126
71,10.1016/j.actamat.2015.01.018,4580,3(a),5851,MgAg0.97Sb0.99,MgAg0.97Sb0.99,347,0.000038955,0.60321,0.0018421,0.00026691,0.73951,0.87109,25670.6456167373,0.0024909738
71,10.1016/j.actamat.2015.01.018,4580,3(a),5851,MgAg0.97Sb0.99,MgAg0.97Sb0.99,347.5,0.000038908,0.6031,0.001843,0.00026677,0.74008,0.87199,25701.655186594,0.0024902713
71,10.1016/j.actamat.2015.01.018,4580,3(a),5851,MgAg0.97Sb0.99,MgAg0.97Sb0.99,348,0.00003886,0.60299,0.0018438,0.00026664,0.74065,0.87289,25733.4019557386,0.002489435
71,10.1016/j.actamat.2015.01.018,4580,3(a),5851,MgAg0.97Sb0.99,MgAg0.97Sb0.99,348.5,0.000038813,0.60289,0.0018447,0.00026651,0.74123,0.87379,25764.5634194729,0.0024887012
71,10.1016/j.actamat.2015.01.018,4580,3(a),5851,MgAg0.97Sb0.99,MgAg0.97Sb0.99,349,0.000038766,0.60278,0.0018455,0.00026638,0.7418,0.87469,25795.8004436878,0.0024878673
71,10.1016/j.actamat.2015.01.018,4580,3(a),5851,MgAg0.97Sb0.99,MgAg0.97Sb0.99,349.5,0.000038718,0.60267,0.0018464,0.00026625,0.74237,0.87559,25827.7803605558,0.0024871695
71,10.1016/j.actamat.2015.01.018,4580,3(a),5851,MgAg0.97Sb0.99,MgAg0.97Sb0.99,350,0.000038671,0.60256,0.0018472,0.00026612,0.74294,0.87649,25859.1709549792,0.0024863381
71,10.1016/j.actamat.2015.01.018,4580,3(a),5851,MgAg0.97Sb0.99,MgAg0.97Sb0.99,350.5,0.000038624,0.60246,0.0018481,0.00026598,0.74352,0.87739,25890.637945319,0.002485609
71,10.1016/j.actamat.2015.01.018,4580,3(a),5851,MgAg0.97Sb0.99,MgAg0.97Sb0.99,351,0.000038577,0.60235,0.0018489,0.00026585,0.74409,0.87829,25922.1816108044,0.0024847801
71,10.1016/j.actamat.2015.01.018,4580,3(a),5851,MgAg0.97Sb0.99,MgAg0.97Sb0.99,351.5,0.000038529,0.60224,0.0018498,0.00026572,0.74466,0.87919,25954.4758493602,0.0024840867
71,10.1016/j.actamat.2015.01.018,4580,3(a),5851,MgAg0.97Sb0.99,MgAg0.97Sb0.99,352,0.000038482,0.60213,0.0018506,0.00026559,0.74523,0.8801,25986.1753547113,0.0024832602
71,10.1016/j.actamat.2015.01.018,4580,3(a),5851,MgAg0.97Sb0.99,MgAg0.97Sb0.99,352.5,0.000038435,0.60202,0.0018515,0.00026546,0.7458,0.881,26017.9523871471,0.0024825691
71,10.1016/j.actamat.2015.01.018,4580,3(a),5851,MgAg0.97Sb0.99,MgAg0.97Sb0.99,353,0.000038387,0.60192,0.0018523,0.00026532,0.74638,0.8819,26050.4858415609,0.0024817117
71,10.1016/j.actamat.2015.01.018,4580,3(a),5851,MgAg0.97Sb0.99,MgAg0.97Sb0.99,353.5,0.00003834,0.60181,0.0018532,0.00026519,0.74695,0.8828,26082.4204486176,0.0024810228
71,10.1016/j.actamat.2015.01.018,4580,3(a),5851,MgAg0.97Sb0.99,MgAg0.97Sb0.99,354,0.000038293,0.6017,0.001854,0.00026506,0.74752,0.8837,26114.4334473664,0.0024802012
71,10.1016/j.actamat.2015.01.018,4580,3(a),5851,MgAg0.97Sb0.99,MgAg0.97Sb0.99,354.5,0.000038245,0.60159,0.0018549,0.00026493,0.74809,0.8846,26147.2087854622,0.0024795145
71,10.1016/j.actamat.2015.01.018,4580,3(a),5851,MgAg0.97Sb0.99,MgAg0.97Sb0.99,355,0.000038198,0.60148,0.0018557,0.0002648,0.74867,0.8855,26179.3811194303,0.0024786622
71,10.1016/j.actamat.2015.01.018,4580,3(a),5851,MgAg0.97Sb0.99,MgAg0.97Sb0.99,355.5,0.000038151,0.60138,0.0018566,0.00026466,0.74924,0.8864,26211.6327226023,0.0024779777
71,10.1016/j.actamat.2015.01.018,4580,3(a),5851,MgAg0.97Sb0.99,MgAg0.97Sb0.99,356,0.000038103,0.60127,0.0018574,0.00026453,0.74981,0.8873,26244.6526520222,0.0024771609
71,10.1016/j.actamat.2015.01.018,4580,3(a),5851,MgAg0.97Sb0.99,MgAg0.97Sb0.99,356.5,0.000038056,0.60116,0.0018583,0.0002644,0.75038,0.8882,26277.0653773387,0.0024764786
71,10.1016/j.actamat.2015.01.018,4580,3(a),5851,MgAg0.97Sb0.99,MgAg0.97Sb0.99,357,0.000038009,0.60105,0.0018591,0.00026427,0.75095,0.8891,26309.5582625168,0.0024756642
71,10.1016/j.actamat.2015.01.018,4580,3(a),5851,MgAg0.97Sb0.99,MgAg0.97Sb0.99,357.5,0.000037962,0.60094,0.00186,0.00026414,0.75153,0.89,26342.1316052895,0.0024749511
71,10.1016/j.actamat.2015.01.018,4580,3(a),5851,MgAg0.97Sb0.99,MgAg0.97Sb0.99,358,0.000037914,0.60084,0.0018609,0.000264,0.7521,0.8909,26375.4813525347,0.002474272
71,10.1016/j.actamat.2015.01.018,4580,3(a),5851,MgAg0.97Sb0.99,MgAg0.97Sb0.99,358.5,0.000037867,0.60073,0.0018617,0.00026387,0.75267,0.89181,26408.2182375155,0.0024734611
71,10.1016/j.actamat.2015.01.018,4580,3(a),5851,MgAg0.97Sb0.99,MgAg0.97Sb0.99,359,0.00003782,0.60062,0.0018626,0.00026374,0.75324,0.89271,26441.0364886304,0.0024727842
71,10.1016/j.actamat.2015.01.018,4580,3(a),5851,MgAg0.97Sb0.99,MgAg0.97Sb0.99,359.5,0.000037772,0.60051,0.0018634,0.00026361,0.75382,0.89361,26474.637297469,0.0024719429
71,10.1016/j.actamat.2015.01.018,4580,3(a),5851,MgAg0.97Sb0.99,MgAg0.97Sb0.99,360,0.000037725,0.6004,0.0018643,0.00026348,0.75439,0.89451,26507.6209410205,0.0024712682
71,10.1016/j.actamat.2015.01.018,4580,3(a),5851,MgAg0.97Sb0.99,MgAg0.97Sb0.99,360.5,0.000037678,0.6003,0.0018651,0.00026334,0.75496,0.89541,26540.6868729763,0.002470462
71,10.1016/j.actamat.2015.01.018,4580,3(a),5851,MgAg0.97Sb0.99,MgAg0.97Sb0.99,361,0.00003763,0.60019,0.001866,0.00026321,0.75553,0.89631,26574.5415891576,0.0024697894
71,10.1016/j.actamat.2015.01.018,4580,3(a),5851,MgAg0.97Sb0.99,MgAg0.97Sb0.99,361.5,0.000037583,0.60008,0.0018668,0.00026308,0.75611,0.89721,26607.7747917942,0.0024689529