sid,DOI,figureid,fignum,sampleid,samplename,composition,Temperature,Electrical resistivity,Lattice thermal conductivity,Power factor,Seebeck coefficient,Thermal conductivity,ZT,Electrical conductivity,Figure of merit Z
71,10.1016/j.actamat.2015.01.018,4586,6(a),5856,perpendicular,MgAg0.97Sb0.99,448.5,0.000030821,,0.0019335,0.00023867,0.85424,0.99126,32445.4105966711,0.0022634154
71,10.1016/j.actamat.2015.01.018,4586,6(a),5856,perpendicular,MgAg0.97Sb0.99,449,0.00003075,,0.0019341,0.00023858,0.85481,0.99209,32520.325203252,0.0022626081
71,10.1016/j.actamat.2015.01.018,4586,6(a),5856,perpendicular,MgAg0.97Sb0.99,449.5,0.000030679,,0.0019348,0.0002385,0.85539,0.99293,32595.5865575801,0.0022618922
71,10.1016/j.actamat.2015.01.018,4586,6(a),5856,perpendicular,MgAg0.97Sb0.99,450,0.000030608,,0.0019354,0.00023842,0.85596,0.99376,32671.1970726607,0.002261087
71,10.1016/j.actamat.2015.01.018,4586,6(a),5856,perpendicular,MgAg0.97Sb0.99,450.5,0.000030537,,0.001936,0.00023833,0.85654,0.99459,32747.1591839408,0.0022602564
71,10.1016/j.actamat.2015.01.018,4586,6(a),5856,perpendicular,MgAg0.97Sb0.99,451,0.000030466,,0.0019366,0.00023825,0.85711,0.99542,32823.47534957,0.0022594533
71,10.1016/j.actamat.2015.01.018,4586,6(a),5856,perpendicular,MgAg0.97Sb0.99,451.5,0.000030395,,0.0019373,0.00023816,0.85769,0.99625,32900.1480506662,0.0022587415
71,10.1016/j.actamat.2015.01.018,4586,6(a),5856,perpendicular,MgAg0.97Sb0.99,452,0.000030324,,0.0019379,0.00023808,0.85826,0.99708,32977.1797915842,0.0022579405
71,10.1016/j.actamat.2015.01.018,4586,6(a),5856,perpendicular,MgAg0.97Sb0.99,452.5,0.000030253,,0.0019385,0.000238,0.85883,0.99791,33054.5731001884,0.0022571405
71,10.1016/j.actamat.2015.01.018,4586,6(a),5856,perpendicular,MgAg0.97Sb0.99,453,0.000030182,,0.0019391,0.00023791,0.85941,0.99874,33132.3305281294,0.0022563154
71,10.1016/j.actamat.2015.01.018,4586,6(a),5856,perpendicular,MgAg0.97Sb0.99,453.5,0.000030111,,0.0019398,0.00023783,0.85998,0.99958,33210.4546511242,0.0022556339
71,10.1016/j.actamat.2015.01.018,4586,6(a),5856,perpendicular,MgAg0.97Sb0.99,454,0.00003004,,0.0019404,0.00023774,0.86056,1.0004,33288.948069241,0.0022548108
71,10.1016/j.actamat.2015.01.018,4586,6(a),5856,perpendicular,MgAg0.97Sb0.99,454.5,0.000029969,,0.001941,0.00023766,0.86113,1.0012,33367.8134071874,0.0022540151
71,10.1016/j.actamat.2015.01.018,4586,6(a),5856,perpendicular,MgAg0.97Sb0.99,455,0.000029898,,0.0019417,0.00023758,0.86171,1.0021,33447.053314603,0.0022533103
71,10.1016/j.actamat.2015.01.018,4586,6(a),5856,perpendicular,MgAg0.97Sb0.99,455.5,0.000029827,,0.0019423,0.00023749,0.86228,1.0029,33526.670466356,0.0022525166
71,10.1016/j.actamat.2015.01.018,4586,6(a),5856,perpendicular,MgAg0.97Sb0.99,456,0.000029757,,0.0019429,0.00023741,0.86286,1.0037,33605.5381926942,0.0022516978
71,10.1016/j.actamat.2015.01.018,4586,6(a),5856,perpendicular,MgAg0.97Sb0.99,456.5,0.000029686,,0.0019435,0.00023733,0.86343,1.0046,33685.912551371,0.0022509063
71,10.1016/j.actamat.2015.01.018,4586,6(a),5856,perpendicular,MgAg0.97Sb0.99,457,0.000029615,,0.0019442,0.00023724,0.86401,1.0054,33766.6722944454,0.0022502054
71,10.1016/j.actamat.2015.01.018,4586,6(a),5856,perpendicular,MgAg0.97Sb0.99,457.5,0.000029545,,0.0019448,0.00023716,0.86458,1.0062,33846.6745642241,0.0022494159
71,10.1016/j.actamat.2015.01.018,4586,6(a),5856,perpendicular,MgAg0.97Sb0.99,458,0.000029474,,0.0019454,0.00023707,0.86516,1.0071,33928.2079120581,0.0022486014
71,10.1016/j.actamat.2015.01.018,4586,6(a),5856,perpendicular,MgAg0.97Sb0.99,458.5,0.000029404,,0.001946,0.00023699,0.86573,1.0079,34008.9783702898,0.002247814
71,10.1016/j.actamat.2015.01.018,4586,6(a),5856,perpendicular,MgAg0.97Sb0.99,459,0.000029334,,0.0019467,0.00023691,0.86631,1.0087,34090.1343151292,0.0022471171
71,10.1016/j.actamat.2015.01.018,4586,6(a),5856,perpendicular,MgAg0.97Sb0.99,459.5,0.000029263,,0.0019473,0.00023682,0.86688,1.0096,34172.8462563647,0.0022463317
71,10.1016/j.actamat.2015.01.018,4586,6(a),5856,perpendicular,MgAg0.97Sb0.99,460,0.000029193,,0.0019479,0.00023674,0.86746,1.0104,34254.7871064981,0.0022455214
71,10.1016/j.actamat.2015.01.018,4586,6(a),5856,perpendicular,MgAg0.97Sb0.99,460.5,0.000029123,,0.0019485,0.00023665,0.86803,1.0112,34337.1218624455,0.0022447381
71,10.1016/j.actamat.2015.01.018,4586,6(a),5856,perpendicular,MgAg0.97Sb0.99,461,0.000029053,,0.0019492,0.00023657,0.86861,1.012,34419.8533714246,0.0022440451
71,10.1016/j.actamat.2015.01.018,4586,6(a),5856,perpendicular,MgAg0.97Sb0.99,461.5,0.000028983,,0.0019498,0.00023649,0.86918,1.0129,34502.98450816,0.0022432638
71,10.1016/j.actamat.2015.01.018,4586,6(a),5856,perpendicular,MgAg0.97Sb0.99,462,0.000028914,,0.0019504,0.0002364,0.86976,1.0137,34585.3219893477,0.0022424577
71,10.1016/j.actamat.2015.01.018,4586,6(a),5856,perpendicular,MgAg0.97Sb0.99,462.5,0.000028844,,0.001951,0.00023632,0.87033,1.0145,34669.2553043961,0.0022416784
71,10.1016/j.actamat.2015.01.018,4586,6(a),5856,perpendicular,MgAg0.97Sb0.99,463,0.000028775,,0.0019517,0.00023624,0.87091,1.0154,34752.3892267593,0.0022409893
71,10.1016/j.actamat.2015.01.018,4586,6(a),5856,perpendicular,MgAg0.97Sb0.99,463.5,0.000028705,,0.0019523,0.00023615,0.87148,1.0162,34837.136387389,0.0022402121
71,10.1016/j.actamat.2015.01.018,4586,6(a),5856,perpendicular,MgAg0.97Sb0.99,464,0.000028636,,0.0019529,0.00023607,0.87206,1.017,34921.0783628998,0.0022394101
71,10.1016/j.actamat.2015.01.018,4586,6(a),5856,perpendicular,MgAg0.97Sb0.99,464.5,0.000028567,,0.0019536,0.00023598,0.87263,1.0179,35005.4258410054,0.0022387495
71,10.1016/j.actamat.2015.01.018,4586,6(a),5856,perpendicular,MgAg0.97Sb0.99,465,0.000028498,,0.0019542,0.0002359,0.87321,1.0187,35090.1817671416,0.0022379496
71,10.1016/j.actamat.2015.01.018,4586,6(a),5856,perpendicular,MgAg0.97Sb0.99,465.5,0.000028429,,0.0019548,0.00023582,0.87378,1.0195,35175.34911534,0.0022371764
71,10.1016/j.actamat.2015.01.018,4586,6(a),5856,perpendicular,MgAg0.97Sb0.99,466,0.000028361,,0.0019554,0.00023573,0.87436,1.0204,35259.6875991679,0.0022363786
71,10.1016/j.actamat.2015.01.018,4586,6(a),5856,perpendicular,MgAg0.97Sb0.99,466.5,0.000028292,,0.0019561,0.00023565,0.87493,1.0212,35345.6807578114,0.0022357217
71,10.1016/j.actamat.2015.01.018,4586,6(a),5856,perpendicular,MgAg0.97Sb0.99,467,0.000028224,,0.0019567,0.00023556,0.87551,1.022,35430.8390022676,0.0022349259
71,10.1016/j.actamat.2015.01.018,4586,6(a),5856,perpendicular,MgAg0.97Sb0.99,467.5,0.000028156,,0.0019573,0.00023548,0.87608,1.0229,35516.4085807643,0.0022341567
71,10.1016/j.actamat.2015.01.018,4586,6(a),5856,perpendicular,MgAg0.97Sb0.99,468,0.000028088,,0.0019579,0.0002354,0.87666,1.0237,35602.3924807747,0.002233363
71,10.1016/j.actamat.2015.01.018,4586,6(a),5856,perpendicular,MgAg0.97Sb0.99,468.5,0.00002802,,0.0019586,0.00023531,0.87723,1.0245,35688.7937187723,0.0022327098
71,10.1016/j.actamat.2015.01.018,4586,6(a),5856,perpendicular,MgAg0.97Sb0.99,469,0.000027952,,0.0019592,0.00023523,0.87781,1.0253,35775.6153405839,0.0022319181
71,10.1016/j.actamat.2015.01.018,4586,6(a),5856,perpendicular,MgAg0.97Sb0.99,469.5,0.000027885,,0.0019598,0.00023514,0.87838,1.0262,35861.5743231128,0.0022311528
71,10.1016/j.actamat.2015.01.018,4586,6(a),5856,perpendicular,MgAg0.97Sb0.99,470,0.000027817,,0.0019604,0.00023506,0.87896,1.027,35949.2396735809,0.0022303632
71,10.1016/j.actamat.2015.01.018,4586,6(a),5856,perpendicular,MgAg0.97Sb0.99,470.5,0.00002775,,0.0019611,0.00023498,0.87953,1.0278,36036.036036036,0.0022297136
71,10.1016/j.actamat.2015.01.018,4586,6(a),5856,perpendicular,MgAg0.97Sb0.99,471,0.000027683,,0.0019617,0.00023489,0.88011,1.0287,36123.2525376585,0.0022289259
71,10.1016/j.actamat.2015.01.018,4586,6(a),5856,perpendicular,MgAg0.97Sb0.99,471.5,0.000027617,,0.0019623,0.00023481,0.88068,1.0295,36209.5810551472,0.0022281646
71,10.1016/j.actamat.2015.01.018,4586,6(a),5856,perpendicular,MgAg0.97Sb0.99,472,0.00002755,,0.001963,0.00023473,0.88126,1.0303,36297.6406533575,0.0022274925
71,10.1016/j.actamat.2015.01.018,4586,6(a),5856,perpendicular,MgAg0.97Sb0.99,472.5,0.000027484,,0.0019636,0.00023464,0.88183,1.0312,36384.8057051375,0.002226733
71,10.1016/j.actamat.2015.01.018,4586,6(a),5856,perpendicular,MgAg0.97Sb0.99,473,0.000027418,,0.0019642,0.00023456,0.88241,1.032,36472.3904004668,0.0022259494
71,10.1016/j.actamat.2015.01.018,4586,6(a),5856,perpendicular,MgAg0.97Sb0.99,473.5,0.000027352,,0.0019648,0.00023447,0.88298,1.0328,36560.3977771278,0.002225192
71,10.1016/j.actamat.2015.01.018,4586,6(a),5856,perpendicular,MgAg0.97Sb0.99,474,0.000027286,,0.0019655,0.00023439,0.88356,1.0337,36648.8309022942,0.0022245235
71,10.1016/j.actamat.2015.01.018,4586,6(a),5856,perpendicular,MgAg0.97Sb0.99,474.5,0.000027221,,0.0019661,0.00023431,0.88413,1.0345,36736.3432643915,0.002223768
71,10.1016/j.actamat.2015.01.018,4586,6(a),5856,perpendicular,MgAg0.97Sb0.99,475,0.000027156,,0.0019667,0.00023422,0.88471,1.0353,36824.2745617911,0.0022229883
71,10.1016/j.actamat.2015.01.018,4586,6(a),5856,perpendicular,MgAg0.97Sb0.99,475.5,0.000027091,,0.0019673,0.00023414,0.88528,1.0362,36912.6278099738,0.0022222348
71,10.1016/j.actamat.2015.01.018,4586,6(a),5856,perpendicular,MgAg0.97Sb0.99,476,0.000027026,,0.001968,0.00023405,0.88586,1.037,37001.40605343,0.00222157
71,10.1016/j.actamat.2015.01.018,4586,6(a),5856,perpendicular,MgAg0.97Sb0.99,476.5,0.000026962,,0.0019686,0.00023397,0.88643,1.0378,37089.2367035086,0.0022208183
71,10.1016/j.actamat.2015.01.018,4586,6(a),5856,perpendicular,MgAg0.97Sb0.99,477,0.000026897,,0.0019692,0.00023389,0.88701,1.0386,37178.867531695,0.0022200426
71,10.1016/j.actamat.2015.01.018,4586,6(a),5856,perpendicular,MgAg0.97Sb0.99,477.5,0.000026833,,0.0019698,0.0002338,0.88758,1.0395,37267.543696195,0.0022192929
71,10.1016/j.actamat.2015.01.018,4586,6(a),5856,perpendicular,MgAg0.97Sb0.99,478,0.00002677,,0.0019705,0.00023372,0.88816,1.0403,37355.2484124019,0.0022186318
71,10.1016/j.actamat.2015.01.018,4586,6(a),5856,perpendicular,MgAg0.97Sb0.99,478.5,0.000026706,,0.0019711,0.00023363,0.88873,1.0411,37444.7689657755,0.0022178839
71,10.1016/j.actamat.2015.01.018,4586,6(a),5856,perpendicular,MgAg0.97Sb0.99,479,0.000026643,,0.0019717,0.00023355,0.88931,1.042,37533.3108133468,0.0022171121
71,10.1016/j.actamat.2015.01.018,4586,6(a),5856,perpendicular,MgAg0.97Sb0.99,479.5,0.00002658,,0.0019724,0.00023347,0.88988,1.0428,37622.2723852521,0.0022164786
71,10.1016/j.actamat.2015.01.018,4586,6(a),5856,perpendicular,MgAg0.97Sb0.99,480,0.000026518,,0.001973,0.00023338,0.89046,1.0436,37710.234557659,0.0022157087
71,10.1016/j.actamat.2015.01.018,4586,6(a),5856,perpendicular,MgAg0.97Sb0.99,480.5,0.000026456,,0.0019736,0.0002333,0.89103,1.0445,37798.6090111884,0.0022149647
71,10.1016/j.actamat.2015.01.018,4586,6(a),5856,perpendicular,MgAg0.97Sb0.99,481,0.000026394,,0.0019742,0.00023322,0.89161,1.0453,37887.3986512086,0.0022141968
71,10.1016/j.actamat.2015.01.018,4586,6(a),5856,perpendicular,MgAg0.97Sb0.99,481.5,0.000026332,,0.0019749,0.00023313,0.89218,1.0461,37976.6064104512,0.0022135668
71,10.1016/j.actamat.2015.01.018,4586,6(a),5856,perpendicular,MgAg0.97Sb0.99,482,0.000026271,,0.0019755,0.00023305,0.89276,1.047,38064.7862662251,0.0022128008
71,10.1016/j.actamat.2015.01.018,4586,6(a),5856,perpendicular,MgAg0.97Sb0.99,482.5,0.000026209,,0.0019761,0.00023296,0.89333,1.0478,38154.832309512,0.0022120605
71,10.1016/j.actamat.2015.01.018,4586,6(a),5856,perpendicular,MgAg0.97Sb0.99,483,0.000026149,,0.0019767,0.00023288,0.89391,1.0486,38242.380205744,0.0022112964
71,10.1016/j.actamat.2015.01.018,4586,6(a),5856,perpendicular,MgAg0.97Sb0.99,483.5,0.000026088,,0.0019774,0.0002328,0.89448,1.0495,38331.8000613309,0.0022106699
71,10.1016/j.actamat.2015.01.018,4586,6(a),5856,perpendicular,MgAg0.97Sb0.99,484,0.000026028,,0.001978,0.00023271,0.89506,1.0503,38420.1629014907,0.0022099077
71,10.1016/j.actamat.2015.01.018,4586,6(a),5856,perpendicular,MgAg0.97Sb0.99,484.5,0.000025968,,0.0019786,0.00023263,0.89563,1.0511,38508.9340727049,0.0022091712
71,10.1016/j.actamat.2015.01.018,4586,6(a),5856,perpendicular,MgAg0.97Sb0.99,485,0.000025909,,0.0019792,0.00023254,0.89621,1.052,38596.6266548304,0.002208411
71,10.1016/j.actamat.2015.01.018,4586,6(a),5856,perpendicular,MgAg0.97Sb0.99,485.5,0.00002585,,0.0019799,0.00023246,0.89678,1.0528,38684.7195357834,0.0022077879
71,10.1016/j.actamat.2015.01.018,4586,6(a),5856,perpendicular,MgAg0.97Sb0.99,486,0.000025791,,0.0019805,0.00023238,0.89736,1.0536,38773.2154627583,0.0022070295
71,10.1016/j.actamat.2015.01.018,4586,6(a),5856,perpendicular,MgAg0.97Sb0.99,486.5,0.000025732,,0.0019811,0.00023229,0.89793,1.0544,38862.1172081455,0.0022062967
71,10.1016/j.actamat.2015.01.018,4586,6(a),5856,perpendicular,MgAg0.97Sb0.99,487,0.000025674,,0.0019818,0.00023221,0.89851,1.0553,38949.910415206,0.0022056516
71,10.1016/j.actamat.2015.01.018,4586,6(a),5856,perpendicular,MgAg0.97Sb0.99,487.5,0.000025616,,0.0019824,0.00023212,0.89908,1.0561,39038.1011867583,0.0022049206
71,10.1016/j.actamat.2015.01.018,4586,6(a),5856,perpendicular,MgAg0.97Sb0.99,488,0.000025559,,0.001983,0.00023204,0.89965,1.0569,39125.1613912907,0.0022041905
71,10.1016/j.actamat.2015.01.018,4586,6(a),5856,perpendicular,MgAg0.97Sb0.99,488.5,0.000025502,,0.0019836,0.00023196,0.90023,1.0578,39212.6107756254,0.0022034369
71,10.1016/j.actamat.2015.01.018,4586,6(a),5856,perpendicular,MgAg0.97Sb0.99,489,0.000025445,,0.0019843,0.00023187,0.9008,1.0586,39300.4519551975,0.0022028197
71,10.1016/j.actamat.2015.01.018,4586,6(a),5856,perpendicular,MgAg0.97Sb0.99,489.5,0.000025389,,0.0019849,0.00023179,0.90138,1.0594,39387.1361613297,0.0022020679
71,10.1016/j.actamat.2015.01.018,4586,6(a),5856,perpendicular,MgAg0.97Sb0.99,490,0.000025333,,0.0019855,0.00023171,0.90195,1.0603,39474.2036079422,0.0022013415
71,10.1016/j.actamat.2015.01.018,4586,6(a),5856,perpendicular,MgAg0.97Sb0.99,490.5,0.000025278,,0.0019861,0.00023162,0.90253,1.0611,39560.0917794129,0.0022005917
71,10.1016/j.actamat.2015.01.018,4586,6(a),5856,perpendicular,MgAg0.97Sb0.99,491,0.000025222,,0.0019868,0.00023154,0.9031,1.0619,39647.9264134486,0.0021999779
71,10.1016/j.actamat.2015.01.018,4586,6(a),5856,perpendicular,MgAg0.97Sb0.99,491.5,0.000025168,,0.0019874,0.00023145,0.90368,1.0628,39732.9942784488,0.0021992298
71,10.1016/j.actamat.2015.01.018,4586,6(a),5856,perpendicular,MgAg0.97Sb0.99,492,0.000025113,,0.001988,0.00023137,0.90425,1.0636,39820.0135388046,0.0021985071
71,10.1016/j.actamat.2015.01.018,4586,6(a),5856,perpendicular,MgAg0.97Sb0.99,492.5,0.000025059,,0.0019886,0.00023129,0.90483,1.0644,39905.8222594677,0.0021977609
71,10.1016/j.actamat.2015.01.018,4586,6(a),5856,perpendicular,MgAg0.97Sb0.99,493,0.000025006,,0.0019893,0.0002312,0.9054,1.0653,39990.4023034472,0.0021971504
71,10.1016/j.actamat.2015.01.018,4586,6(a),5856,perpendicular,MgAg0.97Sb0.99,493.5,0.000024952,,0.0019899,0.00023112,0.90598,1.0661,40076.9477396601,0.0021964061
71,10.1016/j.actamat.2015.01.018,4586,6(a),5856,perpendicular,MgAg0.97Sb0.99,494,0.0000249,,0.0019905,0.00023103,0.90655,1.0669,40160.6425702811,0.0021956869
71,10.1016/j.actamat.2015.01.018,4586,6(a),5856,perpendicular,MgAg0.97Sb0.99,494.5,0.000024847,,0.0019912,0.00023095,0.90713,1.0677,40246.3074012959,0.0021950547
71,10.1016/j.actamat.2015.01.018,4586,6(a),5856,perpendicular,MgAg0.97Sb0.99,495,0.000024795,,0.0019918,0.00023087,0.9077,1.0686,40330.7118370639,0.0021943373
71,10.1016/j.actamat.2015.01.018,4586,6(a),5856,perpendicular,MgAg0.97Sb0.99,495.5,0.000024744,,0.0019924,0.00023078,0.90828,1.0694,40413.8376980278,0.0021935967
71,10.1016/j.actamat.2015.01.018,4586,6(a),5856,perpendicular,MgAg0.97Sb0.99,496,0.000024693,,0.001993,0.0002307,0.90885,1.0702,40497.3069290892,0.0021928811
71,10.1016/j.actamat.2015.01.018,4586,6(a),5856,perpendicular,MgAg0.97Sb0.99,496.5,0.000024642,,0.0019937,0.00023061,0.90943,1.0711,40581.1216622027,0.0021922523
71,10.1016/j.actamat.2015.01.018,4586,6(a),5856,perpendicular,MgAg0.97Sb0.99,497,0.000024592,,0.0019943,0.00023053,0.91,1.0719,40663.6304489265,0.0021915385
71,10.1016/j.actamat.2015.01.018,4586,6(a),5856,perpendicular,MgAg0.97Sb0.99,497.5,0.000024542,,0.0019949,0.00023045,0.91058,1.0727,40746.4754298753,0.0021908015
71,10.1016/j.actamat.2015.01.018,4586,6(a),5856,perpendicular,MgAg0.97Sb0.99,498,0.000024493,,0.0019955,0.00023036,0.91115,1.0736,40827.9916710897,0.0021900894
71,10.1016/j.actamat.2015.01.018,4586,6(a),5856,perpendicular,MgAg0.97Sb0.99,498.5,0.000024444,,0.0019962,0.00023028,0.91173,1.0744,40909.8347242677,0.002189464
71,10.1016/j.actamat.2015.01.018,4586,6(a),5856,perpendicular,MgAg0.97Sb0.99,499,0.000024396,,0.0019968,0.0002302,0.9123,1.0752,40990.3262829972,0.0021887537
71,10.1016/j.actamat.2015.01.018,4586,6(a),5856,perpendicular,MgAg0.97Sb0.99,499.5,0.000024348,,0.0019974,0.00023011,0.91288,1.0761,41071.1352061771,0.0021880203
71,10.1016/j.actamat.2015.01.018,4586,6(a),5856,perpendicular,MgAg0.97Sb0.99,500,0.000024301,,0.001998,0.00023003,0.91345,1.0769,41150.5699353936,0.0021873118
71,10.1016/j.actamat.2015.01.018,4586,6(a),5856,perpendicular,MgAg0.97Sb0.99,500.5,0.000024254,,0.0019987,0.00022994,0.91403,1.0777,41230.3125257689,0.0021866897
71,10.1016/j.actamat.2015.01.018,4586,6(a),5856,perpendicular,MgAg0.97Sb0.99,501,0.000024207,,0.0019993,0.00022986,0.9146,1.0786,41310.3647705209,0.0021859829
71,10.1016/j.actamat.2015.01.018,4586,6(a),5856,perpendicular,MgAg0.97Sb0.99,501.5,0.000024161,,0.0019999,0.00022978,0.91518,1.0794,41389.0153553247,0.0021852532
71,10.1016/j.actamat.2015.01.018,4586,6(a),5856,perpendicular,MgAg0.97Sb0.99,502,0.000024116,,0.0020005,0.00022969,0.91575,1.0802,41466.2464753691,0.0021845482
71,10.1016/j.actamat.2015.01.018,4586,6(a),5856,perpendicular,MgAg0.97Sb0.99,502.5,0.000024071,,0.0020012,0.00022961,0.91633,1.081,41543.766357858,0.0021839294
71,10.1016/j.actamat.2015.01.018,4586,6(a),5856,perpendicular,MgAg0.97Sb0.99,503,0.000024026,,0.0020018,0.00022952,0.9169,1.0819,41621.5766253226,0.0021832261
71,10.1016/j.actamat.2015.01.018,4586,6(a),5856,perpendicular,MgAg0.97Sb0.99,503.5,0.000023982,,0.0020024,0.00022944,0.91748,1.0827,41697.940121758,0.0021824999
71,10.1016/j.actamat.2015.01.018,4586,6(a),5856,perpendicular,MgAg0.97Sb0.99,504,0.000023939,,0.0020031,0.00022936,0.91805,1.0835,41772.8392998872,0.0021819073
71,10.1016/j.actamat.2015.01.018,4586,6(a),5856,perpendicular,MgAg0.97Sb0.99,504.5,0.000023896,,0.0020037,0.00022927,0.91863,1.0844,41848.0080348175,0.0021811828
71,10.1016/j.actamat.2015.01.018,4586,6(a),5856,perpendicular,MgAg0.97Sb0.99,505,0.000023853,,0.0020043,0.00022919,0.9192,1.0852,41923.4477843458,0.002180483
71,10.1016/j.actamat.2015.01.018,4586,6(a),5856,perpendicular,MgAg0.97Sb0.99,505.5,0.000023811,,0.0020049,0.00022911,0.91978,1.086,41997.396161438,0.0021797604
71,10.1016/j.actamat.2015.01.018,4586,6(a),5856,perpendicular,MgAg0.97Sb0.99,506,0.00002377,,0.0020056,0.00022902,0.92035,1.0869,42069.8359276399,0.002179171
71,10.1016/j.actamat.2015.01.018,4586,6(a),5856,perpendicular,MgAg0.97Sb0.99,506.5,0.000023729,,0.0020062,0.00022894,0.92093,1.0877,42142.5260230098,0.00217845
71,10.1016/j.actamat.2015.01.018,4586,6(a),5856,perpendicular,MgAg0.97Sb0.99,507,0.000023689,,0.0020068,0.00022885,0.9215,1.0885,42213.6856768964,0.0021777537
71,10.1016/j.actamat.2015.01.018,4586,6(a),5856,perpendicular,MgAg0.97Sb0.99,507.5,0.000023649,,0.0020074,0.00022877,0.92208,1.0894,42285.0860501501,0.0021770345
71,10.1016/j.actamat.2015.01.018,4586,6(a),5856,perpendicular,MgAg0.97Sb0.99,508,0.00002361,,0.0020081,0.00022869,0.92265,1.0902,42354.9343498518,0.0021764483
71,10.1016/j.actamat.2015.01.018,4586,6(a),5856,perpendicular,MgAg0.97Sb0.99,508.5,0.000023571,,0.0020087,0.0002286,0.92323,1.091,42425.0137881295,0.0021757309
71,10.1016/j.actamat.2015.01.018,4586,6(a),5856,perpendicular,MgAg0.97Sb0.99,509,0.000023533,,0.0020093,0.00022852,0.9238,1.0919,42493.5197382399,0.0021750379
71,10.1016/j.actamat.2015.01.018,4586,6(a),5856,perpendicular,MgAg0.97Sb0.99,509.5,0.000023495,,0.0020099,0.00022843,0.92438,1.0927,42562.2472866567,0.0021743222