sid,DOI,figureid,fignum,sampleid,samplename,composition,Temperature,Electrical resistivity,Lattice thermal conductivity,Power factor,Seebeck coefficient,Thermal conductivity,ZT,Electrical conductivity,Figure of merit Z
71,10.1016/j.actamat.2015.01.018,4580,3(a),5852,MgAg0.967Cu0.003Sb0.99,MgAg0.967Cu0.003Sb0.99,512.5,0.00002158,,0.0022908,0.00022087,0.90955,1.2485,46339.202965709,0.0025186081
71,10.1016/j.actamat.2015.01.018,4580,3(a),5852,MgAg0.967Cu0.003Sb0.99,MgAg0.967Cu0.003Sb0.99,513,0.000021521,,0.0022914,0.00022075,0.91013,1.2493,46466.2422749872,0.0025176623
71,10.1016/j.actamat.2015.01.018,4580,3(a),5852,MgAg0.967Cu0.003Sb0.99,MgAg0.967Cu0.003Sb0.99,513.5,0.000021462,,0.0022919,0.00022063,0.91071,1.2502,46593.9800577765,0.0025166079
71,10.1016/j.actamat.2015.01.018,4580,3(a),5852,MgAg0.967Cu0.003Sb0.99,MgAg0.967Cu0.003Sb0.99,514,0.000021402,,0.0022925,0.00022051,0.91129,1.251,46724.6051770863,0.0025156646
71,10.1016/j.actamat.2015.01.018,4580,3(a),5852,MgAg0.967Cu0.003Sb0.99,MgAg0.967Cu0.003Sb0.99,514.5,0.000021343,,0.0022931,0.00022039,0.91186,1.2519,46853.7693857471,0.0025147501
71,10.1016/j.actamat.2015.01.018,4580,3(a),5852,MgAg0.967Cu0.003Sb0.99,MgAg0.967Cu0.003Sb0.99,515,0.000021283,,0.0022936,0.00022028,0.91244,1.2527,46985.8572569657,0.0025136995
71,10.1016/j.actamat.2015.01.018,4580,3(a),5852,MgAg0.967Cu0.003Sb0.99,MgAg0.967Cu0.003Sb0.99,515.5,0.000021223,,0.0022942,0.00022016,0.91302,1.2535,47118.6919851105,0.0025127599
71,10.1016/j.actamat.2015.01.018,4580,3(a),5852,MgAg0.967Cu0.003Sb0.99,MgAg0.967Cu0.003Sb0.99,516,0.000021163,,0.0022947,0.00022004,0.91359,1.2544,47252.2799225063,0.0025117394
71,10.1016/j.actamat.2015.01.018,4580,3(a),5852,MgAg0.967Cu0.003Sb0.99,MgAg0.967Cu0.003Sb0.99,516.5,0.000021103,,0.0022953,0.00021992,0.91417,1.2552,47386.6274937213,0.0025108021
71,10.1016/j.actamat.2015.01.018,4580,3(a),5852,MgAg0.967Cu0.003Sb0.99,MgAg0.967Cu0.003Sb0.99,517,0.000021043,,0.0022958,0.0002198,0.91475,1.2561,47521.7411965974,0.0025097568
71,10.1016/j.actamat.2015.01.018,4580,3(a),5852,MgAg0.967Cu0.003Sb0.99,MgAg0.967Cu0.003Sb0.99,517.5,0.000020983,,0.0022964,0.00021968,0.91533,1.2569,47657.6276032979,0.002508822
71,10.1016/j.actamat.2015.01.018,4580,3(a),5852,MgAg0.967Cu0.003Sb0.99,MgAg0.967Cu0.003Sb0.99,518,0.000020922,,0.002297,0.00021956,0.9159,1.2578,47796.577765032,0.0025079157
71,10.1016/j.actamat.2015.01.018,4580,3(a),5852,MgAg0.967Cu0.003Sb0.99,MgAg0.967Cu0.003Sb0.99,518.5,0.000020862,,0.0022975,0.00021944,0.91648,1.2586,47934.0427571661,0.0025068741
71,10.1016/j.actamat.2015.01.018,4580,3(a),5852,MgAg0.967Cu0.003Sb0.99,MgAg0.967Cu0.003Sb0.99,519,0.000020801,,0.0022981,0.00021932,0.91706,1.2594,48074.6117975097,0.0025059429
71,10.1016/j.actamat.2015.01.018,4580,3(a),5852,MgAg0.967Cu0.003Sb0.99,MgAg0.967Cu0.003Sb0.99,519.5,0.00002074,,0.0022986,0.00021921,0.91764,1.2603,48216.0077145612,0.0025049039
71,10.1016/j.actamat.2015.01.018,4580,3(a),5852,MgAg0.967Cu0.003Sb0.99,MgAg0.967Cu0.003Sb0.99,520,0.000020679,,0.0022992,0.00021909,0.91821,1.2611,48358.2378258136,0.0025040024
71,10.1016/j.actamat.2015.01.018,4580,3(a),5852,MgAg0.967Cu0.003Sb0.99,MgAg0.967Cu0.003Sb0.99,520.5,0.000020618,,0.0022997,0.00021897,0.91879,1.262,48501.3095353575,0.0025029659
71,10.1016/j.actamat.2015.01.018,4580,3(a),5852,MgAg0.967Cu0.003Sb0.99,MgAg0.967Cu0.003Sb0.99,521,0.000020557,,0.0023003,0.00021885,0.91937,1.2628,48645.2303351656,0.0025020394
71,10.1016/j.actamat.2015.01.018,4580,3(a),5852,MgAg0.967Cu0.003Sb0.99,MgAg0.967Cu0.003Sb0.99,521.5,0.000020496,,0.0023009,0.00021873,0.91995,1.2637,48790.0078064012,0.0025011142
71,10.1016/j.actamat.2015.01.018,4580,3(a),5852,MgAg0.967Cu0.003Sb0.99,MgAg0.967Cu0.003Sb0.99,522,0.000020434,,0.0023014,0.00021861,0.92052,1.2645,48938.0444357443,0.0025001086
71,10.1016/j.actamat.2015.01.018,4580,3(a),5852,MgAg0.967Cu0.003Sb0.99,MgAg0.967Cu0.003Sb0.99,522.5,0.000020373,,0.002302,0.00021849,0.9211,1.2653,49084.5727187945,0.0024991858
71,10.1016/j.actamat.2015.01.018,4580,3(a),5852,MgAg0.967Cu0.003Sb0.99,MgAg0.967Cu0.003Sb0.99,523,0.000020311,,0.0023025,0.00021837,0.92168,1.2662,49234.4050022155,0.0024981555
71,10.1016/j.actamat.2015.01.018,4580,3(a),5852,MgAg0.967Cu0.003Sb0.99,MgAg0.967Cu0.003Sb0.99,523.5,0.000020249,,0.0023031,0.00021825,0.92225,1.267,49385.1548224604,0.0024972621
71,10.1016/j.actamat.2015.01.018,4580,3(a),5852,MgAg0.967Cu0.003Sb0.99,MgAg0.967Cu0.003Sb0.99,524,0.000020187,,0.0023036,0.00021814,0.92283,1.2679,49536.8306335761,0.0024962344
71,10.1016/j.actamat.2015.01.018,4580,3(a),5852,MgAg0.967Cu0.003Sb0.99,MgAg0.967Cu0.003Sb0.99,524.5,0.000020125,,0.0023042,0.00021802,0.92341,1.2687,49689.4409937888,0.0024953163
71,10.1016/j.actamat.2015.01.018,4580,3(a),5852,MgAg0.967Cu0.003Sb0.99,MgAg0.967Cu0.003Sb0.99,525,0.000020063,,0.0023048,0.0002179,0.92399,1.2696,49842.9945671136,0.0024943993
71,10.1016/j.actamat.2015.01.018,4580,3(a),5852,MgAg0.967Cu0.003Sb0.99,MgAg0.967Cu0.003Sb0.99,525.5,0.00002,,0.0023053,0.00021778,0.92456,1.2704,50000,0.0024934023
71,10.1016/j.actamat.2015.01.018,4580,3(a),5852,MgAg0.967Cu0.003Sb0.99,MgAg0.967Cu0.003Sb0.99,526,0.000019938,,0.0023059,0.00021766,0.92514,1.2712,50155.481994182,0.0024924876
71,10.1016/j.actamat.2015.01.018,4580,3(a),5852,MgAg0.967Cu0.003Sb0.99,MgAg0.967Cu0.003Sb0.99,526.5,0.000019875,,0.0023064,0.00021754,0.92572,1.2721,50314.465408805,0.0024914661
71,10.1016/j.actamat.2015.01.018,4580,3(a),5852,MgAg0.967Cu0.003Sb0.99,MgAg0.967Cu0.003Sb0.99,527,0.000019812,,0.002307,0.00021742,0.9263,1.2729,50474.4599232788,0.0024905538
71,10.1016/j.actamat.2015.01.018,4580,3(a),5852,MgAg0.967Cu0.003Sb0.99,MgAg0.967Cu0.003Sb0.99,527.5,0.000019749,,0.0023075,0.0002173,0.92687,1.2738,50635.4752139349,0.0024895616
71,10.1016/j.actamat.2015.01.018,4580,3(a),5852,MgAg0.967Cu0.003Sb0.99,MgAg0.967Cu0.003Sb0.99,528,0.000019686,,0.0023081,0.00021718,0.92745,1.2746,50797.5210809712,0.0024886517
71,10.1016/j.actamat.2015.01.018,4580,3(a),5852,MgAg0.967Cu0.003Sb0.99,MgAg0.967Cu0.003Sb0.99,528.5,0.000019623,,0.0023087,0.00021707,0.92803,1.2755,50960.6074504408,0.0024877429
71,10.1016/j.actamat.2015.01.018,4580,3(a),5852,MgAg0.967Cu0.003Sb0.99,MgAg0.967Cu0.003Sb0.99,529,0.00001956,,0.0023092,0.00021695,0.92861,1.2763,51124.7443762781,0.0024867275
71,10.1016/j.actamat.2015.01.018,4580,3(a),5852,MgAg0.967Cu0.003Sb0.99,MgAg0.967Cu0.003Sb0.99,529.5,0.000019496,,0.0023098,0.00021683,0.92918,1.2771,51292.5728354534,0.0024858477
71,10.1016/j.actamat.2015.01.018,4580,3(a),5852,MgAg0.967Cu0.003Sb0.99,MgAg0.967Cu0.003Sb0.99,530,0.000019433,,0.0023103,0.00021671,0.92976,1.278,51458.8586425153,0.0024848348
71,10.1016/j.actamat.2015.01.018,4580,3(a),5852,MgAg0.967Cu0.003Sb0.99,MgAg0.967Cu0.003Sb0.99,530.5,0.000019369,,0.0023109,0.00021659,0.93034,1.2788,51628.8915276989,0.0024839306
71,10.1016/j.actamat.2015.01.018,4580,3(a),5852,MgAg0.967Cu0.003Sb0.99,MgAg0.967Cu0.003Sb0.99,531,0.000019305,,0.0023114,0.00021647,0.93091,1.2797,51800.0518000518,0.0024829468
71,10.1016/j.actamat.2015.01.018,4580,3(a),5852,MgAg0.967Cu0.003Sb0.99,MgAg0.967Cu0.003Sb0.99,531.5,0.000019241,,0.002312,0.00021635,0.93149,1.2805,51972.3507094226,0.0024820449
71,10.1016/j.actamat.2015.01.018,4580,3(a),5852,MgAg0.967Cu0.003Sb0.99,MgAg0.967Cu0.003Sb0.99,532,0.000019177,,0.0023125,0.00021623,0.93207,1.2814,52145.7996558377,0.0024810368
71,10.1016/j.actamat.2015.01.018,4580,3(a),5852,MgAg0.967Cu0.003Sb0.99,MgAg0.967Cu0.003Sb0.99,532.5,0.000019113,,0.0023131,0.00021611,0.93265,1.2822,52320.4101920159,0.0024801372
71,10.1016/j.actamat.2015.01.018,4580,3(a),5852,MgAg0.967Cu0.003Sb0.99,MgAg0.967Cu0.003Sb0.99,533,0.000019049,,0.0023137,0.000216,0.93322,1.283,52496.1940259331,0.0024792653
71,10.1016/j.actamat.2015.01.018,4580,3(a),5852,MgAg0.967Cu0.003Sb0.99,MgAg0.967Cu0.003Sb0.99,533.5,0.000018984,,0.0023142,0.00021588,0.9338,1.2839,52675.9376316898,0.0024782609
71,10.1016/j.actamat.2015.01.018,4580,3(a),5852,MgAg0.967Cu0.003Sb0.99,MgAg0.967Cu0.003Sb0.99,534,0.000018919,,0.0023148,0.00021576,0.93438,1.2847,52856.9163275015,0.0024773647
71,10.1016/j.actamat.2015.01.018,4580,3(a),5852,MgAg0.967Cu0.003Sb0.99,MgAg0.967Cu0.003Sb0.99,534.5,0.000018855,,0.0023153,0.00021564,0.93496,1.2856,53036.3298859719,0.0024763626
71,10.1016/j.actamat.2015.01.018,4580,3(a),5852,MgAg0.967Cu0.003Sb0.99,MgAg0.967Cu0.003Sb0.99,535,0.00001879,,0.0023159,0.00021552,0.93553,1.2864,53219.7977647685,0.0024754952
71,10.1016/j.actamat.2015.01.018,4580,3(a),5852,MgAg0.967Cu0.003Sb0.99,MgAg0.967Cu0.003Sb0.99,535.5,0.000018725,,0.0023164,0.0002154,0.93611,1.2872,53404.5393858478,0.0024744955
71,10.1016/j.actamat.2015.01.018,4580,3(a),5852,MgAg0.967Cu0.003Sb0.99,MgAg0.967Cu0.003Sb0.99,536,0.00001866,,0.002317,0.00021528,0.93669,1.2881,53590.5680600214,0.0024736039
71,10.1016/j.actamat.2015.01.018,4580,3(a),5852,MgAg0.967Cu0.003Sb0.99,MgAg0.967Cu0.003Sb0.99,536.5,0.000018594,,0.0023176,0.00021516,0.93726,1.2889,53780.7895019899,0.0024727397
71,10.1016/j.actamat.2015.01.018,4580,3(a),5852,MgAg0.967Cu0.003Sb0.99,MgAg0.967Cu0.003Sb0.99,537,0.000018529,,0.0023181,0.00021504,0.93784,1.2898,53969.4532894382,0.0024717436
71,10.1016/j.actamat.2015.01.018,4580,3(a),5852,MgAg0.967Cu0.003Sb0.99,MgAg0.967Cu0.003Sb0.99,537.5,0.000018464,,0.0023187,0.00021493,0.93842,1.2906,54159.445407279,0.0024708553
71,10.1016/j.actamat.2015.01.018,4580,3(a),5852,MgAg0.967Cu0.003Sb0.99,MgAg0.967Cu0.003Sb0.99,538,0.000018398,,0.0023192,0.00021481,0.939,1.2915,54353.7341015328,0.0024698616
71,10.1016/j.actamat.2015.01.018,4580,3(a),5852,MgAg0.967Cu0.003Sb0.99,MgAg0.967Cu0.003Sb0.99,538.5,0.000018332,,0.0023198,0.00021469,0.93957,1.2923,54549.4217761292,0.0024690018
71,10.1016/j.actamat.2015.01.018,4580,3(a),5852,MgAg0.967Cu0.003Sb0.99,MgAg0.967Cu0.003Sb0.99,539,0.000018266,,0.0023203,0.00021457,0.94015,1.2931,54746.5235957517,0.0024680104
71,10.1016/j.actamat.2015.01.018,4580,3(a),5852,MgAg0.967Cu0.003Sb0.99,MgAg0.967Cu0.003Sb0.99,539.5,0.0000182,,0.0023209,0.00021445,0.94073,1.294,54945.054945055,0.0024671266
71,10.1016/j.actamat.2015.01.018,4580,3(a),5852,MgAg0.967Cu0.003Sb0.99,MgAg0.967Cu0.003Sb0.99,540,0.000018134,,0.0023215,0.00021433,0.94131,1.2948,55145.0314326679,0.0024662439
71,10.1016/j.actamat.2015.01.018,4580,3(a),5852,MgAg0.967Cu0.003Sb0.99,MgAg0.967Cu0.003Sb0.99,540.5,0.000018068,,0.002322,0.00021421,0.94188,1.2957,55346.4688952845,0.0024652822
71,10.1016/j.actamat.2015.01.018,4580,3(a),5852,MgAg0.967Cu0.003Sb0.99,MgAg0.967Cu0.003Sb0.99,541,0.000018001,,0.0023226,0.00021409,0.94246,1.2965,55552.4693072607,0.0024644017
71,10.1016/j.actamat.2015.01.018,4580,3(a),5852,MgAg0.967Cu0.003Sb0.99,MgAg0.967Cu0.003Sb0.99,541.5,0.000017935,,0.0023231,0.00021397,0.94304,1.2974,55756.8999163647,0.0024634162
71,10.1016/j.actamat.2015.01.018,4580,3(a),5852,MgAg0.967Cu0.003Sb0.99,MgAg0.967Cu0.003Sb0.99,542,0.000017868,,0.0023237,0.00021386,0.94362,1.2982,55965.9726886053,0.0024625379
71,10.1016/j.actamat.2015.01.018,4580,3(a),5852,MgAg0.967Cu0.003Sb0.99,MgAg0.967Cu0.003Sb0.99,542.5,0.000017801,,0.0023242,0.00021374,0.94419,1.299,56176.6192910511,0.0024615808
71,10.1016/j.actamat.2015.01.018,4580,3(a),5852,MgAg0.967Cu0.003Sb0.99,MgAg0.967Cu0.003Sb0.99,543,0.000017734,,0.0023248,0.00021362,0.94477,1.2999,56388.8575617458,0.0024607047
71,10.1016/j.actamat.2015.01.018,4580,3(a),5852,MgAg0.967Cu0.003Sb0.99,MgAg0.967Cu0.003Sb0.99,543.5,0.000017667,,0.0023254,0.0002135,0.94535,1.3007,56602.7056093281,0.0024598297
71,10.1016/j.actamat.2015.01.018,4580,3(a),5852,MgAg0.967Cu0.003Sb0.99,MgAg0.967Cu0.003Sb0.99,544,0.0000176,,0.0023259,0.00021338,0.94592,1.3016,56818.1818181818,0.002458876
71,10.1016/j.actamat.2015.01.018,4580,3(a),5852,MgAg0.967Cu0.003Sb0.99,MgAg0.967Cu0.003Sb0.99,544.5,0.000017532,,0.0023265,0.00021326,0.9465,1.3024,57038.5580652521,0.0024580032
71,10.1016/j.actamat.2015.01.018,4580,3(a),5852,MgAg0.967Cu0.003Sb0.99,MgAg0.967Cu0.003Sb0.99,545,0.000017465,,0.002327,0.00021314,0.94708,1.3033,57257.3718866304,0.0024570258
71,10.1016/j.actamat.2015.01.018,4580,3(a),5852,MgAg0.967Cu0.003Sb0.99,MgAg0.967Cu0.003Sb0.99,545.5,0.000017397,,0.0023276,0.00021302,0.94766,1.3041,57481.1749152153,0.0024561552
71,10.1016/j.actamat.2015.01.018,4580,3(a),5852,MgAg0.967Cu0.003Sb0.99,MgAg0.967Cu0.003Sb0.99,546,0.00001733,,0.0023281,0.0002129,0.94823,1.3049,57703.4045008656,0.002455206
71,10.1016/j.actamat.2015.01.018,4580,3(a),5852,MgAg0.967Cu0.003Sb0.99,MgAg0.967Cu0.003Sb0.99,546.5,0.000017262,,0.0026231,0.00021279,0.94881,1.5109,57930.7148650214,0.0027646209
71,10.1016/j.actamat.2015.01.018,4580,3(a),5852,MgAg0.967Cu0.003Sb0.99,MgAg0.967Cu0.003Sb0.99,547,0.000017194,,,,0.94939,,58159.8231941375,
71,10.1016/j.actamat.2015.01.018,4580,3(a),5852,MgAg0.967Cu0.003Sb0.99,MgAg0.967Cu0.003Sb0.99,547.5,0.000017126,,,,0.94997,,58390.7509050566,
71,10.1016/j.actamat.2015.01.018,4582,3(c),5852,MgAg0.967Cu0.003Sb0.99,MgAg0.967Cu0.003Sb0.99,303,,0.56228,0.0020576,,0.66765,0.9338,,0.0030818543
71,10.1016/j.actamat.2015.01.018,4583,3(d),5852,MgAg0.967Cu0.003Sb0.99,MgAg0.967Cu0.003Sb0.99,296.5,,,,,0.66015,,,
71,10.1016/j.actamat.2015.01.018,4583,3(d),5852,MgAg0.967Cu0.003Sb0.99,MgAg0.967Cu0.003Sb0.99,297,,,,,0.66073,,,
71,10.1016/j.actamat.2015.01.018,4583,3(d),5852,MgAg0.967Cu0.003Sb0.99,MgAg0.967Cu0.003Sb0.99,297.5,,,,,0.6613,,,
71,10.1016/j.actamat.2015.01.018,4583,3(d),5852,MgAg0.967Cu0.003Sb0.99,MgAg0.967Cu0.003Sb0.99,298,,,,,0.66188,,,
71,10.1016/j.actamat.2015.01.018,4583,3(d),5852,MgAg0.967Cu0.003Sb0.99,MgAg0.967Cu0.003Sb0.99,298.5,,,,,0.66246,,,
71,10.1016/j.actamat.2015.01.018,4583,3(d),5852,MgAg0.967Cu0.003Sb0.99,MgAg0.967Cu0.003Sb0.99,299,,,,,0.66303,,,
71,10.1016/j.actamat.2015.01.018,4583,3(d),5852,MgAg0.967Cu0.003Sb0.99,MgAg0.967Cu0.003Sb0.99,299.5,,,,,0.66361,,,
71,10.1016/j.actamat.2015.01.018,4583,3(d),5852,MgAg0.967Cu0.003Sb0.99,MgAg0.967Cu0.003Sb0.99,300,,,,,0.66419,,,
71,10.1016/j.actamat.2015.01.018,4583,3(d),5852,MgAg0.967Cu0.003Sb0.99,MgAg0.967Cu0.003Sb0.99,300.5,,,,,0.66477,,,
71,10.1016/j.actamat.2015.01.018,4583,3(d),5852,MgAg0.967Cu0.003Sb0.99,MgAg0.967Cu0.003Sb0.99,301,,,,,0.66534,,,
71,10.1016/j.actamat.2015.01.018,4583,3(d),5852,MgAg0.967Cu0.003Sb0.99,MgAg0.967Cu0.003Sb0.99,301.5,,,,,0.66592,,,
71,10.1016/j.actamat.2015.01.018,4583,3(d),5852,MgAg0.967Cu0.003Sb0.99,MgAg0.967Cu0.003Sb0.99,302,,,,,0.6665,,,
71,10.1016/j.actamat.2015.01.018,4583,3(d),5852,MgAg0.967Cu0.003Sb0.99,MgAg0.967Cu0.003Sb0.99,302.5,,,,,0.66708,,,
71,10.1016/j.actamat.2015.01.018,4583,3(d),5852,MgAg0.967Cu0.003Sb0.99,MgAg0.967Cu0.003Sb0.99,548,,,,,0.95054,,,
71,10.1016/j.actamat.2015.01.018,4583,3(d),5852,MgAg0.967Cu0.003Sb0.99,MgAg0.967Cu0.003Sb0.99,548.5,,,,,0.95112,,,
71,10.1016/j.actamat.2015.01.018,4583,3(d),5852,MgAg0.967Cu0.003Sb0.99,MgAg0.967Cu0.003Sb0.99,549,,,,,0.9517,,,
71,10.1016/j.actamat.2015.01.018,4580,3(a),5853,MgAg0.963Cu0.007Sb0.99,MgAg0.963Cu0.007Sb0.99,303.5,0.000030972,0.51326,,,0.65141,,32287.2271729304,
71,10.1016/j.actamat.2015.01.018,4580,3(a),5853,MgAg0.963Cu0.007Sb0.99,MgAg0.963Cu0.007Sb0.99,304,0.000030948,0.51336,0.001951,0.00025317,0.65198,0.96464,32312.2657360734,0.0029924231
71,10.1016/j.actamat.2015.01.018,4580,3(a),5853,MgAg0.963Cu0.007Sb0.99,MgAg0.963Cu0.007Sb0.99,304.5,0.000030923,0.51347,0.0019516,0.00025308,0.65255,0.96548,32338.3889014649,0.0029907287
71,10.1016/j.actamat.2015.01.018,4580,3(a),5853,MgAg0.963Cu0.007Sb0.99,MgAg0.963Cu0.007Sb0.99,305,0.000030898,0.51357,0.0019522,0.00025299,0.65312,0.96633,32364.5543400867,0.0029890372
71,10.1016/j.actamat.2015.01.018,4580,3(a),5853,MgAg0.963Cu0.007Sb0.99,MgAg0.963Cu0.007Sb0.99,305.5,0.000030873,0.51368,0.0019529,0.0002529,0.65369,0.96717,32390.7621546335,0.0029875017
71,10.1016/j.actamat.2015.01.018,4580,3(a),5853,MgAg0.963Cu0.007Sb0.99,MgAg0.963Cu0.007Sb0.99,306,0.000030849,0.51378,0.0019535,0.00025281,0.65426,0.96801,32415.9616195014,0.002985816
71,10.1016/j.actamat.2015.01.018,4580,3(a),5853,MgAg0.963Cu0.007Sb0.99,MgAg0.963Cu0.007Sb0.99,306.5,0.000030824,0.51388,0.0019541,0.00025272,0.65482,0.96885,32442.2527900337,0.0029841789
71,10.1016/j.actamat.2015.01.018,4580,3(a),5853,MgAg0.963Cu0.007Sb0.99,MgAg0.963Cu0.007Sb0.99,307,0.000030799,0.51399,0.0019548,0.00025264,0.65539,0.9697,32468.5866424235,0.0029826516
71,10.1016/j.actamat.2015.01.018,4580,3(a),5853,MgAg0.963Cu0.007Sb0.99,MgAg0.963Cu0.007Sb0.99,307.5,0.000030775,0.51409,0.0019554,0.00025255,0.65596,0.97054,32493.9073923639,0.0029809744
71,10.1016/j.actamat.2015.01.018,4580,3(a),5853,MgAg0.963Cu0.007Sb0.99,MgAg0.963Cu0.007Sb0.99,308,0.00003075,0.5142,0.001956,0.00025246,0.65653,0.97138,32520.325203252,0.0029793003
71,10.1016/j.actamat.2015.01.018,4580,3(a),5853,MgAg0.963Cu0.007Sb0.99,MgAg0.963Cu0.007Sb0.99,308.5,0.000030725,0.5143,0.0019567,0.00025237,0.6571,0.97223,32546.786004882,0.0029777812
71,10.1016/j.actamat.2015.01.018,4580,3(a),5853,MgAg0.963Cu0.007Sb0.99,MgAg0.963Cu0.007Sb0.99,309,0.0000307,0.51441,0.0019573,0.00025228,0.65766,0.97307,32573.2899022801,0.0029761579
71,10.1016/j.actamat.2015.01.018,4580,3(a),5853,MgAg0.963Cu0.007Sb0.99,MgAg0.963Cu0.007Sb0.99,309.5,0.000030676,0.51451,0.0019579,0.00025219,0.65823,0.97391,32598.7742860868,0.0029744922
71,10.1016/j.actamat.2015.01.018,4580,3(a),5853,MgAg0.963Cu0.007Sb0.99,MgAg0.963Cu0.007Sb0.99,310,0.000030651,0.51461,0.0019586,0.00025211,0.6588,0.97476,32625.3629571629,0.0029729812
71,10.1016/j.actamat.2015.01.018,4580,3(a),5853,MgAg0.963Cu0.007Sb0.99,MgAg0.963Cu0.007Sb0.99,310.5,0.000030626,0.51472,0.0019592,0.00025202,0.65937,0.9756,32651.9950368968,0.0029713211
71,10.1016/j.actamat.2015.01.018,4580,3(a),5853,MgAg0.963Cu0.007Sb0.99,MgAg0.963Cu0.007Sb0.99,311,0.000030602,0.51482,0.0019598,0.00025193,0.65994,0.97644,32677.6027710607,0.0029696639
71,10.1016/j.actamat.2015.01.018,4580,3(a),5853,MgAg0.963Cu0.007Sb0.99,MgAg0.963Cu0.007Sb0.99,311.5,0.000030577,0.51493,0.0019605,0.00025184,0.66051,0.97729,32704.3202407038,0.002968161
71,10.1016/j.actamat.2015.01.018,4580,3(a),5853,MgAg0.963Cu0.007Sb0.99,MgAg0.963Cu0.007Sb0.99,312,0.000030552,0.51503,0.0019611,0.00025175,0.66107,0.97813,32731.0814349306,0.0029665542
71,10.1016/j.actamat.2015.01.018,4580,3(a),5853,MgAg0.963Cu0.007Sb0.99,MgAg0.963Cu0.007Sb0.99,312.5,0.000030527,0.51514,0.0019617,0.00025166,0.66164,0.97897,32757.8864611655,0.0029649054
71,10.1016/j.actamat.2015.01.018,4580,3(a),5853,MgAg0.963Cu0.007Sb0.99,MgAg0.963Cu0.007Sb0.99,313,0.000030503,0.51524,0.0019624,0.00025157,0.66221,0.97982,32783.6606235452,0.0029634104
71,10.1016/j.actamat.2015.01.018,4580,3(a),5853,MgAg0.963Cu0.007Sb0.99,MgAg0.963Cu0.007Sb0.99,313.5,0.000030478,0.51534,0.001963,0.00025149,0.66278,0.98066,32810.5518734825,0.0029617671
71,10.1016/j.actamat.2015.01.018,4580,3(a),5853,MgAg0.963Cu0.007Sb0.99,MgAg0.963Cu0.007Sb0.99,314,0.000030453,0.51545,0.0019636,0.0002514,0.66335,0.9815,32837.4872754737,0.0029601266
71,10.1016/j.actamat.2015.01.018,4580,3(a),5853,MgAg0.963Cu0.007Sb0.99,MgAg0.963Cu0.007Sb0.99,314.5,0.000030429,0.51555,0.0019643,0.00025131,0.66391,0.98235,32863.386900654,0.0029586842
71,10.1016/j.actamat.2015.01.018,4580,3(a),5853,MgAg0.963Cu0.007Sb0.99,MgAg0.963Cu0.007Sb0.99,315,0.000030404,0.51566,0.0019649,0.00025122,0.66448,0.98319,32890.4091566899,0.0029570491
71,10.1016/j.actamat.2015.01.018,4580,3(a),5853,MgAg0.963Cu0.007Sb0.99,MgAg0.963Cu0.007Sb0.99,315.5,0.000030379,0.51576,0.0019655,0.00025113,0.66505,0.98403,32917.4758879489,0.0029554169
71,10.1016/j.actamat.2015.01.018,4580,3(a),5853,MgAg0.963Cu0.007Sb0.99,MgAg0.963Cu0.007Sb0.99,316,0.000030354,0.51587,0.0019662,0.00025104,0.66562,0.98488,32944.5872043223,0.0029539377
71,10.1016/j.actamat.2015.01.018,4580,3(a),5853,MgAg0.963Cu0.007Sb0.99,MgAg0.963Cu0.007Sb0.99,316.5,0.00003033,0.51597,0.0019668,0.00025095,0.66619,0.98572,32970.6561160567,0.0029523109
71,10.1016/j.actamat.2015.01.018,4580,3(a),5853,MgAg0.963Cu0.007Sb0.99,MgAg0.963Cu0.007Sb0.99,317,0.000030305,0.51607,0.0019674,0.00025087,0.66675,0.98656,32997.8551394159,0.0029507312