sid,DOI,figureid,fignum,sampleid,samplename,composition,Temperature,Electrical resistivity,Lattice thermal conductivity,Power factor,Seebeck coefficient,Thermal conductivity,ZT,Electrical conductivity,Figure of merit Z
71,10.1016/j.actamat.2015.01.018,4580,3(a),5851,MgAg0.97Sb0.99,MgAg0.97Sb0.99,544,0.000020317,,0.0021833,0.00021492,0.96498,1.226,49219.8651375695,0.0022625339
71,10.1016/j.actamat.2015.01.018,4580,3(a),5851,MgAg0.97Sb0.99,MgAg0.97Sb0.99,544.5,0.00002027,,0.0021842,0.00021479,0.96555,1.2269,49333.9911198816,0.0022621304
71,10.1016/j.actamat.2015.01.018,4580,3(a),5851,MgAg0.97Sb0.99,MgAg0.97Sb0.99,545,0.000020222,,0.0021851,0.00021466,0.96612,1.2278,49451.0928691524,0.0022617273
71,10.1016/j.actamat.2015.01.018,4580,3(a),5851,MgAg0.97Sb0.99,MgAg0.97Sb0.99,545.5,0.000020175,,0.002186,0.00021453,0.9667,1.2287,49566.2949194548,0.0022613013
71,10.1016/j.actamat.2015.01.018,4580,3(a),5851,MgAg0.97Sb0.99,MgAg0.97Sb0.99,546,0.000020128,,0.0021868,0.00021439,0.96727,1.2296,49682.0349761526,0.0022607958
71,10.1016/j.actamat.2015.01.018,4580,3(a),5851,MgAg0.97Sb0.99,MgAg0.97Sb0.99,546.5,0.000020081,,0.0021877,0.00021426,0.96784,1.2305,49798.3168168916,0.0022603943
71,10.1016/j.actamat.2015.01.018,4580,3(a),5851,MgAg0.97Sb0.99,MgAg0.97Sb0.99,547,0.000020033,,0.0021886,0.00021413,0.96841,1.2314,49917.6359007637,0.0022599932
71,10.1016/j.actamat.2015.01.018,4580,3(a),5851,MgAg0.97Sb0.99,MgAg0.97Sb0.99,547.5,0.000019986,,0.0021895,0.000214,0.96899,1.2323,50035.024517162,0.0022595692
71,10.1016/j.actamat.2015.01.018,4580,3(a),5851,MgAg0.97Sb0.99,MgAg0.97Sb0.99,548,0.000019939,,0.0021904,0.00021387,0.96956,1.2332,50152.9665479713,0.0022591691
71,10.1016/j.actamat.2015.01.018,4580,3(a),5851,MgAg0.97Sb0.99,MgAg0.97Sb0.99,548.5,0.000019891,,0.0021912,0.00021373,,1.2341,50273.9932632849,
71,10.1016/j.actamat.2015.01.018,4580,3(a),5851,MgAg0.97Sb0.99,MgAg0.97Sb0.99,549,0.000019844,,0.0021921,0.0002136,,,50393.0659141302,
71,10.1016/j.actamat.2015.01.018,4581,3(b),5851,MgAg0.97Sb0.99,MgAg0.97Sb0.99,302.5,,,0.0017667,0.00027865,0.68858,0.79092,,0.0025657149
71,10.1016/j.actamat.2015.01.018,4581,3(b),5851,MgAg0.97Sb0.99,MgAg0.97Sb0.99,303,,0.61271,0.0017676,0.00027852,0.68915,0.79182,,0.0025648988
71,10.1016/j.actamat.2015.01.018,4581,3(b),5851,MgAg0.97Sb0.99,MgAg0.97Sb0.99,303.5,,0.6126,0.0017684,0.00027839,0.68972,0.79272,,0.002563939
71,10.1016/j.actamat.2015.01.018,4581,3(b),5851,MgAg0.97Sb0.99,MgAg0.97Sb0.99,549.5,,,,0.00021347,,,,
71,10.1016/j.actamat.2015.01.018,4581,3(b),5851,MgAg0.97Sb0.99,MgAg0.97Sb0.99,550,,,,0.00021334,,,,
71,10.1016/j.actamat.2015.01.018,4583,3(d),5851,MgAg0.97Sb0.99,MgAg0.97Sb0.99,296.5,,,,,0.68171,,,
71,10.1016/j.actamat.2015.01.018,4583,3(d),5851,MgAg0.97Sb0.99,MgAg0.97Sb0.99,297,,,,,0.68228,,,
71,10.1016/j.actamat.2015.01.018,4583,3(d),5851,MgAg0.97Sb0.99,MgAg0.97Sb0.99,297.5,,,,,0.68286,,,
71,10.1016/j.actamat.2015.01.018,4583,3(d),5851,MgAg0.97Sb0.99,MgAg0.97Sb0.99,298,,,,,0.68343,,,
71,10.1016/j.actamat.2015.01.018,4583,3(d),5851,MgAg0.97Sb0.99,MgAg0.97Sb0.99,298.5,,,,,0.684,,,
71,10.1016/j.actamat.2015.01.018,4583,3(d),5851,MgAg0.97Sb0.99,MgAg0.97Sb0.99,299,,,,,0.68457,,,
71,10.1016/j.actamat.2015.01.018,4583,3(d),5851,MgAg0.97Sb0.99,MgAg0.97Sb0.99,299.5,,,,,0.68514,,,
71,10.1016/j.actamat.2015.01.018,4583,3(d),5851,MgAg0.97Sb0.99,MgAg0.97Sb0.99,300,,,,,0.68572,,,
71,10.1016/j.actamat.2015.01.018,4583,3(d),5851,MgAg0.97Sb0.99,MgAg0.97Sb0.99,300.5,,,,,0.68629,,,
71,10.1016/j.actamat.2015.01.018,4583,3(d),5851,MgAg0.97Sb0.99,MgAg0.97Sb0.99,301,,,,,0.68686,,,
71,10.1016/j.actamat.2015.01.018,4583,3(d),5851,MgAg0.97Sb0.99,MgAg0.97Sb0.99,301.5,,,,,0.68743,,,
71,10.1016/j.actamat.2015.01.018,4583,3(d),5851,MgAg0.97Sb0.99,MgAg0.97Sb0.99,302,,,,,0.68801,0.79002,,
71,10.1016/j.actamat.2015.01.018,4580,3(a),5852,MgAg0.967Cu0.003Sb0.99,MgAg0.967Cu0.003Sb0.99,303.5,0.00003486,0.56233,0.0020581,,0.66823,0.89634,28686.1732644865,0.0030799276
71,10.1016/j.actamat.2015.01.018,4580,3(a),5852,MgAg0.967Cu0.003Sb0.99,MgAg0.967Cu0.003Sb0.99,304,0.000034855,0.56237,0.0020587,0.00027045,0.66881,0.89718,28690.2883373978,0.0030781537
71,10.1016/j.actamat.2015.01.018,4580,3(a),5852,MgAg0.967Cu0.003Sb0.99,MgAg0.967Cu0.003Sb0.99,304.5,0.000034851,0.56242,0.0020592,0.00027033,0.66939,0.89802,28693.5812458753,0.0030762336
71,10.1016/j.actamat.2015.01.018,4580,3(a),5852,MgAg0.967Cu0.003Sb0.99,MgAg0.967Cu0.003Sb0.99,305,0.000034846,0.56247,0.0020598,0.00027021,0.66996,0.89886,28697.6984445847,0.0030745119
71,10.1016/j.actamat.2015.01.018,4580,3(a),5852,MgAg0.967Cu0.003Sb0.99,MgAg0.967Cu0.003Sb0.99,305.5,0.000034841,0.56251,0.0020603,0.00027009,0.67054,0.89971,28701.816825005,0.0030725982
71,10.1016/j.actamat.2015.01.018,4580,3(a),5852,MgAg0.967Cu0.003Sb0.99,MgAg0.967Cu0.003Sb0.99,306,0.000034836,0.56256,0.0020609,0.00026997,0.67112,0.90055,28705.936387645,0.0030708368
71,10.1016/j.actamat.2015.01.018,4580,3(a),5852,MgAg0.967Cu0.003Sb0.99,MgAg0.967Cu0.003Sb0.99,306.5,0.000034831,0.5626,0.0020615,0.00026985,0.67169,0.90139,28710.0571330137,0.0030691241
71,10.1016/j.actamat.2015.01.018,4580,3(a),5852,MgAg0.967Cu0.003Sb0.99,MgAg0.967Cu0.003Sb0.99,307,0.000034825,0.56265,0.002062,0.00026973,0.67227,0.90223,28715.0035893755,0.00306722
71,10.1016/j.actamat.2015.01.018,4580,3(a),5852,MgAg0.967Cu0.003Sb0.99,MgAg0.967Cu0.003Sb0.99,307.5,0.00003482,0.5627,0.0020626,0.00026961,0.67285,0.90308,28719.1269385411,0.0030654678
71,10.1016/j.actamat.2015.01.018,4580,3(a),5852,MgAg0.967Cu0.003Sb0.99,MgAg0.967Cu0.003Sb0.99,308,0.000034814,0.56274,0.0020631,0.0002695,0.67343,0.90392,28724.0765209398,0.0030635701
71,10.1016/j.actamat.2015.01.018,4580,3(a),5852,MgAg0.967Cu0.003Sb0.99,MgAg0.967Cu0.003Sb0.99,308.5,0.000034809,0.56279,0.0020637,0.00026938,0.674,0.90476,28728.2024763711,0.0030618694
71,10.1016/j.actamat.2015.01.018,4580,3(a),5852,MgAg0.967Cu0.003Sb0.99,MgAg0.967Cu0.003Sb0.99,309,0.000034803,0.56284,0.0020642,0.00026926,0.67458,0.9056,28733.1551877712,0.0030599781
71,10.1016/j.actamat.2015.01.018,4580,3(a),5852,MgAg0.967Cu0.003Sb0.99,MgAg0.967Cu0.003Sb0.99,309.5,0.000034797,0.56288,0.0020648,0.00026914,0.67516,0.90645,28738.10960715,0.003058238
71,10.1016/j.actamat.2015.01.018,4580,3(a),5852,MgAg0.967Cu0.003Sb0.99,MgAg0.967Cu0.003Sb0.99,310,0.000034791,0.56293,0.0020654,0.00026902,0.67574,0.90729,28743.0657353913,0.003056501
71,10.1016/j.actamat.2015.01.018,4580,3(a),5852,MgAg0.967Cu0.003Sb0.99,MgAg0.967Cu0.003Sb0.99,310.5,0.000034784,0.56297,0.0020659,0.0002689,0.67631,0.90813,28748.8500459982,0.0030546643
71,10.1016/j.actamat.2015.01.018,4580,3(a),5852,MgAg0.967Cu0.003Sb0.99,MgAg0.967Cu0.003Sb0.99,311,0.000034778,0.56302,0.0020665,0.00026878,0.67689,0.90897,28753.8098798091,0.0030529333
71,10.1016/j.actamat.2015.01.018,4580,3(a),5852,MgAg0.967Cu0.003Sb0.99,MgAg0.967Cu0.003Sb0.99,311.5,0.000034771,0.56307,0.002067,0.00026866,0.67747,0.90982,28759.5985160047,0.0030510576
71,10.1016/j.actamat.2015.01.018,4580,3(a),5852,MgAg0.967Cu0.003Sb0.99,MgAg0.967Cu0.003Sb0.99,312,0.000034765,0.56311,0.0020676,0.00026854,0.67805,0.91066,28764.5620595426,0.0030493326
71,10.1016/j.actamat.2015.01.018,4580,3(a),5852,MgAg0.967Cu0.003Sb0.99,MgAg0.967Cu0.003Sb0.99,312.5,0.000034758,0.56316,0.0020681,0.00026843,0.67862,0.9115,28770.355026181,0.0030475082
71,10.1016/j.actamat.2015.01.018,4580,3(a),5852,MgAg0.967Cu0.003Sb0.99,MgAg0.967Cu0.003Sb0.99,313,0.000034751,0.56321,0.0020687,0.00026831,0.6792,0.91234,28776.1503266093,0.0030457892
71,10.1016/j.actamat.2015.01.018,4580,3(a),5852,MgAg0.967Cu0.003Sb0.99,MgAg0.967Cu0.003Sb0.99,313.5,0.000034744,0.56325,0.0020693,0.00026819,0.67978,0.91319,28781.9479622381,0.0030440731
71,10.1016/j.actamat.2015.01.018,4580,3(a),5852,MgAg0.967Cu0.003Sb0.99,MgAg0.967Cu0.003Sb0.99,314,0.000034737,0.5633,0.0020698,0.00026807,0.68035,0.91403,28787.7479344791,0.0030422577
71,10.1016/j.actamat.2015.01.018,4580,3(a),5852,MgAg0.967Cu0.003Sb0.99,MgAg0.967Cu0.003Sb0.99,314.5,0.00003473,0.56334,0.0020704,0.00026795,0.68093,0.91487,28793.5502447452,0.0030405475
71,10.1016/j.actamat.2015.01.018,4580,3(a),5852,MgAg0.967Cu0.003Sb0.99,MgAg0.967Cu0.003Sb0.99,315,0.000034722,0.56339,0.0020709,0.00026783,0.68151,0.91571,28800.1843211797,0.0030386935
71,10.1016/j.actamat.2015.01.018,4580,3(a),5852,MgAg0.967Cu0.003Sb0.99,MgAg0.967Cu0.003Sb0.99,315.5,0.000034715,0.56344,0.0020715,0.00026771,0.68209,0.91656,28805.9916462624,0.0030369893
71,10.1016/j.actamat.2015.01.018,4580,3(a),5852,MgAg0.967Cu0.003Sb0.99,MgAg0.967Cu0.003Sb0.99,316,0.000034707,0.56348,0.002072,0.00026759,0.68266,0.9174,28812.631457631,0.0030351859
71,10.1016/j.actamat.2015.01.018,4580,3(a),5852,MgAg0.967Cu0.003Sb0.99,MgAg0.967Cu0.003Sb0.99,316.5,0.000034699,0.56353,0.0020726,0.00026747,0.68324,0.91824,28819.2743306724,0.0030334875
71,10.1016/j.actamat.2015.01.018,4580,3(a),5852,MgAg0.967Cu0.003Sb0.99,MgAg0.967Cu0.003Sb0.99,317,0.000034691,0.56358,0.0020732,0.00026736,0.68382,0.91908,28825.9202675045,0.003031792
71,10.1016/j.actamat.2015.01.018,4580,3(a),5852,MgAg0.967Cu0.003Sb0.99,MgAg0.967Cu0.003Sb0.99,317.5,0.000034683,0.56362,0.0020737,0.00026724,0.6844,0.91993,28832.5692702477,0.0030299532
71,10.1016/j.actamat.2015.01.018,4580,3(a),5852,MgAg0.967Cu0.003Sb0.99,MgAg0.967Cu0.003Sb0.99,318,0.000034675,0.56367,0.0020743,0.00026712,0.68497,0.92077,28839.2213410238,0.0030283078
71,10.1016/j.actamat.2015.01.018,4580,3(a),5852,MgAg0.967Cu0.003Sb0.99,MgAg0.967Cu0.003Sb0.99,318.5,0.000034667,0.56372,0.0020748,0.000267,0.68555,0.92161,28845.8764819569,0.0030264751
71,10.1016/j.actamat.2015.01.018,4580,3(a),5852,MgAg0.967Cu0.003Sb0.99,MgAg0.967Cu0.003Sb0.99,319,0.000034658,0.56376,0.0020754,0.00026688,0.68613,0.92245,28853.3671879508,0.0030247912
71,10.1016/j.actamat.2015.01.018,4580,3(a),5852,MgAg0.967Cu0.003Sb0.99,MgAg0.967Cu0.003Sb0.99,319.5,0.00003465,0.56381,0.0020759,0.00026676,0.68671,0.9233,28860.0288600289,0.0030229646
71,10.1016/j.actamat.2015.01.018,4580,3(a),5852,MgAg0.967Cu0.003Sb0.99,MgAg0.967Cu0.003Sb0.99,320,0.000034641,0.56385,0.0020765,0.00026664,0.68728,0.92414,28867.5269189689,0.0030213305
71,10.1016/j.actamat.2015.01.018,4580,3(a),5852,MgAg0.967Cu0.003Sb0.99,MgAg0.967Cu0.003Sb0.99,320.5,0.000034632,0.5639,0.002077,0.00026652,0.68786,0.92498,28875.0288750289,0.0030195098
71,10.1016/j.actamat.2015.01.018,4580,3(a),5852,MgAg0.967Cu0.003Sb0.99,MgAg0.967Cu0.003Sb0.99,321,0.000034623,0.56395,0.0020776,0.0002664,0.68844,0.92582,28882.534731248,0.0030178374
71,10.1016/j.actamat.2015.01.018,4580,3(a),5852,MgAg0.967Cu0.003Sb0.99,MgAg0.967Cu0.003Sb0.99,321.5,0.000034614,0.56399,0.0020782,0.00026629,0.68901,0.92667,28890.0444906685,0.0030162117
71,10.1016/j.actamat.2015.01.018,4580,3(a),5852,MgAg0.967Cu0.003Sb0.99,MgAg0.967Cu0.003Sb0.99,322,0.000034605,0.56404,0.0020787,0.00026617,0.68959,0.92751,28897.5581563358,0.0030143999
71,10.1016/j.actamat.2015.01.018,4580,3(a),5852,MgAg0.967Cu0.003Sb0.99,MgAg0.967Cu0.003Sb0.99,322.5,0.000034595,0.56409,0.0020793,0.00026605,0.69017,0.92835,28905.9112588524,0.003012736
71,10.1016/j.actamat.2015.01.018,4580,3(a),5852,MgAg0.967Cu0.003Sb0.99,MgAg0.967Cu0.003Sb0.99,323,0.000034586,0.56413,0.0020798,0.00026593,0.69075,0.92919,28913.4331810559,0.0030109301
71,10.1016/j.actamat.2015.01.018,4580,3(a),5852,MgAg0.967Cu0.003Sb0.99,MgAg0.967Cu0.003Sb0.99,323.5,0.000034576,0.56418,0.0020804,0.00026581,0.69132,0.93004,28921.7954650625,0.0030093155
71,10.1016/j.actamat.2015.01.018,4580,3(a),5852,MgAg0.967Cu0.003Sb0.99,MgAg0.967Cu0.003Sb0.99,324,0.000034567,0.56422,0.0020809,0.00026569,0.6919,0.93088,28929.3256574189,0.0030075155
71,10.1016/j.actamat.2015.01.018,4580,3(a),5852,MgAg0.967Cu0.003Sb0.99,MgAg0.967Cu0.003Sb0.99,324.5,0.000034557,0.56427,0.0020815,0.00026557,0.69248,0.93172,28937.6971380618,0.003005863
71,10.1016/j.actamat.2015.01.018,4580,3(a),5852,MgAg0.967Cu0.003Sb0.99,MgAg0.967Cu0.003Sb0.99,325,0.000034547,0.56432,0.0020821,0.00026545,0.69306,0.93256,28946.0734651345,0.0030042132
71,10.1016/j.actamat.2015.01.018,4580,3(a),5852,MgAg0.967Cu0.003Sb0.99,MgAg0.967Cu0.003Sb0.99,325.5,0.000034536,0.56436,0.0020826,0.00026533,0.69363,0.93341,28955.2930275654,0.0030024653
71,10.1016/j.actamat.2015.01.018,4580,3(a),5852,MgAg0.967Cu0.003Sb0.99,MgAg0.967Cu0.003Sb0.99,326,0.000034526,0.56441,0.0020832,0.00026522,0.69421,0.93425,28963.6795458495,0.0030008211
71,10.1016/j.actamat.2015.01.018,4580,3(a),5852,MgAg0.967Cu0.003Sb0.99,MgAg0.967Cu0.003Sb0.99,326.5,0.000034516,0.56446,0.0020837,0.0002651,0.69479,0.93509,28972.0709236296,0.0029990357
71,10.1016/j.actamat.2015.01.018,4580,3(a),5852,MgAg0.967Cu0.003Sb0.99,MgAg0.967Cu0.003Sb0.99,327,0.000034505,0.5645,0.0020843,0.00026498,0.69537,0.93593,28981.3070569483,0.0029973971
71,10.1016/j.actamat.2015.01.018,4580,3(a),5852,MgAg0.967Cu0.003Sb0.99,MgAg0.967Cu0.003Sb0.99,327.5,0.000034495,0.56455,0.0020848,0.00026486,0.69594,0.93678,28989.708653428,0.0029956605
71,10.1016/j.actamat.2015.01.018,4580,3(a),5852,MgAg0.967Cu0.003Sb0.99,MgAg0.967Cu0.003Sb0.99,328,0.000034484,0.56459,0.0020854,0.00026474,0.69652,0.93762,28998.9560375826,0.0029940275
71,10.1016/j.actamat.2015.01.018,4580,3(a),5852,MgAg0.967Cu0.003Sb0.99,MgAg0.967Cu0.003Sb0.99,328.5,0.000034473,0.56464,0.002086,0.00026462,0.6971,0.93846,29008.2093232385,0.0029923971
71,10.1016/j.actamat.2015.01.018,4580,3(a),5852,MgAg0.967Cu0.003Sb0.99,MgAg0.967Cu0.003Sb0.99,329,0.000034462,0.56469,0.0020865,0.0002645,0.69767,0.9393,29017.4685160467,0.0029906689
71,10.1016/j.actamat.2015.01.018,4580,3(a),5852,MgAg0.967Cu0.003Sb0.99,MgAg0.967Cu0.003Sb0.99,329.5,0.000034451,0.56473,0.0020871,0.00026438,0.69825,0.94015,29026.7336216656,0.002989044
71,10.1016/j.actamat.2015.01.018,4580,3(a),5852,MgAg0.967Cu0.003Sb0.99,MgAg0.967Cu0.003Sb0.99,330,0.000034439,0.56478,0.0020876,0.00026426,0.69883,0.94099,29036.8477598072,0.0029872787
71,10.1016/j.actamat.2015.01.018,4580,3(a),5852,MgAg0.967Cu0.003Sb0.99,MgAg0.967Cu0.003Sb0.99,330.5,0.000034428,0.56483,0.0020882,0.00026415,0.69941,0.94183,29046.1252468921,0.0029856593
71,10.1016/j.actamat.2015.01.018,4580,3(a),5852,MgAg0.967Cu0.003Sb0.99,MgAg0.967Cu0.003Sb0.99,331,0.000034416,0.56487,0.0020887,0.00026403,0.69998,0.94267,29056.2529056253,0.0029839424
71,10.1016/j.actamat.2015.01.018,4580,3(a),5852,MgAg0.967Cu0.003Sb0.99,MgAg0.967Cu0.003Sb0.99,331.5,0.000034404,0.56492,0.0020893,0.00026391,0.70056,0.94352,29066.3876293454,0.0029823284
71,10.1016/j.actamat.2015.01.018,4580,3(a),5852,MgAg0.967Cu0.003Sb0.99,MgAg0.967Cu0.003Sb0.99,332,0.000034393,0.56496,0.0020899,0.00026379,0.70114,0.94436,29075.6840054662,0.0029807171
71,10.1016/j.actamat.2015.01.018,4580,3(a),5852,MgAg0.967Cu0.003Sb0.99,MgAg0.967Cu0.003Sb0.99,332.5,0.000034381,0.56501,0.0020904,0.00026367,0.70172,0.9452,29085.832291091,0.002978966
71,10.1016/j.actamat.2015.01.018,4580,3(a),5852,MgAg0.967Cu0.003Sb0.99,MgAg0.967Cu0.003Sb0.99,333,0.000034368,0.56506,0.002091,0.00026355,0.70229,0.94604,29096.834264432,0.0029774025
71,10.1016/j.actamat.2015.01.018,4580,3(a),5852,MgAg0.967Cu0.003Sb0.99,MgAg0.967Cu0.003Sb0.99,333.5,0.000034356,0.5651,0.0020915,0.00026343,0.70287,0.94689,29106.9973221562,0.0029756569
71,10.1016/j.actamat.2015.01.018,4580,3(a),5852,MgAg0.967Cu0.003Sb0.99,MgAg0.967Cu0.003Sb0.99,334,0.000034344,0.56515,0.0020921,0.00026331,0.70345,0.94773,29117.1674819474,0.0029740564
71,10.1016/j.actamat.2015.01.018,4580,3(a),5852,MgAg0.967Cu0.003Sb0.99,MgAg0.967Cu0.003Sb0.99,334.5,0.000034331,0.5652,0.0020926,0.00026319,0.70402,0.94857,29128.1931781772,0.0029723587
71,10.1016/j.actamat.2015.01.018,4580,3(a),5852,MgAg0.967Cu0.003Sb0.99,MgAg0.967Cu0.003Sb0.99,335,0.000034319,0.56524,0.0020932,0.00026308,0.7046,0.94941,29138.3781578717,0.0029707636
71,10.1016/j.actamat.2015.01.018,4580,3(a),5852,MgAg0.967Cu0.003Sb0.99,MgAg0.967Cu0.003Sb0.99,335.5,0.000034306,0.56529,0.0020938,0.00026296,0.70518,0.95026,29149.4199265435,0.002969171
71,10.1016/j.actamat.2015.01.018,4580,3(a),5852,MgAg0.967Cu0.003Sb0.99,MgAg0.967Cu0.003Sb0.99,336,0.000034293,0.56533,0.0020943,0.00026284,0.70576,0.9511,29160.4700667775,0.0029674394
71,10.1016/j.actamat.2015.01.018,4580,3(a),5852,MgAg0.967Cu0.003Sb0.99,MgAg0.967Cu0.003Sb0.99,336.5,0.00003428,0.56538,0.0020949,0.00026272,0.70633,0.95194,29171.528588098,0.0029658941
71,10.1016/j.actamat.2015.01.018,4580,3(a),5852,MgAg0.967Cu0.003Sb0.99,MgAg0.967Cu0.003Sb0.99,337,0.000034267,0.56543,0.0020954,0.0002626,0.70691,0.95278,29182.5955000438,0.002964168
71,10.1016/j.actamat.2015.01.018,4580,3(a),5852,MgAg0.967Cu0.003Sb0.99,MgAg0.967Cu0.003Sb0.99,337.5,0.000034254,0.56547,0.002096,0.00026248,0.70749,0.95363,29193.6708121679,0.002962586
71,10.1016/j.actamat.2015.01.018,4580,3(a),5852,MgAg0.967Cu0.003Sb0.99,MgAg0.967Cu0.003Sb0.99,338,0.00003424,0.56552,0.0020965,0.00026236,0.70807,0.95447,29205.6074766355,0.0029608655
71,10.1016/j.actamat.2015.01.018,4580,3(a),5852,MgAg0.967Cu0.003Sb0.99,MgAg0.967Cu0.003Sb0.99,338.5,0.000034227,0.56557,0.0020971,0.00026224,0.70864,0.95531,29216.700265872,0.0029593305
71,10.1016/j.actamat.2015.01.018,4580,3(a),5852,MgAg0.967Cu0.003Sb0.99,MgAg0.967Cu0.003Sb0.99,339,0.000034213,0.56561,0.0020976,0.00026212,0.70922,0.95615,29228.6557741209,0.0029576154
71,10.1016/j.actamat.2015.01.018,4580,3(a),5852,MgAg0.967Cu0.003Sb0.99,MgAg0.967Cu0.003Sb0.99,339.5,0.000034199,0.56566,0.0020982,0.00026201,0.7098,0.957,29240.6210707915,0.002956044
71,10.1016/j.actamat.2015.01.018,4580,3(a),5852,MgAg0.967Cu0.003Sb0.99,MgAg0.967Cu0.003Sb0.99,340,0.000034185,0.56571,0.0020988,0.00026189,0.71038,0.95784,29252.5961679099,0.0029544751
71,10.1016/j.actamat.2015.01.018,4580,3(a),5852,MgAg0.967Cu0.003Sb0.99,MgAg0.967Cu0.003Sb0.99,340.5,0.000034171,0.56575,0.0020993,0.00026177,0.71095,0.95868,29264.5810775219,0.0029528096
71,10.1016/j.actamat.2015.01.018,4580,3(a),5852,MgAg0.967Cu0.003Sb0.99,MgAg0.967Cu0.003Sb0.99,341,0.000034157,0.5658,0.0020999,0.00026165,0.71153,0.95952,29276.5758116931,0.0029512459
71,10.1016/j.actamat.2015.01.018,4580,3(a),5852,MgAg0.967Cu0.003Sb0.99,MgAg0.967Cu0.003Sb0.99,341.5,0.000034143,0.56584,0.0021004,0.00026153,0.71211,0.96037,29288.5803825089,0.0029495443
71,10.1016/j.actamat.2015.01.018,4580,3(a),5852,MgAg0.967Cu0.003Sb0.99,MgAg0.967Cu0.003Sb0.99,342,0.000034128,0.56589,0.002101,0.00026141,0.71268,0.96121,29301.4533520863,0.0029480272
71,10.1016/j.actamat.2015.01.018,4580,3(a),5852,MgAg0.967Cu0.003Sb0.99,MgAg0.967Cu0.003Sb0.99,342.5,0.000034113,0.56594,0.0021015,0.00026129,0.71326,0.96205,29314.337642541,0.0029463309
71,10.1016/j.actamat.2015.01.018,4580,3(a),5852,MgAg0.967Cu0.003Sb0.99,MgAg0.967Cu0.003Sb0.99,343,0.000034099,0.56598,0.0021021,0.00026117,0.71384,0.96289,29326.3732074254,0.0029447775
71,10.1016/j.actamat.2015.01.018,4580,3(a),5852,MgAg0.967Cu0.003Sb0.99,MgAg0.967Cu0.003Sb0.99,343.5,0.000034084,0.56603,0.0021027,0.00026105,0.71442,0.96374,29339.2794272973,0.0029432267
71,10.1016/j.actamat.2015.01.018,4580,3(a),5852,MgAg0.967Cu0.003Sb0.99,MgAg0.967Cu0.003Sb0.99,344,0.000034069,0.56608,0.0021032,0.00026094,0.71499,0.96458,29352.1970119463,0.0029415796
71,10.1016/j.actamat.2015.01.018,4580,3(a),5852,MgAg0.967Cu0.003Sb0.99,MgAg0.967Cu0.003Sb0.99,344.5,0.000034054,0.56612,0.0021038,0.00026082,0.71557,0.96542,29365.1259763904,0.0029400338
71,10.1016/j.actamat.2015.01.018,4580,3(a),5852,MgAg0.967Cu0.003Sb0.99,MgAg0.967Cu0.003Sb0.99,345,0.000034039,0.56617,0.0021043,0.0002607,0.71615,0.96626,29378.0663356738,0.0029383509
71,10.1016/j.actamat.2015.01.018,4580,3(a),5852,MgAg0.967Cu0.003Sb0.99,MgAg0.967Cu0.003Sb0.99,345.5,0.000034023,0.56621,0.0021049,0.00026058,0.71673,0.96711,29391.881962202,0.0029368102
71,10.1016/j.actamat.2015.01.018,4580,3(a),5852,MgAg0.967Cu0.003Sb0.99,MgAg0.967Cu0.003Sb0.99,346,0.000034008,0.56626,0.0021054,0.00026046,0.7173,0.96795,29404.8459186074,0.0029351736
71,10.1016/j.actamat.2015.01.018,4580,3(a),5852,MgAg0.967Cu0.003Sb0.99,MgAg0.967Cu0.003Sb0.99,346.5,0.000033992,0.56631,0.002106,0.00026034,0.71788,0.96879,29418.6867498235,0.0029336379