sid,DOI,figureid,fignum,sampleid,samplename,composition,Temperature,Electrical resistivity,Lattice thermal conductivity,Power factor,Seebeck coefficient,Thermal conductivity,ZT,Electrical conductivity,Figure of merit Z
71,10.1016/j.actamat.2015.01.018,4586,6(a),5855,parallel,MgAg0.97Sb0.99,386,0.000037899,,0.0018698,0.00025986,0.80019,0.92161,26385.9204728357,0.002336695
71,10.1016/j.actamat.2015.01.018,4586,6(a),5855,parallel,MgAg0.97Sb0.99,386.5,0.000037859,,0.0018705,0.00025972,0.80072,0.92247,26413.7985683721,0.0023360226
71,10.1016/j.actamat.2015.01.018,4586,6(a),5855,parallel,MgAg0.97Sb0.99,387,0.00003782,,0.0018713,0.00025958,0.80125,0.92334,26441.0364886304,0.0023354758
71,10.1016/j.actamat.2015.01.018,4586,6(a),5855,parallel,MgAg0.97Sb0.99,387.5,0.00003778,,0.0018721,0.00025945,0.80179,0.9242,26469.0312334569,0.0023349007
71,10.1016/j.actamat.2015.01.018,4586,6(a),5855,parallel,MgAg0.97Sb0.99,388,0.00003774,,0.0018729,0.00025931,0.80232,0.92507,26497.0853206147,0.0023343554
71,10.1016/j.actamat.2015.01.018,4586,6(a),5855,parallel,MgAg0.97Sb0.99,388.5,0.0000377,,0.0018736,0.00025918,0.80286,0.92593,26525.198938992,0.0023336572
71,10.1016/j.actamat.2015.01.018,4586,6(a),5855,parallel,MgAg0.97Sb0.99,389,0.00003766,,0.0018744,0.00025904,0.80339,0.92679,26553.3722782793,0.0023331134
71,10.1016/j.actamat.2015.01.018,4586,6(a),5855,parallel,MgAg0.97Sb0.99,389.5,0.00003762,,0.0018752,0.0002589,0.80392,0.92766,26581.6055289739,0.0023325704
71,10.1016/j.actamat.2015.01.018,4586,6(a),5855,parallel,MgAg0.97Sb0.99,390,0.000037579,,0.001876,0.00025877,0.80446,0.92852,26610.6069879454,0.0023319991
71,10.1016/j.actamat.2015.01.018,4586,6(a),5855,parallel,MgAg0.97Sb0.99,390.5,0.000037539,,0.0018767,0.00025863,0.80499,0.92939,26638.9621460348,0.0023313333
71,10.1016/j.actamat.2015.01.018,4586,6(a),5855,parallel,MgAg0.97Sb0.99,391,0.000037498,,0.0018775,0.00025849,0.80553,0.93025,26668.0889647448,0.0023307636
71,10.1016/j.actamat.2015.01.018,4586,6(a),5855,parallel,MgAg0.97Sb0.99,391.5,0.000037458,,0.0018783,0.00025836,0.80606,0.93111,26696.5668215068,0.0023302236
71,10.1016/j.actamat.2015.01.018,4586,6(a),5855,parallel,MgAg0.97Sb0.99,392,0.000037417,,0.0018791,0.00025822,0.80659,0.93198,26725.8198145228,0.0023296842
71,10.1016/j.actamat.2015.01.018,4586,6(a),5855,parallel,MgAg0.97Sb0.99,392.5,0.000037376,,0.0018798,0.00025809,0.80713,0.93284,26755.1369863014,0.0023289929
71,10.1016/j.actamat.2015.01.018,4586,6(a),5855,parallel,MgAg0.97Sb0.99,393,0.000037335,,0.0018806,0.00025795,0.80766,0.93371,26784.5185482791,0.002328455
71,10.1016/j.actamat.2015.01.018,4586,6(a),5855,parallel,MgAg0.97Sb0.99,393.5,0.000037294,,0.0018814,0.00025781,0.8082,0.93457,26813.9647128224,0.0023278891
71,10.1016/j.actamat.2015.01.018,4586,6(a),5855,parallel,MgAg0.97Sb0.99,394,0.000037253,,0.0018821,0.00025768,0.80873,0.93543,26843.4756932328,0.0023272291
71,10.1016/j.actamat.2015.01.018,4586,6(a),5855,parallel,MgAg0.97Sb0.99,394.5,0.000037211,,0.0018829,0.00025754,0.80926,0.9363,26873.7738840665,0.0023266935
71,10.1016/j.actamat.2015.01.018,4586,6(a),5855,parallel,MgAg0.97Sb0.99,395,0.00003717,,0.0018837,0.00025741,0.8098,0.93716,26903.4167339252,0.0023261299
71,10.1016/j.actamat.2015.01.018,4586,6(a),5855,parallel,MgAg0.97Sb0.99,395.5,0.000037128,,0.0018845,0.00025727,0.81033,0.93803,26933.8504632622,0.0023255957
71,10.1016/j.actamat.2015.01.018,4586,6(a),5855,parallel,MgAg0.97Sb0.99,396,0.000037086,,0.0018852,0.00025713,0.81087,0.93889,26964.3531251685,0.0023249103
71,10.1016/j.actamat.2015.01.018,4586,6(a),5855,parallel,MgAg0.97Sb0.99,396.5,0.000037045,,0.001886,0.000257,0.8114,0.93975,26994.1962478067,0.0023243776
71,10.1016/j.actamat.2015.01.018,4586,6(a),5855,parallel,MgAg0.97Sb0.99,397,0.000037003,,0.0018868,0.00025686,0.81193,0.94062,27024.8358241224,0.0023238457
71,10.1016/j.actamat.2015.01.018,4586,6(a),5855,parallel,MgAg0.97Sb0.99,397.5,0.000036961,,0.0018876,0.00025672,0.81247,0.94148,27055.5450339547,0.0023232858
71,10.1016/j.actamat.2015.01.018,4586,6(a),5855,parallel,MgAg0.97Sb0.99,398,0.000036918,,0.0018883,0.00025659,0.813,0.94235,27087.0578037814,0.0023226322
71,10.1016/j.actamat.2015.01.018,4586,6(a),5855,parallel,MgAg0.97Sb0.99,398.5,0.000036876,,0.0018891,0.00025645,0.81354,0.94321,27117.9086668836,0.0023220739
71,10.1016/j.actamat.2015.01.018,4586,6(a),5855,parallel,MgAg0.97Sb0.99,399,0.000036834,,0.0018899,0.00025632,0.81407,0.94407,27148.8298854319,0.0023215448
71,10.1016/j.actamat.2015.01.018,4586,6(a),5855,parallel,MgAg0.97Sb0.99,399.5,0.000036791,,0.0018907,0.00025618,0.8146,0.94494,27180.5604631568,0.0023210164
71,10.1016/j.actamat.2015.01.018,4586,6(a),5855,parallel,MgAg0.97Sb0.99,400,0.000036748,,0.0018914,0.00025604,0.81514,0.9458,27212.3652987918,0.0023203376
71,10.1016/j.actamat.2015.01.018,4586,6(a),5855,parallel,MgAg0.97Sb0.99,400.5,0.000036706,,0.0018922,0.00025591,0.81567,0.94667,27243.5024246717,0.0023198107
71,10.1016/j.actamat.2015.01.018,4586,6(a),5855,parallel,MgAg0.97Sb0.99,401,0.000036663,,0.001893,0.00025577,0.81621,0.94753,27275.4548182091,0.0023192561
71,10.1016/j.actamat.2015.01.018,4586,6(a),5855,parallel,MgAg0.97Sb0.99,401.5,0.00003662,,0.0018938,0.00025563,0.81674,0.94839,27307.4822501365,0.0023187306
71,10.1016/j.actamat.2015.01.018,4586,6(a),5855,parallel,MgAg0.97Sb0.99,402,0.000036577,,0.0018945,0.0002555,0.81727,0.94926,27339.5849850999,0.0023180834
71,10.1016/j.actamat.2015.01.018,4586,6(a),5855,parallel,MgAg0.97Sb0.99,402.5,0.000036533,,0.0018953,0.00025536,0.81781,0.95012,27372.5125229245,0.002317531
71,10.1016/j.actamat.2015.01.018,4586,6(a),5855,parallel,MgAg0.97Sb0.99,403,0.00003649,,0.0018961,0.00025523,0.81834,0.95099,27404.7684297068,0.0023170076
71,10.1016/j.actamat.2015.01.018,4586,6(a),5855,parallel,MgAg0.97Sb0.99,403.5,0.000036447,,0.0018969,0.00025509,0.81887,0.95185,27437.1004472247,0.0023164849
71,10.1016/j.actamat.2015.01.018,4586,6(a),5855,parallel,MgAg0.97Sb0.99,404,0.000036403,,0.0018976,0.00025495,0.81941,0.95271,27470.2634398264,0.0023158126
71,10.1016/j.actamat.2015.01.018,4586,6(a),5855,parallel,MgAg0.97Sb0.99,404.5,0.000036359,,0.0018984,0.00025482,0.81994,0.95358,27503.5066971039,0.0023152914
71,10.1016/j.actamat.2015.01.018,4586,6(a),5855,parallel,MgAg0.97Sb0.99,405,0.000036315,,0.0018992,0.00025468,0.82048,0.95444,27536.8305108082,0.0023147426
71,10.1016/j.actamat.2015.01.018,4586,6(a),5855,parallel,MgAg0.97Sb0.99,405.5,0.000036272,,0.0018999,0.00025455,0.82101,0.9553,27569.4750771945,0.0023141009
71,10.1016/j.actamat.2015.01.018,4586,6(a),5855,parallel,MgAg0.97Sb0.99,406,0.000036227,,0.0019007,0.00025441,0.82154,0.95617,27603.7209815883,0.0023135818
71,10.1016/j.actamat.2015.01.018,4586,6(a),5855,parallel,MgAg0.97Sb0.99,406.5,0.000036183,,0.0019015,0.00025427,0.82208,0.95703,27637.2882292789,0.0023130352
71,10.1016/j.actamat.2015.01.018,4586,6(a),5855,parallel,MgAg0.97Sb0.99,407,0.000036139,,0.0019023,0.00025414,0.82261,0.9579,27670.9372146435,0.0023125175
71,10.1016/j.actamat.2015.01.018,4586,6(a),5855,parallel,MgAg0.97Sb0.99,407.5,0.000036095,,0.001903,0.000254,0.82315,0.95876,27704.6682365979,0.0023118508
71,10.1016/j.actamat.2015.01.018,4586,6(a),5855,parallel,MgAg0.97Sb0.99,408,0.00003605,,0.0019038,0.00025386,0.82368,0.95962,27739.2510402219,0.0023113345
71,10.1016/j.actamat.2015.01.018,4586,6(a),5855,parallel,MgAg0.97Sb0.99,408.5,0.000036005,,0.0019046,0.00025373,0.82421,0.96049,27773.9202888488,0.0023108188
71,10.1016/j.actamat.2015.01.018,4586,6(a),5855,parallel,MgAg0.97Sb0.99,409,0.000035961,,0.0019054,0.00025359,0.82475,0.96135,27807.9030060343,0.0023102758
71,10.1016/j.actamat.2015.01.018,4586,6(a),5855,parallel,MgAg0.97Sb0.99,409.5,0.000035916,,0.0019061,0.00025346,0.82528,0.96222,27842.7441808665,0.0023096404
71,10.1016/j.actamat.2015.01.018,4586,6(a),5855,parallel,MgAg0.97Sb0.99,410,0.000035871,,0.0019069,0.00025332,0.82582,0.96308,27877.672771877,0.0023090988
71,10.1016/j.actamat.2015.01.018,4586,6(a),5855,parallel,MgAg0.97Sb0.99,410.5,0.000035826,,0.0019077,0.00025318,0.82635,0.96394,27912.6891084687,0.002308586
71,10.1016/j.actamat.2015.01.018,4586,6(a),5855,parallel,MgAg0.97Sb0.99,411,0.000035781,,0.0019085,0.00025305,0.82688,0.96481,27947.7935217015,0.0023080737
71,10.1016/j.actamat.2015.01.018,4586,6(a),5855,parallel,MgAg0.97Sb0.99,411.5,0.000035735,,0.0019092,0.00025291,0.82742,0.96567,27983.76941374,0.0023074134
71,10.1016/j.actamat.2015.01.018,4586,6(a),5855,parallel,MgAg0.97Sb0.99,412,0.00003569,,0.00191,0.00025278,0.82795,0.96654,28019.0529560101,0.0023069026
71,10.1016/j.actamat.2015.01.018,4586,6(a),5855,parallel,MgAg0.97Sb0.99,412.5,0.000035644,,0.0019108,0.00025264,0.82849,0.9674,28055.212658512,0.0023063646
71,10.1016/j.actamat.2015.01.018,4586,6(a),5855,parallel,MgAg0.97Sb0.99,413,0.000035599,,0.0019116,0.0002525,0.82902,0.96826,28090.6767044018,0.0023058551
71,10.1016/j.actamat.2015.01.018,4586,6(a),5855,parallel,MgAg0.97Sb0.99,413.5,0.000035553,,0.0019123,0.00025237,0.82955,0.96913,28127.0216296796,0.0023052257
71,10.1016/j.actamat.2015.01.018,4586,6(a),5855,parallel,MgAg0.97Sb0.99,414,0.000035507,,0.0019131,0.00025223,0.83009,0.96999,28163.460726054,0.0023046899
71,10.1016/j.actamat.2015.01.018,4586,6(a),5855,parallel,MgAg0.97Sb0.99,414.5,0.000035461,,0.0019139,0.00025209,0.83062,0.97086,28199.9943600011,0.0023041824
71,10.1016/j.actamat.2015.01.018,4586,6(a),5855,parallel,MgAg0.97Sb0.99,415,0.000035415,,0.0019147,0.00025196,0.83116,0.97172,28236.6228999012,0.0023036479
71,10.1016/j.actamat.2015.01.018,4586,6(a),5855,parallel,MgAg0.97Sb0.99,415.5,0.000035368,,0.0019154,0.00025182,0.83169,0.97258,28274.1461207872,0.0023030216
71,10.1016/j.actamat.2015.01.018,4586,6(a),5855,parallel,MgAg0.97Sb0.99,416,0.000035322,,0.0019162,0.00025169,0.83222,0.97345,28310.9676688749,0.0023025162
71,10.1016/j.actamat.2015.01.018,4586,6(a),5855,parallel,MgAg0.97Sb0.99,416.5,0.000035276,,0.001917,0.00025155,0.83276,0.97431,28347.8852477605,0.0023019838
71,10.1016/j.actamat.2015.01.018,4586,6(a),5855,parallel,MgAg0.97Sb0.99,417,0.000035229,,0.0019177,0.00025141,0.83329,0.97518,28385.7049589827,0.0023013597
71,10.1016/j.actamat.2015.01.018,4586,6(a),5855,parallel,MgAg0.97Sb0.99,417.5,0.000035182,,0.0019185,0.00025128,0.83383,0.97604,28423.6257176965,0.0023008287
71,10.1016/j.actamat.2015.01.018,4586,6(a),5855,parallel,MgAg0.97Sb0.99,418,0.000035135,,0.0019193,0.00025114,0.83436,0.9769,28461.6479294151,0.002300326
71,10.1016/j.actamat.2015.01.018,4586,6(a),5855,parallel,MgAg0.97Sb0.99,418.5,0.000035088,,0.0019201,0.000251,0.83489,0.97777,28499.772001824,0.0022998239
71,10.1016/j.actamat.2015.01.018,4586,6(a),5855,parallel,MgAg0.97Sb0.99,419,0.000035041,,0.0019208,0.00025087,0.83543,0.97863,28537.9983447961,0.0022991753
71,10.1016/j.actamat.2015.01.018,4586,6(a),5855,parallel,MgAg0.97Sb0.99,419.5,0.000034994,,0.0019216,0.00025073,0.83596,0.9795,28576.3273704064,0.0022986746
71,10.1016/j.actamat.2015.01.018,4586,6(a),5855,parallel,MgAg0.97Sb0.99,420,0.000034947,,0.0019224,0.0002506,0.8365,0.98036,28614.7594929465,0.002298147
71,10.1016/j.actamat.2015.01.018,4586,6(a),5855,parallel,MgAg0.97Sb0.99,420.5,0.000034899,,0.0019232,0.00025046,0.83703,0.98122,28654.1161637869,0.0022976476
71,10.1016/j.actamat.2015.01.018,4586,6(a),5855,parallel,MgAg0.97Sb0.99,421,0.000034852,,0.0019239,0.00025032,0.83756,0.98209,28692.757947894,0.0022970295
71,10.1016/j.actamat.2015.01.018,4586,6(a),5855,parallel,MgAg0.97Sb0.99,421.5,0.000034804,,0.0019247,0.00025019,0.8381,0.98295,28732.3296172854,0.002296504
71,10.1016/j.actamat.2015.01.018,4586,6(a),5855,parallel,MgAg0.97Sb0.99,422,0.000034756,,0.0019255,0.00025005,0.83863,0.98382,28772.0105880999,0.0022960066
71,10.1016/j.actamat.2015.01.018,4586,6(a),5855,parallel,MgAg0.97Sb0.99,422.5,0.000034709,,0.0019263,0.00024992,0.83916,0.98468,28810.9712178397,0.0022955098
71,10.1016/j.actamat.2015.01.018,4586,6(a),5855,parallel,MgAg0.97Sb0.99,423,0.000034661,,0.001927,0.00024978,0.8397,0.98554,28850.8698537261,0.0022948672
71,10.1016/j.actamat.2015.01.018,4586,6(a),5855,parallel,MgAg0.97Sb0.99,423.5,0.000034612,,0.0019278,0.00024964,0.84023,0.98641,28891.713856466,0.0022943718
71,10.1016/j.actamat.2015.01.018,4586,6(a),5855,parallel,MgAg0.97Sb0.99,424,0.000034564,,0.0019286,0.00024951,0.84077,0.98727,28931.8365929869,0.0022938497
71,10.1016/j.actamat.2015.01.018,4586,6(a),5855,parallel,MgAg0.97Sb0.99,424.5,0.000034516,,0.0019294,0.00024937,0.8413,0.98814,28972.0709236296,0.0022933555
71,10.1016/j.actamat.2015.01.018,4586,6(a),5855,parallel,MgAg0.97Sb0.99,425,0.000034467,,0.0019301,0.00024923,0.84183,0.989,29013.2590593901,0.0022927432
71,10.1016/j.actamat.2015.01.018,4586,6(a),5855,parallel,MgAg0.97Sb0.99,425.5,0.000034419,,0.0019309,0.0002491,0.84237,0.98986,29053.7203288881,0.0022922231
71,10.1016/j.actamat.2015.01.018,4586,6(a),5855,parallel,MgAg0.97Sb0.99,426,0.00003437,,0.0019317,0.00024896,0.8429,0.99073,29095.1411114344,0.0022917309
71,10.1016/j.actamat.2015.01.018,4586,6(a),5855,parallel,MgAg0.97Sb0.99,426.5,0.000034321,,0.0019325,0.00024883,0.84344,0.99159,29136.6801666618,0.0022912122
71,10.1016/j.actamat.2015.01.018,4586,6(a),5855,parallel,MgAg0.97Sb0.99,427,0.000034272,,0.0019332,0.00024869,0.84397,0.99245,29178.3380018674,0.0022906027
71,10.1016/j.actamat.2015.01.018,4586,6(a),5855,parallel,MgAg0.97Sb0.99,427.5,0.000034223,,0.001934,0.00024855,0.8445,0.99332,29220.1151272536,0.0022901125
71,10.1016/j.actamat.2015.01.018,4586,6(a),5855,parallel,MgAg0.97Sb0.99,428,0.000034174,,0.0019348,0.00024842,0.84504,0.99418,29262.012055949,0.0022895958
71,10.1016/j.actamat.2015.01.018,4586,6(a),5855,parallel,MgAg0.97Sb0.99,428.5,0.000034125,,0.0019355,0.00024828,0.84557,0.99505,29304.0293040293,0.0022889885
71,10.1016/j.actamat.2015.01.018,4586,6(a),5855,parallel,MgAg0.97Sb0.99,429,0.000034075,,0.0019363,0.00024815,0.84611,0.99591,29347.0286133529,0.0022884731
71,10.1016/j.actamat.2015.01.018,4586,6(a),5855,parallel,MgAg0.97Sb0.99,429.5,0.000034026,,0.0019371,0.00024801,0.84664,0.99677,29389.2905425263,0.0022879854
71,10.1016/j.actamat.2015.01.018,4586,6(a),5855,parallel,MgAg0.97Sb0.99,430,0.000033976,,0.0019379,0.00024787,0.84717,0.99764,29432.5406169061,0.0022874984
71,10.1016/j.actamat.2015.01.018,4586,6(a),5855,parallel,MgAg0.97Sb0.99,430.5,0.000033926,,0.0019386,0.00024774,0.84771,0.9985,29475.9181748511,0.002286867
71,10.1016/j.actamat.2015.01.018,4586,6(a),5855,parallel,MgAg0.97Sb0.99,431,0.000033877,,0.0019394,0.0002476,0.84824,0.99937,29518.5524101898,0.0022863812
71,10.1016/j.actamat.2015.01.018,4586,6(a),5855,parallel,MgAg0.97Sb0.99,431.5,0.000033827,,0.0019402,0.00024746,0.84878,1.0002,29562.1840541579,0.0022858691
71,10.1016/j.actamat.2015.01.018,4586,6(a),5855,parallel,MgAg0.97Sb0.99,432,0.000033777,,0.001941,0.00024733,0.84931,1.0011,29605.9448737306,0.0022853846
71,10.1016/j.actamat.2015.01.018,4586,6(a),5855,parallel,MgAg0.97Sb0.99,432.5,0.000033726,,0.0019417,0.00024719,0.84984,1.002,29650.7145822214,0.002284783
71,10.1016/j.actamat.2015.01.018,4586,6(a),5855,parallel,MgAg0.97Sb0.99,433,0.000033676,,0.0019425,0.00024706,0.85038,1.0028,29694.73809241,0.0022842729
71,10.1016/j.actamat.2015.01.018,4586,6(a),5855,parallel,MgAg0.97Sb0.99,433.5,0.000033626,,0.0019433,0.00024692,0.85091,1.0037,29738.8925236424,0.0022837903
71,10.1016/j.actamat.2015.01.018,4586,6(a),5855,parallel,MgAg0.97Sb0.99,434,0.000033575,,0.0019441,0.00024678,0.85145,1.0046,29784.0655249442,0.0022832815
71,10.1016/j.actamat.2015.01.018,4586,6(a),5855,parallel,MgAg0.97Sb0.99,434.5,0.000033524,,0.0019448,0.00024665,0.85198,1.0054,29829.3759694547,0.0022826827
71,10.1016/j.actamat.2015.01.018,4586,6(a),5855,parallel,MgAg0.97Sb0.99,435,0.000033473,,0.0019456,0.00024651,0.85251,1.0063,29874.8244854061,0.002282202
71,10.1016/j.actamat.2015.01.018,4586,6(a),5855,parallel,MgAg0.97Sb0.99,435.5,0.000033423,,0.0019464,0.00024638,0.85305,1.0071,29919.5165006134,0.0022816951
71,10.1016/j.actamat.2015.01.018,4586,6(a),5855,parallel,MgAg0.97Sb0.99,436,0.000033372,,0.0019472,0.00024624,0.85358,1.008,29965.2403212274,0.0022812156
71,10.1016/j.actamat.2015.01.018,4586,6(a),5855,parallel,MgAg0.97Sb0.99,436.5,0.00003332,,0.0019479,0.0002461,0.85412,1.0089,30012.0048019208,0.0022805929
71,10.1016/j.actamat.2015.01.018,4586,6(a),5855,parallel,MgAg0.97Sb0.99,437,0.000033269,,0.0019487,0.00024597,0.85465,1.0097,30058.0119630888,0.0022801147
71,10.1016/j.actamat.2015.01.018,4586,6(a),5855,parallel,MgAg0.97Sb0.99,437.5,0.000033218,,0.0019495,0.00024583,0.85518,1.0106,30104.1603949666,0.002279637
71,10.1016/j.actamat.2015.01.018,4586,6(a),5855,parallel,MgAg0.97Sb0.99,438,0.000033166,,0.0019503,0.00024569,0.85572,1.0115,30151.3598263282,0.0022791334
71,10.1016/j.actamat.2015.01.018,4586,6(a),5855,parallel,MgAg0.97Sb0.99,438.5,0.000033115,,0.001951,0.00024556,0.85625,1.0123,30197.7955609241,0.0022785401
71,10.1016/j.actamat.2015.01.018,4586,6(a),5855,parallel,MgAg0.97Sb0.99,439,0.000033063,,0.0019518,0.00024542,0.85679,1.0132,30245.2892961921,0.0022780378
71,10.1016/j.actamat.2015.01.018,4586,6(a),5855,parallel,MgAg0.97Sb0.99,439.5,0.000033011,,0.0019526,0.00024529,0.85732,1.0141,30292.9326588107,0.0022775626
71,10.1016/j.actamat.2015.01.018,4586,6(a),5855,parallel,MgAg0.97Sb0.99,440,0.000032959,,0.0019533,0.00024515,0.85785,1.0149,30340.726356989,0.0022769715
71,10.1016/j.actamat.2015.01.018,4586,6(a),5855,parallel,MgAg0.97Sb0.99,440.5,0.000032907,,0.0019541,0.00024501,0.85839,1.0158,30388.6711034126,0.0022764711
71,10.1016/j.actamat.2015.01.018,4586,6(a),5855,parallel,MgAg0.97Sb0.99,441,0.000032855,,0.0019549,0.00024488,0.85892,1.0166,30436.7676152793,0.0022759978
71,10.1016/j.actamat.2015.01.018,4586,6(a),5855,parallel,MgAg0.97Sb0.99,441.5,0.000032803,,0.0019557,0.00024474,0.85946,1.0175,30485.0166143341,0.0022754986
71,10.1016/j.actamat.2015.01.018,4586,6(a),5855,parallel,MgAg0.97Sb0.99,442,0.00003275,,0.0019564,0.0002446,0.85999,1.0184,30534.3511450382,0.0022749102
71,10.1016/j.actamat.2015.01.018,4586,6(a),5855,parallel,MgAg0.97Sb0.99,442.5,0.000032698,,0.0019572,0.00024447,0.86052,1.0192,30582.9102697413,0.0022744387
71,10.1016/j.actamat.2015.01.018,4586,6(a),5855,parallel,MgAg0.97Sb0.99,443,0.000032645,,0.001958,0.00024433,0.86106,1.0201,30632.5624138459,0.0022739414
71,10.1016/j.actamat.2015.01.018,4586,6(a),5855,parallel,MgAg0.97Sb0.99,443.5,0.000032592,,0.0019588,0.0002442,0.86159,1.021,30682.3760432008,0.0022734711
71,10.1016/j.actamat.2015.01.018,4586,6(a),5855,parallel,MgAg0.97Sb0.99,444,0.000032539,,0.0019595,0.00024406,0.86212,1.0218,30732.3519468945,0.0022728854
71,10.1016/j.actamat.2015.01.018,4586,6(a),5855,parallel,MgAg0.97Sb0.99,444.5,0.000032486,,0.0019603,0.00024392,0.86266,1.0227,30782.4909191652,0.00227239
71,10.1016/j.actamat.2015.01.018,4586,6(a),5855,parallel,MgAg0.97Sb0.99,445,0.000032433,,0.0019611,0.00024379,0.86319,1.0236,30832.7937594425,0.0022719216
71,10.1016/j.actamat.2015.01.018,4586,6(a),5855,parallel,MgAg0.97Sb0.99,445.5,0.00003238,,0.0019619,0.00024365,0.86373,1.0244,30883.2612723904,0.0022714274
71,10.1016/j.actamat.2015.01.018,4586,6(a),5855,parallel,MgAg0.97Sb0.99,446,0.000032326,,0.0019626,0.00024352,0.86426,1.0253,30934.8512033657,0.0022708444
71,10.1016/j.actamat.2015.01.018,4586,6(a),5855,parallel,MgAg0.97Sb0.99,446.5,0.000032273,,0.0019634,0.00024338,0.86479,1.0261,30985.6536423636,0.0022703778
71,10.1016/j.actamat.2015.01.018,4586,6(a),5855,parallel,MgAg0.97Sb0.99,447,0.000032219,,0.0019642,0.00024324,0.86533,1.027,31037.5865172724,0.0022698855
71,10.1016/j.actamat.2015.01.018,4586,6(a),5855,parallel,MgAg0.97Sb0.99,447.5,0.000032166,,0.001965,0.00024311,0.86586,1.0279,31088.7272275073,0.00226942
71,10.1016/j.actamat.2015.01.018,4586,6(a),5855,parallel,MgAg0.97Sb0.99,448,0.000032112,,0.0019657,0.00024297,0.8664,1.0287,31141.0064773293,0.0022688135
71,10.1016/j.actamat.2015.01.018,4586,6(a),5855,parallel,MgAg0.97Sb0.99,448.5,0.000032058,,0.0019665,0.00024283,0.86693,1.0296,31193.4618503962,0.0022683492