sid,DOI,figureid,fignum,sampleid,samplename,composition,Temperature,Electrical resistivity,Lattice thermal conductivity,Power factor,Seebeck coefficient,Thermal conductivity,ZT,Electrical conductivity,Figure of merit Z
71,10.1016/j.actamat.2015.01.018,4586,6(a),5856,perpendicular,MgAg0.97Sb0.99,326.5,0.000036354,,0.0017806,0.00025913,0.71395,0.78841,27507.2894316994,0.0024940122
71,10.1016/j.actamat.2015.01.018,4586,6(a),5856,perpendicular,MgAg0.97Sb0.99,327,0.000036426,,0.0017812,0.00025905,0.71453,0.78925,27452.9182452095,0.0024928275
71,10.1016/j.actamat.2015.01.018,4586,6(a),5856,perpendicular,MgAg0.97Sb0.99,327.5,0.000036497,,0.0017819,0.00025897,0.7151,0.79008,27399.5122886813,0.0024918193
71,10.1016/j.actamat.2015.01.018,4586,6(a),5856,perpendicular,MgAg0.97Sb0.99,328,0.000036567,,0.0017825,0.00025888,0.71568,0.79091,27347.0615582356,0.0024906383
71,10.1016/j.actamat.2015.01.018,4586,6(a),5856,perpendicular,MgAg0.97Sb0.99,328.5,0.000036636,,0.0017831,0.0002588,0.71625,0.79174,27295.5562834371,0.0024894939
71,10.1016/j.actamat.2015.01.018,4586,6(a),5856,perpendicular,MgAg0.97Sb0.99,329,0.000036703,,0.0017838,0.00025872,0.71683,0.79257,27245.7292319429,0.0024884561
71,10.1016/j.actamat.2015.01.018,4586,6(a),5856,perpendicular,MgAg0.97Sb0.99,329.5,0.000036769,,0.0017844,0.00025863,0.7174,0.7934,27196.8234110256,0.0024873153
71,10.1016/j.actamat.2015.01.018,4586,6(a),5856,perpendicular,MgAg0.97Sb0.99,330,0.000036834,,0.001785,0.00025855,0.71798,0.79423,27148.8298854319,0.0024861417
71,10.1016/j.actamat.2015.01.018,4586,6(a),5856,perpendicular,MgAg0.97Sb0.99,330.5,0.000036898,,0.0017856,0.00025846,0.71855,0.79506,27101.7399317036,0.0024850045
71,10.1016/j.actamat.2015.01.018,4586,6(a),5856,perpendicular,MgAg0.97Sb0.99,331,0.000036961,,0.0017863,0.00025838,0.71913,0.7959,27055.5450339547,0.0024839737
71,10.1016/j.actamat.2015.01.018,4586,6(a),5856,perpendicular,MgAg0.97Sb0.99,331.5,0.000037023,,0.0017869,0.0002583,0.7197,0.79673,27010.2368797774,0.0024828401
71,10.1016/j.actamat.2015.01.018,4586,6(a),5856,perpendicular,MgAg0.97Sb0.99,332,0.000037084,,0.0017875,0.00025821,0.72028,0.79756,26965.8073562722,0.0024816738
71,10.1016/j.actamat.2015.01.018,4586,6(a),5856,perpendicular,MgAg0.97Sb0.99,332.5,0.000037143,,0.0017881,0.00025813,0.72085,0.79839,26922.9733731793,0.0024805438
71,10.1016/j.actamat.2015.01.018,4586,6(a),5856,perpendicular,MgAg0.97Sb0.99,333,0.000037202,,0.0017888,0.00025804,0.72143,0.79922,26880.2752540186,0.0024795198
71,10.1016/j.actamat.2015.01.018,4586,6(a),5856,perpendicular,MgAg0.97Sb0.99,333.5,0.000037259,,0.0017894,0.00025796,0.722,0.80005,26839.1529563327,0.0024783934
71,10.1016/j.actamat.2015.01.018,4586,6(a),5856,perpendicular,MgAg0.97Sb0.99,334,0.000037315,,0.00179,0.00025788,0.72258,0.80088,26798.8744472732,0.0024772344
71,10.1016/j.actamat.2015.01.018,4586,6(a),5856,perpendicular,MgAg0.97Sb0.99,334.5,0.000037371,,0.0017906,0.00025779,0.72315,0.80172,26758.7166519494,0.0024761115
71,10.1016/j.actamat.2015.01.018,4586,6(a),5856,perpendicular,MgAg0.97Sb0.99,335,0.000037425,,0.0017913,0.00025771,0.72373,0.80255,26720.1068804275,0.0024750943
71,10.1016/j.actamat.2015.01.018,4586,6(a),5856,perpendicular,MgAg0.97Sb0.99,335.5,0.000037478,,0.0017919,0.00025763,0.7243,0.80338,26682.3202945728,0.0024739749
71,10.1016/j.actamat.2015.01.018,4586,6(a),5856,perpendicular,MgAg0.97Sb0.99,336,0.000037529,,0.0017925,0.00025754,0.72488,0.80421,26646.0603799728,0.0024728231
71,10.1016/j.actamat.2015.01.018,4586,6(a),5856,perpendicular,MgAg0.97Sb0.99,336.5,0.00003758,,0.0017931,0.00025746,0.72545,0.80504,26609.8988823842,0.0024717072
71,10.1016/j.actamat.2015.01.018,4586,6(a),5856,perpendicular,MgAg0.97Sb0.99,337,0.00003763,,0.0017938,0.00025737,0.72603,0.80587,26574.5415891576,0.0024706968
71,10.1016/j.actamat.2015.01.018,4586,6(a),5856,perpendicular,MgAg0.97Sb0.99,337.5,0.000037679,,0.0017944,0.00025729,0.7266,0.8067,26539.9824836116,0.0024695844
71,10.1016/j.actamat.2015.01.018,4586,6(a),5856,perpendicular,MgAg0.97Sb0.99,338,0.000037726,,0.001795,0.00025721,0.72718,0.80753,26506.9183056778,0.0024684397
71,10.1016/j.actamat.2015.01.018,4586,6(a),5856,perpendicular,MgAg0.97Sb0.99,338.5,0.000037773,,0.0017957,0.00025712,0.72775,0.80837,26473.9364096047,0.0024674682
71,10.1016/j.actamat.2015.01.018,4586,6(a),5856,perpendicular,MgAg0.97Sb0.99,339,0.000037818,,0.0017963,0.00025704,0.72833,0.8092,26442.4348193982,0.0024663271
71,10.1016/j.actamat.2015.01.018,4586,6(a),5856,perpendicular,MgAg0.97Sb0.99,339.5,0.000037863,,0.0017969,0.00025695,0.7289,0.81003,26411.0081081795,0.0024652216
71,10.1016/j.actamat.2015.01.018,4586,6(a),5856,perpendicular,MgAg0.97Sb0.99,340,0.000037906,,0.0017975,0.00025687,0.72948,0.81086,26381.0478552208,0.002464084
71,10.1016/j.actamat.2015.01.018,4586,6(a),5856,perpendicular,MgAg0.97Sb0.99,340.5,0.000037949,,0.0017982,0.00025679,0.73005,0.81169,26351.1554981686,0.002463119
71,10.1016/j.actamat.2015.01.018,4586,6(a),5856,perpendicular,MgAg0.97Sb0.99,341,0.00003799,,0.0017988,0.0002567,0.73063,0.81252,26322.7165043432,0.0024619849
71,10.1016/j.actamat.2015.01.018,4586,6(a),5856,perpendicular,MgAg0.97Sb0.99,341.5,0.00003803,,0.0017994,0.00025662,0.7312,0.81335,26295.0302392848,0.0024608862
71,10.1016/j.actamat.2015.01.018,4586,6(a),5856,perpendicular,MgAg0.97Sb0.99,342,0.00003807,,0.0018,0.00025653,0.73178,0.81419,26267.402153927,0.0024597557
71,10.1016/j.actamat.2015.01.018,4586,6(a),5856,perpendicular,MgAg0.97Sb0.99,342.5,0.000038108,,0.0018007,0.00025645,0.73235,0.81502,26241.2091949197,0.002458797
71,10.1016/j.actamat.2015.01.018,4586,6(a),5856,perpendicular,MgAg0.97Sb0.99,343,0.000038145,,0.0018013,0.00025637,0.73293,0.81585,26215.7556691572,0.0024576699
71,10.1016/j.actamat.2015.01.018,4586,6(a),5856,perpendicular,MgAg0.97Sb0.99,343.5,0.000038181,,0.0018019,0.00025628,0.7335,0.81668,26191.0374269925,0.0024565781
71,10.1016/j.actamat.2015.01.018,4586,6(a),5856,perpendicular,MgAg0.97Sb0.99,344,0.000038217,,0.0018025,0.0002562,0.73408,0.81751,26166.3657534605,0.0024554544
71,10.1016/j.actamat.2015.01.018,4586,6(a),5856,perpendicular,MgAg0.97Sb0.99,344.5,0.000038251,,0.0018032,0.00025612,0.73465,0.81834,26143.107369742,0.0024545021
71,10.1016/j.actamat.2015.01.018,4586,6(a),5856,perpendicular,MgAg0.97Sb0.99,345,0.000038284,,0.0018038,0.00025603,0.73522,0.81917,26120.5725629506,0.0024534153
71,10.1016/j.actamat.2015.01.018,4586,6(a),5856,perpendicular,MgAg0.97Sb0.99,345.5,0.000038316,,0.0018044,0.00025595,0.7358,0.82,26098.7576991335,0.0024522968
71,10.1016/j.actamat.2015.01.018,4586,6(a),5856,perpendicular,MgAg0.97Sb0.99,346,0.000038347,,0.0018051,0.00025586,0.73637,0.82084,26077.659269304,0.0024513492
71,10.1016/j.actamat.2015.01.018,4586,6(a),5856,perpendicular,MgAg0.97Sb0.99,346.5,0.000038378,,0.0018057,0.00025578,0.73695,0.82167,26056.5949241753,0.0024502341
71,10.1016/j.actamat.2015.01.018,4586,6(a),5856,perpendicular,MgAg0.97Sb0.99,347,0.000038407,,0.0018063,0.0002557,0.73752,0.8225,26036.9203530606,0.0024491539
71,10.1016/j.actamat.2015.01.018,4586,6(a),5856,perpendicular,MgAg0.97Sb0.99,347.5,0.000038435,,0.0018069,0.00025561,0.7381,0.82333,26017.9523871471,0.0024480423
71,10.1016/j.actamat.2015.01.018,4586,6(a),5856,perpendicular,MgAg0.97Sb0.99,348,0.000038463,,0.0018076,0.00025553,0.73867,0.82416,25999.0120375426,0.0024471009
71,10.1016/j.actamat.2015.01.018,4586,6(a),5856,perpendicular,MgAg0.97Sb0.99,348.5,0.000038489,,0.0018082,0.00025544,0.73925,0.82499,25981.4492452389,0.0024459926
71,10.1016/j.actamat.2015.01.018,4586,6(a),5856,perpendicular,MgAg0.97Sb0.99,349,0.000038515,,0.0018088,0.00025536,0.73982,0.82582,25963.9101648708,0.002444919
71,10.1016/j.actamat.2015.01.018,4586,6(a),5856,perpendicular,MgAg0.97Sb0.99,349.5,0.000038539,,0.0018094,0.00025528,0.7404,0.82666,25947.7412491243,0.0024438142
71,10.1016/j.actamat.2015.01.018,4586,6(a),5856,perpendicular,MgAg0.97Sb0.99,350,0.000038563,,0.0018101,0.00025519,0.74097,0.82749,25931.5924590929,0.0024428789
71,10.1016/j.actamat.2015.01.018,4586,6(a),5856,perpendicular,MgAg0.97Sb0.99,350.5,0.000038585,,0.0018107,0.00025511,0.74155,0.82832,25916.8070493715,0.0024417774
71,10.1016/j.actamat.2015.01.018,4586,6(a),5856,perpendicular,MgAg0.97Sb0.99,351,0.000038607,,0.0018113,0.00025502,0.74212,0.82915,25902.0384904292,0.0024407104
71,10.1016/j.actamat.2015.01.018,4586,6(a),5856,perpendicular,MgAg0.97Sb0.99,351.5,0.000038628,,0.0018119,0.00025494,0.7427,0.82998,25887.9569224397,0.0024396122
71,10.1016/j.actamat.2015.01.018,4586,6(a),5856,perpendicular,MgAg0.97Sb0.99,352,0.000038647,,0.0018126,0.00025486,0.74327,0.83081,25875.2296426631,0.0024386831
71,10.1016/j.actamat.2015.01.018,4586,6(a),5856,perpendicular,MgAg0.97Sb0.99,352.5,0.000038666,,0.0018132,0.00025477,0.74385,0.83164,25862.5148709461,0.0024375882
71,10.1016/j.actamat.2015.01.018,4586,6(a),5856,perpendicular,MgAg0.97Sb0.99,353,0.000038684,,0.0018138,0.00025469,0.74442,0.83248,25850.4808189432,0.0024365278
71,10.1016/j.actamat.2015.01.018,4586,6(a),5856,perpendicular,MgAg0.97Sb0.99,353.5,0.000038701,,0.0018145,0.00025461,0.745,0.83331,25839.1256039896,0.0024355705
71,10.1016/j.actamat.2015.01.018,4586,6(a),5856,perpendicular,MgAg0.97Sb0.99,354,0.000038717,,0.0018151,0.00025452,0.74557,0.83414,25828.4474520237,0.0024345132
71,10.1016/j.actamat.2015.01.018,4586,6(a),5856,perpendicular,MgAg0.97Sb0.99,354.5,0.000038733,,0.0018157,0.00025444,0.74615,0.83497,25817.7781220148,0.0024334249
71,10.1016/j.actamat.2015.01.018,4586,6(a),5856,perpendicular,MgAg0.97Sb0.99,355,0.000038747,,0.0018163,0.00025435,0.74672,0.8358,25808.4496864273,0.0024323709
71,10.1016/j.actamat.2015.01.018,4586,6(a),5856,perpendicular,MgAg0.97Sb0.99,355.5,0.00003876,,0.001817,0.00025427,0.7473,0.83663,25799.7936016512,0.0024314198
71,10.1016/j.actamat.2015.01.018,4586,6(a),5856,perpendicular,MgAg0.97Sb0.99,356,0.000038773,,0.0018176,0.00025419,0.74787,0.83746,25791.1433213834,0.0024303689
71,10.1016/j.actamat.2015.01.018,4586,6(a),5856,perpendicular,MgAg0.97Sb0.99,356.5,0.000038784,,0.0018182,0.0002541,0.74845,0.83829,25783.8283828383,0.0024292872
71,10.1016/j.actamat.2015.01.018,4586,6(a),5856,perpendicular,MgAg0.97Sb0.99,357,0.000038795,,0.0018188,0.00025402,0.74902,0.83913,25776.5175924733,0.0024282396
71,10.1016/j.actamat.2015.01.018,4586,6(a),5856,perpendicular,MgAg0.97Sb0.99,357.5,0.000038805,,0.0018195,0.00025393,0.7496,0.83996,25769.8750161062,0.0024272946
71,10.1016/j.actamat.2015.01.018,4586,6(a),5856,perpendicular,MgAg0.97Sb0.99,358,0.000038814,,0.0018201,0.00025385,0.75017,0.84079,25763.8996238471,0.00242625
71,10.1016/j.actamat.2015.01.018,4586,6(a),5856,perpendicular,MgAg0.97Sb0.99,358.5,0.000038822,,0.0018207,0.00025377,0.75075,0.84162,25758.5904899284,0.0024251748
71,10.1016/j.actamat.2015.01.018,4586,6(a),5856,perpendicular,MgAg0.97Sb0.99,359,0.00003883,,0.0018213,0.00025368,0.75132,0.84245,25753.2835436518,0.0024241335
71,10.1016/j.actamat.2015.01.018,4586,6(a),5856,perpendicular,MgAg0.97Sb0.99,359.5,0.000038836,,0.001822,0.0002536,0.7519,0.84328,25749.3047687712,0.0024231946
71,10.1016/j.actamat.2015.01.018,4586,6(a),5856,perpendicular,MgAg0.97Sb0.99,360,0.000038842,,0.0018226,0.00025351,0.75247,0.84411,25745.327223109,0.0024221564
71,10.1016/j.actamat.2015.01.018,4586,6(a),5856,perpendicular,MgAg0.97Sb0.99,360.5,0.000038846,,0.0018232,0.00025343,0.75305,0.84495,25742.6762086186,0.0024210876
71,10.1016/j.actamat.2015.01.018,4586,6(a),5856,perpendicular,MgAg0.97Sb0.99,361,0.00003885,,0.0018239,0.00025335,0.75362,0.84578,25740.0257400257,0.0024201852
71,10.1016/j.actamat.2015.01.018,4586,6(a),5856,perpendicular,MgAg0.97Sb0.99,361.5,0.000038853,,0.0018245,0.00025326,0.7542,0.84661,25738.0382467248,0.0024191196
71,10.1016/j.actamat.2015.01.018,4586,6(a),5856,perpendicular,MgAg0.97Sb0.99,362,0.000038855,,0.0018251,0.00025318,0.75477,0.84744,25736.7134216961,0.0024180876
71,10.1016/j.actamat.2015.01.018,4586,6(a),5856,perpendicular,MgAg0.97Sb0.99,362.5,0.000038857,,0.0018257,0.0002531,0.75535,0.84827,25735.3887330468,0.0024170252
71,10.1016/j.actamat.2015.01.018,4586,6(a),5856,perpendicular,MgAg0.97Sb0.99,363,0.000038857,,0.0018264,0.00025301,0.75592,0.8491,25735.3887330468,0.0024161287
71,10.1016/j.actamat.2015.01.018,4586,6(a),5856,perpendicular,MgAg0.97Sb0.99,363.5,0.000038857,,0.001827,0.00025293,0.7565,0.84993,25735.3887330468,0.0024150694
71,10.1016/j.actamat.2015.01.018,4586,6(a),5856,perpendicular,MgAg0.97Sb0.99,364,0.000038856,,0.0018276,0.00025284,0.75707,0.85076,25736.0510603253,0.0024140436
71,10.1016/j.actamat.2015.01.018,4586,6(a),5856,perpendicular,MgAg0.97Sb0.99,364.5,0.000038854,,0.0018282,0.00025276,0.75765,0.8516,25737.3758171617,0.0024129875
71,10.1016/j.actamat.2015.01.018,4586,6(a),5856,perpendicular,MgAg0.97Sb0.99,365,0.000038851,,0.0018289,0.00025268,0.75822,0.85243,25739.3632081542,0.0024120968
71,10.1016/j.actamat.2015.01.018,4586,6(a),5856,perpendicular,MgAg0.97Sb0.99,365.5,0.000038848,,0.0018295,0.00025259,0.7588,0.85326,25741.3509060956,0.0024110438
71,10.1016/j.actamat.2015.01.018,4586,6(a),5856,perpendicular,MgAg0.97Sb0.99,366,0.000038843,,0.0018301,0.00025251,0.75937,0.85409,25744.6644182993,0.0024100241
71,10.1016/j.actamat.2015.01.018,4586,6(a),5856,perpendicular,MgAg0.97Sb0.99,366.5,0.000038838,,0.0018307,0.00025242,0.75995,0.85492,25747.9787836655,0.0024089743
71,10.1016/j.actamat.2015.01.018,4586,6(a),5856,perpendicular,MgAg0.97Sb0.99,367,0.000038832,,0.0018314,0.00025234,0.76052,0.85575,25751.9571487433,0.0024080892
71,10.1016/j.actamat.2015.01.018,4586,6(a),5856,perpendicular,MgAg0.97Sb0.99,367.5,0.000038826,,0.001832,0.00025226,0.7611,0.85658,25755.9367434194,0.0024070424
71,10.1016/j.actamat.2015.01.018,4586,6(a),5856,perpendicular,MgAg0.97Sb0.99,368,0.000038818,,0.0018326,0.00025217,0.76167,0.85742,25761.2447833479,0.0024060289
71,10.1016/j.actamat.2015.01.018,4586,6(a),5856,perpendicular,MgAg0.97Sb0.99,368.5,0.00003881,,0.0018333,0.00025209,0.76225,0.85825,25766.5550115949,0.0024051164
71,10.1016/j.actamat.2015.01.018,4586,6(a),5856,perpendicular,MgAg0.97Sb0.99,369,0.000038801,,0.0018339,0.000252,0.76282,0.85908,25772.5316357826,0.0024041058
71,10.1016/j.actamat.2015.01.018,4586,6(a),5856,perpendicular,MgAg0.97Sb0.99,369.5,0.000038791,,0.0018345,0.00025192,0.7634,0.85991,25779.1755819649,0.0024030652
71,10.1016/j.actamat.2015.01.018,4586,6(a),5856,perpendicular,MgAg0.97Sb0.99,370,0.000038781,,0.0018351,0.00025184,0.76397,0.86074,25785.8229545396,0.0024020577
71,10.1016/j.actamat.2015.01.018,4586,6(a),5856,perpendicular,MgAg0.97Sb0.99,370.5,0.000038769,,0.0018358,0.00025175,0.76455,0.86157,25793.8043282004,0.002401151
71,10.1016/j.actamat.2015.01.018,4586,6(a),5856,perpendicular,MgAg0.97Sb0.99,371,0.000038757,,0.0018364,0.00025167,0.76512,0.8624,25801.7906442707,0.0024001464
71,10.1016/j.actamat.2015.01.018,4586,6(a),5856,perpendicular,MgAg0.97Sb0.99,371.5,0.000038745,,0.001837,0.00025159,0.7657,0.86323,25809.7819073429,0.0023991119
71,10.1016/j.actamat.2015.01.018,4586,6(a),5856,perpendicular,MgAg0.97Sb0.99,372,0.000038731,,0.0018376,0.0002515,0.76627,0.86407,25819.1113061888,0.0023981103
71,10.1016/j.actamat.2015.01.018,4586,6(a),5856,perpendicular,MgAg0.97Sb0.99,372.5,0.000038717,,0.0018383,0.00025142,0.76685,0.8649,25828.4474520237,0.0023972094
71,10.1016/j.actamat.2015.01.018,4586,6(a),5856,perpendicular,MgAg0.97Sb0.99,373,0.000038702,,0.0018389,0.00025133,0.76742,0.86573,25838.4579608289,0.0023962107
71,10.1016/j.actamat.2015.01.018,4586,6(a),5856,perpendicular,MgAg0.97Sb0.99,373.5,0.000038686,,0.0018395,0.00025125,0.768,0.86656,25849.1443933206,0.0023951823
71,10.1016/j.actamat.2015.01.018,4586,6(a),5856,perpendicular,MgAg0.97Sb0.99,374,0.00003867,,0.0018401,0.00025117,0.76857,0.86739,25859.8396689941,0.0023941866
71,10.1016/j.actamat.2015.01.018,4586,6(a),5856,perpendicular,MgAg0.97Sb0.99,374.5,0.000038653,,0.0018408,0.00025108,0.76915,0.86822,25871.2131011823,0.0023932913
71,10.1016/j.actamat.2015.01.018,4586,6(a),5856,perpendicular,MgAg0.97Sb0.99,375,0.000038635,,0.0018414,0.000251,0.76972,0.86905,25883.2664682283,0.0023922985
71,10.1016/j.actamat.2015.01.018,4586,6(a),5856,perpendicular,MgAg0.97Sb0.99,375.5,0.000038616,,0.001842,0.00025091,0.7703,0.86989,25896.0016573441,0.0023912761
71,10.1016/j.actamat.2015.01.018,4586,6(a),5856,perpendicular,MgAg0.97Sb0.99,376,0.000038597,,0.0018426,0.00025083,0.77087,0.87072,25908.7493846672,0.0023902863
71,10.1016/j.actamat.2015.01.018,4586,6(a),5856,perpendicular,MgAg0.97Sb0.99,376.5,0.000038577,,0.0018433,0.00025075,0.77145,0.87155,25922.1816108044,0.0023893966
71,10.1016/j.actamat.2015.01.018,4586,6(a),5856,perpendicular,MgAg0.97Sb0.99,377,0.000038556,,0.0018439,0.00025066,0.77202,0.87238,25936.3004461044,0.0023884096
71,10.1016/j.actamat.2015.01.018,4586,6(a),5856,perpendicular,MgAg0.97Sb0.99,377.5,0.000038535,,0.0018445,0.00025058,0.7726,0.87321,25950.4346697807,0.0023873932
71,10.1016/j.actamat.2015.01.018,4586,6(a),5856,perpendicular,MgAg0.97Sb0.99,378,0.000038513,,0.0018452,0.0002505,0.77317,0.87404,25965.2584841482,0.0023865385
71,10.1016/j.actamat.2015.01.018,4586,6(a),5856,perpendicular,MgAg0.97Sb0.99,378.5,0.00003849,,0.0018458,0.00025041,0.77375,0.87487,25980.774227072,0.002385525
71,10.1016/j.actamat.2015.01.018,4586,6(a),5856,perpendicular,MgAg0.97Sb0.99,379,0.000038467,,0.0018464,0.00025033,0.77432,0.87571,25996.3085241896,0.0023845439
71,10.1016/j.actamat.2015.01.018,4586,6(a),5856,perpendicular,MgAg0.97Sb0.99,379.5,0.000038443,,0.001847,0.00025024,0.7749,0.87654,26012.5380433369,0.0023835334
71,10.1016/j.actamat.2015.01.018,4586,6(a),5856,perpendicular,MgAg0.97Sb0.99,380,0.000038418,,0.0018477,0.00025016,0.77547,0.87737,26029.4653547816,0.002382684
71,10.1016/j.actamat.2015.01.018,4586,6(a),5856,perpendicular,MgAg0.97Sb0.99,380.5,0.000038393,,0.0018483,0.00025008,0.77604,0.8782,26046.414711015,0.0023817071
71,10.1016/j.actamat.2015.01.018,4586,6(a),5856,perpendicular,MgAg0.97Sb0.99,381,0.000038367,,0.0018489,0.00024999,0.77662,0.87903,26064.0654729325,0.002380701
71,10.1016/j.actamat.2015.01.018,4586,6(a),5856,perpendicular,MgAg0.97Sb0.99,381.5,0.00003834,,0.0018495,0.00024991,0.77719,0.87986,26082.4204486176,0.002379727
71,10.1016/j.actamat.2015.01.018,4586,6(a),5856,perpendicular,MgAg0.97Sb0.99,382,0.000038313,,0.0018502,0.00024982,0.77777,0.88069,26100.8012945997,0.0023788524
71,10.1016/j.actamat.2015.01.018,4586,6(a),5856,perpendicular,MgAg0.97Sb0.99,382.5,0.000038285,,0.0018508,0.00024974,0.77834,0.88152,26119.8902964608,0.0023778811
71,10.1016/j.actamat.2015.01.018,4586,6(a),5856,perpendicular,MgAg0.97Sb0.99,383,0.000038256,,0.0018514,0.00024966,0.77892,0.88236,26139.6905060644,0.0023768808
71,10.1016/j.actamat.2015.01.018,4586,6(a),5856,perpendicular,MgAg0.97Sb0.99,383.5,0.000038227,,0.001852,0.00024957,0.77949,0.88319,26159.5207575797,0.0023759125
71,10.1016/j.actamat.2015.01.018,4586,6(a),5856,perpendicular,MgAg0.97Sb0.99,384,0.000038197,,0.0018527,0.00024949,0.78007,0.88402,26180.0664973689,0.0023750433
71,10.1016/j.actamat.2015.01.018,4586,6(a),5856,perpendicular,MgAg0.97Sb0.99,384.5,0.000038167,,0.0018533,0.0002494,0.78064,0.88485,26200.6445358556,0.0023740777
71,10.1016/j.actamat.2015.01.018,4586,6(a),5856,perpendicular,MgAg0.97Sb0.99,385,0.000038136,,0.0018539,0.00024932,0.78122,0.88568,26221.942521502,0.0023730831
71,10.1016/j.actamat.2015.01.018,4586,6(a),5856,perpendicular,MgAg0.97Sb0.99,385.5,0.000038104,,0.0018546,0.00024924,0.78179,0.88651,26243.9638883057,0.0023722483
71,10.1016/j.actamat.2015.01.018,4586,6(a),5856,perpendicular,MgAg0.97Sb0.99,386,0.000038071,,0.0018552,0.00024915,0.78237,0.88734,26266.7121956345,0.0023712566
71,10.1016/j.actamat.2015.01.018,4586,6(a),5856,perpendicular,MgAg0.97Sb0.99,386.5,0.000038039,,0.0018558,0.00024907,0.78294,0.88818,26288.8088540708,0.0023702966
71,10.1016/j.actamat.2015.01.018,4586,6(a),5856,perpendicular,MgAg0.97Sb0.99,387,0.000038005,,0.0018564,0.00024899,0.78352,0.88901,26312.3273253519,0.0023693077