sid,DOI,figureid,fignum,sampleid,samplename,composition,Temperature,Electrical resistivity,Lattice thermal conductivity,Power factor,Seebeck coefficient,Thermal conductivity,ZT,Electrical conductivity,Figure of merit Z
71,10.1016/j.actamat.2015.01.018,4580,3(a),5853,MgAg0.963Cu0.007Sb0.99,MgAg0.963Cu0.007Sb0.99,426.5,0.000024892,,0.0021062,0.00023149,0.79118,1.1712,40173.5497348546,0.0026620996
71,10.1016/j.actamat.2015.01.018,4580,3(a),5853,MgAg0.963Cu0.007Sb0.99,MgAg0.963Cu0.007Sb0.99,427,0.000024867,,0.0021069,0.0002314,0.79175,1.1721,40213.9381509631,0.0026610673
71,10.1016/j.actamat.2015.01.018,4580,3(a),5853,MgAg0.963Cu0.007Sb0.99,MgAg0.963Cu0.007Sb0.99,427.5,0.000024842,,0.0021075,0.00023131,0.79232,1.1729,40254.4078576604,0.0026599101
71,10.1016/j.actamat.2015.01.018,4580,3(a),5853,MgAg0.963Cu0.007Sb0.99,MgAg0.963Cu0.007Sb0.99,428,0.000024818,,0.0021081,0.00023122,0.79289,1.1738,40293.3354823112,0.0026587547
71,10.1016/j.actamat.2015.01.018,4580,3(a),5853,MgAg0.963Cu0.007Sb0.99,MgAg0.963Cu0.007Sb0.99,428.5,0.000024793,,0.0021088,0.00023113,0.79346,1.1746,40333.965232122,0.0026577269
71,10.1016/j.actamat.2015.01.018,4580,3(a),5853,MgAg0.963Cu0.007Sb0.99,MgAg0.963Cu0.007Sb0.99,429,0.000024768,,0.0021094,0.00023105,0.79402,1.1754,40374.677002584,0.0026566081
71,10.1016/j.actamat.2015.01.018,4580,3(a),5853,MgAg0.963Cu0.007Sb0.99,MgAg0.963Cu0.007Sb0.99,429.5,0.000024743,,0.00211,0.00023096,0.79459,1.1763,40415.471042315,0.0026554575
71,10.1016/j.actamat.2015.01.018,4580,3(a),5853,MgAg0.963Cu0.007Sb0.99,MgAg0.963Cu0.007Sb0.99,430,0.000024719,,0.0021107,0.00023087,0.79516,1.1771,40454.7109510903,0.0026544343
71,10.1016/j.actamat.2015.01.018,4580,3(a),5853,MgAg0.963Cu0.007Sb0.99,MgAg0.963Cu0.007Sb0.99,430.5,0.000024694,,0.0021113,0.00023078,0.79573,1.178,40495.6669636349,0.0026532869
71,10.1016/j.actamat.2015.01.018,4580,3(a),5853,MgAg0.963Cu0.007Sb0.99,MgAg0.963Cu0.007Sb0.99,431,0.000024669,,0.0021119,0.00023069,0.7963,1.1788,40536.7059872715,0.0026521412
71,10.1016/j.actamat.2015.01.018,4580,3(a),5853,MgAg0.963Cu0.007Sb0.99,MgAg0.963Cu0.007Sb0.99,431.5,0.000024645,,0.0021126,0.0002306,0.79687,1.1797,40576.1817812944,0.0026511225
71,10.1016/j.actamat.2015.01.018,4580,3(a),5853,MgAg0.963Cu0.007Sb0.99,MgAg0.963Cu0.007Sb0.99,432,0.00002462,,0.0021132,0.00023052,0.79743,1.1805,40617.3842404549,0.0026500132
71,10.1016/j.actamat.2015.01.018,4580,3(a),5853,MgAg0.963Cu0.007Sb0.99,MgAg0.963Cu0.007Sb0.99,432.5,0.000024595,,0.0021138,0.00023043,0.798,1.1814,40658.6704614759,0.0026488722
71,10.1016/j.actamat.2015.01.018,4580,3(a),5853,MgAg0.963Cu0.007Sb0.99,MgAg0.963Cu0.007Sb0.99,433,0.00002457,,0.0021145,0.00023034,0.79857,1.1822,40700.0407000407,0.002647858
71,10.1016/j.actamat.2015.01.018,4580,3(a),5853,MgAg0.963Cu0.007Sb0.99,MgAg0.963Cu0.007Sb0.99,433.5,0.000024546,,0.0021151,0.00023025,0.79914,1.183,40739.8354110649,0.0026467202
71,10.1016/j.actamat.2015.01.018,4580,3(a),5853,MgAg0.963Cu0.007Sb0.99,MgAg0.963Cu0.007Sb0.99,434,0.000024521,,0.0021157,0.00023016,0.79971,1.1839,40781.3710696954,0.002645584
71,10.1016/j.actamat.2015.01.018,4580,3(a),5853,MgAg0.963Cu0.007Sb0.99,MgAg0.963Cu0.007Sb0.99,434.5,0.000024496,,0.0021164,0.00023007,0.80027,1.1847,40822.9915088178,0.0026446074
71,10.1016/j.actamat.2015.01.018,4580,3(a),5853,MgAg0.963Cu0.007Sb0.99,MgAg0.963Cu0.007Sb0.99,435,0.000024472,,0.002117,0.00022998,0.80084,1.1856,40863.02713305,0.0026434744
71,10.1016/j.actamat.2015.01.018,4580,3(a),5853,MgAg0.963Cu0.007Sb0.99,MgAg0.963Cu0.007Sb0.99,435.5,0.000024447,,0.0021176,0.0002299,0.80141,1.1864,40904.8144966663,0.0026423429
71,10.1016/j.actamat.2015.01.018,4580,3(a),5853,MgAg0.963Cu0.007Sb0.99,MgAg0.963Cu0.007Sb0.99,436,0.000024422,,0.0021183,0.00022981,0.80198,1.1873,40946.6874129883,0.0026413377
71,10.1016/j.actamat.2015.01.018,4580,3(a),5853,MgAg0.963Cu0.007Sb0.99,MgAg0.963Cu0.007Sb0.99,436.5,0.000024397,,0.0021189,0.00022972,0.80255,1.1881,40988.6461450178,0.0026402093
71,10.1016/j.actamat.2015.01.018,4580,3(a),5853,MgAg0.963Cu0.007Sb0.99,MgAg0.963Cu0.007Sb0.99,437,0.000024373,,0.0021195,0.00022963,0.80311,1.1889,41029.0075083084,0.0026391154
71,10.1016/j.actamat.2015.01.018,4580,3(a),5853,MgAg0.963Cu0.007Sb0.99,MgAg0.963Cu0.007Sb0.99,437.5,0.000024348,,0.0021202,0.00022954,0.80368,1.1898,41071.1352061771,0.0026381147
71,10.1016/j.actamat.2015.01.018,4580,3(a),5853,MgAg0.963Cu0.007Sb0.99,MgAg0.963Cu0.007Sb0.99,438,0.000024323,,0.0021208,0.00022945,0.80425,1.1906,41113.3495045841,0.002636991
71,10.1016/j.actamat.2015.01.018,4580,3(a),5853,MgAg0.963Cu0.007Sb0.99,MgAg0.963Cu0.007Sb0.99,438.5,0.000024298,,0.0021214,0.00022936,0.80482,1.1915,41155.6506708371,0.0026358689
71,10.1016/j.actamat.2015.01.018,4580,3(a),5853,MgAg0.963Cu0.007Sb0.99,MgAg0.963Cu0.007Sb0.99,439,0.000024274,,0.0021221,0.00022928,0.80539,1.1923,41196.3417648513,0.0026348725
71,10.1016/j.actamat.2015.01.018,4580,3(a),5853,MgAg0.963Cu0.007Sb0.99,MgAg0.963Cu0.007Sb0.99,439.5,0.000024249,,0.0021227,0.00022919,0.80596,1.1932,41238.8139717102,0.0026337535
71,10.1016/j.actamat.2015.01.018,4580,3(a),5853,MgAg0.963Cu0.007Sb0.99,MgAg0.963Cu0.007Sb0.99,440,0.000024224,,0.0021233,0.0002291,0.80652,1.194,41281.3738441215,0.0026326687
71,10.1016/j.actamat.2015.01.018,4580,3(a),5853,MgAg0.963Cu0.007Sb0.99,MgAg0.963Cu0.007Sb0.99,440.5,0.0000242,,0.002124,0.00022901,0.80709,1.1948,41322.3140495868,0.0026316768
71,10.1016/j.actamat.2015.01.018,4580,3(a),5853,MgAg0.963Cu0.007Sb0.99,MgAg0.963Cu0.007Sb0.99,441,0.000024175,,0.0021246,0.00022892,0.80766,1.1957,41365.0465356773,0.0026305624
71,10.1016/j.actamat.2015.01.018,4580,3(a),5853,MgAg0.963Cu0.007Sb0.99,MgAg0.963Cu0.007Sb0.99,441.5,0.00002415,,0.0021252,0.00022883,0.80823,1.1965,41407.867494824,0.0026294495
71,10.1016/j.actamat.2015.01.018,4580,3(a),5853,MgAg0.963Cu0.007Sb0.99,MgAg0.963Cu0.007Sb0.99,442,0.000024125,,0.0021259,0.00022875,0.8088,1.1974,41450.7772020725,0.0026284619
71,10.1016/j.actamat.2015.01.018,4580,3(a),5853,MgAg0.963Cu0.007Sb0.99,MgAg0.963Cu0.007Sb0.99,442.5,0.000024101,,0.0021265,0.00022866,0.80936,1.1982,41492.054271607,0.0026273846
71,10.1016/j.actamat.2015.01.018,4580,3(a),5853,MgAg0.963Cu0.007Sb0.99,MgAg0.963Cu0.007Sb0.99,443,0.000024076,,0.0021271,0.00022857,0.80993,1.1991,41535.1387273633,0.0026262763
71,10.1016/j.actamat.2015.01.018,4580,3(a),5853,MgAg0.963Cu0.007Sb0.99,MgAg0.963Cu0.007Sb0.99,443.5,0.000024051,,0.0021278,0.00022848,0.8105,1.1999,41578.3127520685,0.002625293
71,10.1016/j.actamat.2015.01.018,4580,3(a),5853,MgAg0.963Cu0.007Sb0.99,MgAg0.963Cu0.007Sb0.99,444,0.000024027,,0.0021284,0.00022839,0.81107,1.2007,41619.8443417822,0.0026241878
71,10.1016/j.actamat.2015.01.018,4580,3(a),5853,MgAg0.963Cu0.007Sb0.99,MgAg0.963Cu0.007Sb0.99,444.5,0.000024002,,0.002129,0.0002283,0.81164,1.2016,41663.1947337722,0.0026230841
71,10.1016/j.actamat.2015.01.018,4580,3(a),5853,MgAg0.963Cu0.007Sb0.99,MgAg0.963Cu0.007Sb0.99,445,0.000023977,,0.0021297,0.00022821,0.81221,1.2024,41706.6355257121,0.0026221051
71,10.1016/j.actamat.2015.01.018,4580,3(a),5853,MgAg0.963Cu0.007Sb0.99,MgAg0.963Cu0.007Sb0.99,445.5,0.000023952,,0.0021303,0.00022813,0.81277,1.2033,41750.167000668,0.0026210367
71,10.1016/j.actamat.2015.01.018,4580,3(a),5853,MgAg0.963Cu0.007Sb0.99,MgAg0.963Cu0.007Sb0.99,446,0.000023928,,0.002131,0.00022804,0.81334,1.2041,41792.0427950518,0.0026200605
71,10.1016/j.actamat.2015.01.018,4580,3(a),5853,MgAg0.963Cu0.007Sb0.99,MgAg0.963Cu0.007Sb0.99,446.5,0.000023903,,0.0021316,0.00022795,0.81391,1.205,41835.7528343723,0.0026189628
71,10.1016/j.actamat.2015.01.018,4580,3(a),5853,MgAg0.963Cu0.007Sb0.99,MgAg0.963Cu0.007Sb0.99,447,0.000023878,,0.0021322,0.00022786,0.81448,1.2058,41879.5544015412,0.0026178666
71,10.1016/j.actamat.2015.01.018,4580,3(a),5853,MgAg0.963Cu0.007Sb0.99,MgAg0.963Cu0.007Sb0.99,447.5,0.000023854,,0.0021329,0.00022777,0.81505,1.2066,41921.6902825522,0.0026168947
71,10.1016/j.actamat.2015.01.018,4580,3(a),5853,MgAg0.963Cu0.007Sb0.99,MgAg0.963Cu0.007Sb0.99,448,0.000023829,,0.0021335,0.00022768,0.81561,1.2075,41965.6720802384,0.0026158335
71,10.1016/j.actamat.2015.01.018,4580,3(a),5853,MgAg0.963Cu0.007Sb0.99,MgAg0.963Cu0.007Sb0.99,448.5,0.000023804,,0.0021341,0.0002276,0.81618,1.2083,42009.7462611326,0.0026147418
71,10.1016/j.actamat.2015.01.018,4580,3(a),5853,MgAg0.963Cu0.007Sb0.99,MgAg0.963Cu0.007Sb0.99,449,0.000023779,,0.0021348,0.00022751,0.81675,1.2092,42053.9131166155,0.0026137741
71,10.1016/j.actamat.2015.01.018,4580,3(a),5853,MgAg0.963Cu0.007Sb0.99,MgAg0.963Cu0.007Sb0.99,449.5,0.000023755,,0.0021354,0.00022742,0.81732,1.21,42096.4007577352,0.0026126854
71,10.1016/j.actamat.2015.01.018,4580,3(a),5853,MgAg0.963Cu0.007Sb0.99,MgAg0.963Cu0.007Sb0.99,450,0.00002373,,0.002136,0.00022733,0.81789,1.2109,42140.7501053519,0.0026115981
71,10.1016/j.actamat.2015.01.018,4580,3(a),5853,MgAg0.963Cu0.007Sb0.99,MgAg0.963Cu0.007Sb0.99,450.5,0.000023705,,0.0021367,0.00022724,0.81846,1.2117,42185.192997258,0.0026106346
71,10.1016/j.actamat.2015.01.018,4580,3(a),5853,MgAg0.963Cu0.007Sb0.99,MgAg0.963Cu0.007Sb0.99,451,0.000023681,,0.0021373,0.00022715,0.81902,1.2126,42227.9464549639,0.0026095822
71,10.1016/j.actamat.2015.01.018,4580,3(a),5853,MgAg0.963Cu0.007Sb0.99,MgAg0.963Cu0.007Sb0.99,451.5,0.000023656,,0.0021379,0.00022706,0.81959,1.2134,42272.573554278,0.0026084994
71,10.1016/j.actamat.2015.01.018,4580,3(a),5853,MgAg0.963Cu0.007Sb0.99,MgAg0.963Cu0.007Sb0.99,452,0.000023631,,0.0021386,0.00022698,0.82016,1.2142,42317.2950784986,0.00260754
71,10.1016/j.actamat.2015.01.018,4580,3(a),5853,MgAg0.963Cu0.007Sb0.99,MgAg0.963Cu0.007Sb0.99,452.5,0.000023606,,0.0021392,0.00022689,0.82073,1.2151,42362.1113276286,0.0026064601
71,10.1016/j.actamat.2015.01.018,4580,3(a),5853,MgAg0.963Cu0.007Sb0.99,MgAg0.963Cu0.007Sb0.99,453,0.000023582,,0.0021398,0.0002268,0.8213,1.2159,42405.2243236367,0.0026053817
71,10.1016/j.actamat.2015.01.018,4580,3(a),5853,MgAg0.963Cu0.007Sb0.99,MgAg0.963Cu0.007Sb0.99,453.5,0.000023557,,0.0021405,0.00022671,0.82186,1.2168,42450.227108715,0.0026044582
71,10.1016/j.actamat.2015.01.018,4580,3(a),5853,MgAg0.963Cu0.007Sb0.99,MgAg0.963Cu0.007Sb0.99,454,0.000023532,,0.0021411,0.00022662,0.82243,1.2176,42495.3255141934,0.0026033827
71,10.1016/j.actamat.2015.01.018,4580,3(a),5853,MgAg0.963Cu0.007Sb0.99,MgAg0.963Cu0.007Sb0.99,454.5,0.000023508,,0.0021417,0.00022653,0.823,1.2185,42538.7102263059,0.0026023086
71,10.1016/j.actamat.2015.01.018,4580,3(a),5853,MgAg0.963Cu0.007Sb0.99,MgAg0.963Cu0.007Sb0.99,455,0.000023483,,0.0021424,0.00022644,0.82357,1.2193,42583.9969339522,0.0026013575
71,10.1016/j.actamat.2015.01.018,4580,3(a),5853,MgAg0.963Cu0.007Sb0.99,MgAg0.963Cu0.007Sb0.99,455.5,0.000023458,,0.002143,0.00022636,0.82414,1.2201,42629.3801688123,0.0026002864
71,10.1016/j.actamat.2015.01.018,4580,3(a),5853,MgAg0.963Cu0.007Sb0.99,MgAg0.963Cu0.007Sb0.99,456,0.000023433,,0.0021436,0.00022627,0.82471,1.221,42674.8602398327,0.0025992167
71,10.1016/j.actamat.2015.01.018,4580,3(a),5853,MgAg0.963Cu0.007Sb0.99,MgAg0.963Cu0.007Sb0.99,456.5,0.000023409,,0.0021443,0.00022618,0.82527,1.2218,42718.612499466,0.0025983012
71,10.1016/j.actamat.2015.01.018,4580,3(a),5853,MgAg0.963Cu0.007Sb0.99,MgAg0.963Cu0.007Sb0.99,457,0.000023384,,0.0021449,0.00022609,0.82584,1.2227,42764.2832706124,0.0025972343
71,10.1016/j.actamat.2015.01.018,4580,3(a),5853,MgAg0.963Cu0.007Sb0.99,MgAg0.963Cu0.007Sb0.99,457.5,0.000023359,,0.0021455,0.000226,0.82641,1.2235,42810.0518001627,0.002596169
71,10.1016/j.actamat.2015.01.018,4580,3(a),5853,MgAg0.963Cu0.007Sb0.99,MgAg0.963Cu0.007Sb0.99,458,0.000023334,,0.0021462,0.00022591,0.82698,1.2244,42855.9184023314,0.002595226
71,10.1016/j.actamat.2015.01.018,4580,3(a),5853,MgAg0.963Cu0.007Sb0.99,MgAg0.963Cu0.007Sb0.99,458.5,0.00002331,,0.0021468,0.00022583,0.82755,1.2252,42900.0429000429,0.0025941635
71,10.1016/j.actamat.2015.01.018,4580,3(a),5853,MgAg0.963Cu0.007Sb0.99,MgAg0.963Cu0.007Sb0.99,459,0.000023285,,0.0021474,0.00022574,0.82811,1.226,42946.1026411853,0.0025931338
71,10.1016/j.actamat.2015.01.018,4580,3(a),5853,MgAg0.963Cu0.007Sb0.99,MgAg0.963Cu0.007Sb0.99,459.5,0.00002326,,0.0021481,0.00022565,0.82868,1.2269,42992.2613929493,0.0025921948
71,10.1016/j.actamat.2015.01.018,4580,3(a),5853,MgAg0.963Cu0.007Sb0.99,MgAg0.963Cu0.007Sb0.99,460,0.000023236,,0.0021487,0.00022556,0.82925,1.2277,43036.6672404889,0.0025911366
71,10.1016/j.actamat.2015.01.018,4580,3(a),5853,MgAg0.963Cu0.007Sb0.99,MgAg0.963Cu0.007Sb0.99,460.5,0.000023211,,0.0021493,0.00022547,0.82982,1.2286,43083.0209814312,0.0025900798
71,10.1016/j.actamat.2015.01.018,4580,3(a),5853,MgAg0.963Cu0.007Sb0.99,MgAg0.963Cu0.007Sb0.99,461,0.000023186,,0.00215,0.00022538,0.83039,1.2294,43129.4746829984,0.0025891449
71,10.1016/j.actamat.2015.01.018,4580,3(a),5853,MgAg0.963Cu0.007Sb0.99,MgAg0.963Cu0.007Sb0.99,461.5,0.000023161,,0.0021506,0.00022529,0.83096,1.2303,43176.028668883,0.0025880909
71,10.1016/j.actamat.2015.01.018,4580,3(a),5853,MgAg0.963Cu0.007Sb0.99,MgAg0.963Cu0.007Sb0.99,462,0.000023137,,0.0021512,0.00022521,0.83152,1.2311,43220.8151445736,0.0025870695
71,10.1016/j.actamat.2015.01.018,4580,3(a),5853,MgAg0.963Cu0.007Sb0.99,MgAg0.963Cu0.007Sb0.99,462.5,0.000023112,,0.0021519,0.00022512,0.83209,1.2319,43267.5666320526,0.0025861385
71,10.1016/j.actamat.2015.01.018,4580,3(a),5853,MgAg0.963Cu0.007Sb0.99,MgAg0.963Cu0.007Sb0.99,463,0.000023087,,0.0021525,0.00022503,0.83266,1.2328,43314.4193702083,0.0025850888
71,10.1016/j.actamat.2015.01.018,4580,3(a),5853,MgAg0.963Cu0.007Sb0.99,MgAg0.963Cu0.007Sb0.99,463.5,0.000023063,,0.0021531,0.00022494,0.83323,1.2336,43359.4935611152,0.0025840404
71,10.1016/j.actamat.2015.01.018,4580,3(a),5853,MgAg0.963Cu0.007Sb0.99,MgAg0.963Cu0.007Sb0.99,464,0.000023038,,0.0021538,0.00022485,0.8338,1.2345,43406.5457070926,0.0025831135
71,10.1016/j.actamat.2015.01.018,4580,3(a),5853,MgAg0.963Cu0.007Sb0.99,MgAg0.963Cu0.007Sb0.99,464.5,0.000023013,,0.0021544,0.00022476,0.83436,1.2353,43453.700082562,0.0025820989
71,10.1016/j.actamat.2015.01.018,4580,3(a),5853,MgAg0.963Cu0.007Sb0.99,MgAg0.963Cu0.007Sb0.99,465,0.000022988,,0.002155,0.00022468,0.83493,1.2362,43500.9570210545,0.0025810547
71,10.1016/j.actamat.2015.01.018,4580,3(a),5853,MgAg0.963Cu0.007Sb0.99,MgAg0.963Cu0.007Sb0.99,465.5,0.000022964,,0.0021557,0.00022459,0.8355,1.237,43546.4204842362,0.0025801317
71,10.1016/j.actamat.2015.01.018,4580,3(a),5853,MgAg0.963Cu0.007Sb0.99,MgAg0.963Cu0.007Sb0.99,466,0.000022939,,0.0021563,0.0002245,0.83607,1.2378,43593.8794193295,0.0025790903
71,10.1016/j.actamat.2015.01.018,4580,3(a),5853,MgAg0.963Cu0.007Sb0.99,MgAg0.963Cu0.007Sb0.99,466.5,0.000022914,,0.0021569,0.00022441,0.83664,1.2387,43641.4419132408,0.0025780503
71,10.1016/j.actamat.2015.01.018,4580,3(a),5853,MgAg0.963Cu0.007Sb0.99,MgAg0.963Cu0.007Sb0.99,467,0.00002289,,0.0021576,0.00022432,0.83721,1.2395,43687.1996505024,0.0025771312
71,10.1016/j.actamat.2015.01.018,4580,3(a),5853,MgAg0.963Cu0.007Sb0.99,MgAg0.963Cu0.007Sb0.99,467.5,0.000022865,,0.0021582,0.00022423,0.83777,1.2404,43734.9661054013,0.0025761247
71,10.1016/j.actamat.2015.01.018,4580,3(a),5853,MgAg0.963Cu0.007Sb0.99,MgAg0.963Cu0.007Sb0.99,468,0.00002284,,0.0021588,0.00022414,0.83834,1.2412,43782.8371278459,0.0025750889
71,10.1016/j.actamat.2015.01.018,4580,3(a),5853,MgAg0.963Cu0.007Sb0.99,MgAg0.963Cu0.007Sb0.99,468.5,0.000022815,,0.0021595,0.00022406,0.83891,1.2421,43830.8130615823,0.0025741736
71,10.1016/j.actamat.2015.01.018,4580,3(a),5853,MgAg0.963Cu0.007Sb0.99,MgAg0.963Cu0.007Sb0.99,469,0.000022791,,0.0021601,0.00022397,0.83948,1.2429,43876.9689789829,0.0025731405
71,10.1016/j.actamat.2015.01.018,4580,3(a),5853,MgAg0.963Cu0.007Sb0.99,MgAg0.963Cu0.007Sb0.99,469.5,0.000022766,,0.0021607,0.00022388,0.84005,1.2438,43925.1515417728,0.0025721088
71,10.1016/j.actamat.2015.01.018,4580,3(a),5853,MgAg0.963Cu0.007Sb0.99,MgAg0.963Cu0.007Sb0.99,470,0.000022741,,0.0021614,0.00022379,0.84061,1.2446,43973.4400422145,0.002571228
71,10.1016/j.actamat.2015.01.018,4580,3(a),5853,MgAg0.963Cu0.007Sb0.99,MgAg0.963Cu0.007Sb0.99,470.5,0.000022717,,0.002162,0.0002237,0.84118,1.2454,44019.896993441,0.002570199
71,10.1016/j.actamat.2015.01.018,4580,3(a),5853,MgAg0.963Cu0.007Sb0.99,MgAg0.963Cu0.007Sb0.99,471,0.000022692,,0.0021626,0.00022361,0.84175,1.2463,44068.3941477173,0.0025691714
71,10.1016/j.actamat.2015.01.018,4580,3(a),5853,MgAg0.963Cu0.007Sb0.99,MgAg0.963Cu0.007Sb0.99,471.5,0.000022667,,0.0021633,0.00022352,0.84232,1.2471,44116.9982794371,0.0025682638
71,10.1016/j.actamat.2015.01.018,4580,3(a),5853,MgAg0.963Cu0.007Sb0.99,MgAg0.963Cu0.007Sb0.99,472,0.000022642,,0.0021639,0.00022344,0.84289,1.248,44165.7097429556,0.0025672389
71,10.1016/j.actamat.2015.01.018,4580,3(a),5853,MgAg0.963Cu0.007Sb0.99,MgAg0.963Cu0.007Sb0.99,472.5,0.000022618,,0.0021645,0.00022335,0.84345,1.2488,44212.5740560615,0.0025662458
71,10.1016/j.actamat.2015.01.018,4580,3(a),5853,MgAg0.963Cu0.007Sb0.99,MgAg0.963Cu0.007Sb0.99,473,0.000022593,,0.0021652,0.00022326,0.84402,1.2497,44261.496923826,0.0025653421
71,10.1016/j.actamat.2015.01.018,4580,3(a),5853,MgAg0.963Cu0.007Sb0.99,MgAg0.963Cu0.007Sb0.99,473.5,0.000022568,,0.0021658,0.00022317,0.84459,1.2505,44310.5281814959,0.0025643211
71,10.1016/j.actamat.2015.01.018,4580,3(a),5853,MgAg0.963Cu0.007Sb0.99,MgAg0.963Cu0.007Sb0.99,474,0.000022544,,0.0021664,0.00022308,0.84516,1.2513,44357.7004968062,0.0025633016
71,10.1016/j.actamat.2015.01.018,4580,3(a),5853,MgAg0.963Cu0.007Sb0.99,MgAg0.963Cu0.007Sb0.99,474.5,0.000022519,,0.0021671,0.00022299,0.84573,1.2522,44406.9452462365,0.0025624017
71,10.1016/j.actamat.2015.01.018,4580,3(a),5853,MgAg0.963Cu0.007Sb0.99,MgAg0.963Cu0.007Sb0.99,475,0.000022494,,0.0021677,0.00022291,0.8463,1.253,44456.2994576331,0.0025613849
71,10.1016/j.actamat.2015.01.018,4580,3(a),5853,MgAg0.963Cu0.007Sb0.99,MgAg0.963Cu0.007Sb0.99,475.5,0.000022469,,0.0021683,0.00022282,0.84686,1.2539,44505.7634963728,0.0025603996
71,10.1016/j.actamat.2015.01.018,4580,3(a),5853,MgAg0.963Cu0.007Sb0.99,MgAg0.963Cu0.007Sb0.99,476,0.000022445,,0.002169,0.00022273,0.84743,1.2547,44553.3526397861,0.0025595034
71,10.1016/j.actamat.2015.01.018,4580,3(a),5853,MgAg0.963Cu0.007Sb0.99,MgAg0.963Cu0.007Sb0.99,476.5,0.00002242,,0.0021696,0.00022264,0.848,1.2556,44603.0330062444,0.0025584906
71,10.1016/j.actamat.2015.01.018,4580,3(a),5853,MgAg0.963Cu0.007Sb0.99,MgAg0.963Cu0.007Sb0.99,477,0.000022395,,0.0021702,0.00022255,0.84857,1.2564,44652.8242911364,0.0025574791
71,10.1016/j.actamat.2015.01.018,4580,3(a),5853,MgAg0.963Cu0.007Sb0.99,MgAg0.963Cu0.007Sb0.99,477.5,0.00002237,,0.0021709,0.00022246,0.84914,1.2572,44702.7268663388,0.0025565867
71,10.1016/j.actamat.2015.01.018,4580,3(a),5853,MgAg0.963Cu0.007Sb0.99,MgAg0.963Cu0.007Sb0.99,478,0.000022346,,0.0021715,0.00022237,0.8497,1.2581,44750.7383871834,0.0025556079
71,10.1016/j.actamat.2015.01.018,4580,3(a),5853,MgAg0.963Cu0.007Sb0.99,MgAg0.963Cu0.007Sb0.99,478.5,0.000022321,,0.0021721,0.00022229,0.85027,1.2589,44800.8601765154,0.0025546003
71,10.1016/j.actamat.2015.01.018,4580,3(a),5853,MgAg0.963Cu0.007Sb0.99,MgAg0.963Cu0.007Sb0.99,479,0.000022296,,0.0021728,0.0002222,0.85084,1.2598,44851.0943667025,0.0025537116
71,10.1016/j.actamat.2015.01.018,4580,3(a),5853,MgAg0.963Cu0.007Sb0.99,MgAg0.963Cu0.007Sb0.99,479.5,0.000022272,,0.0021734,0.00022211,0.85141,1.2606,44899.4252873563,0.0025527067
71,10.1016/j.actamat.2015.01.018,4580,3(a),5853,MgAg0.963Cu0.007Sb0.99,MgAg0.963Cu0.007Sb0.99,480,0.000022247,,0.002174,0.00022202,0.85198,1.2615,44949.8808828157,0.0025517031
71,10.1016/j.actamat.2015.01.018,4580,3(a),5853,MgAg0.963Cu0.007Sb0.99,MgAg0.963Cu0.007Sb0.99,480.5,0.000022222,,0.0021747,0.00022193,0.85255,1.2623,45000.4500045,0.0025508181
71,10.1016/j.actamat.2015.01.018,4580,3(a),5853,MgAg0.963Cu0.007Sb0.99,MgAg0.963Cu0.007Sb0.99,481,0.000022197,,0.0021753,0.00022184,0.85311,1.2631,45051.1330359959,0.002549847
71,10.1016/j.actamat.2015.01.018,4580,3(a),5853,MgAg0.963Cu0.007Sb0.99,MgAg0.963Cu0.007Sb0.99,481.5,0.000022173,,0.002176,0.00022176,0.85368,1.264,45099.8962702386,0.0025489645