sid,DOI,figureid,fignum,sampleid,samplename,composition,Temperature,Electrical resistivity,Lattice thermal conductivity,Power factor,Seebeck coefficient,Thermal conductivity,ZT,Electrical conductivity,Figure of merit Z
71,10.1016/j.actamat.2015.01.018,4580,3(a),5854,MgAg0.96Cu0.01Sb0.99,MgAg0.96Cu0.01Sb0.99,513,0.000022608,,0.0021839,0.00022223,0.87024,1.286,44232.1302193914,0.0025095376
71,10.1016/j.actamat.2015.01.018,4580,3(a),5854,MgAg0.96Cu0.01Sb0.99,MgAg0.96Cu0.01Sb0.99,513.5,0.000022569,,0.0021847,0.00022211,0.87078,1.287,44308.5648455847,0.0025089001
71,10.1016/j.actamat.2015.01.018,4580,3(a),5854,MgAg0.96Cu0.01Sb0.99,MgAg0.96Cu0.01Sb0.99,514,0.00002253,,0.0021855,0.000222,0.87132,1.2879,44385.2640923213,0.0025082633
71,10.1016/j.actamat.2015.01.018,4580,3(a),5854,MgAg0.96Cu0.01Sb0.99,MgAg0.96Cu0.01Sb0.99,514.5,0.00002249,,0.0021864,0.00022188,0.87186,1.2889,44464.2063139173,0.0025077421
71,10.1016/j.actamat.2015.01.018,4580,3(a),5854,MgAg0.96Cu0.01Sb0.99,MgAg0.96Cu0.01Sb0.99,515,0.000022451,,0.0021872,0.00022177,0.8724,1.2899,44541.4458153312,0.0025071068
71,10.1016/j.actamat.2015.01.018,4580,3(a),5854,MgAg0.96Cu0.01Sb0.99,MgAg0.96Cu0.01Sb0.99,515.5,0.000022412,,0.002188,0.00022165,0.87294,1.2908,44618.9541317152,0.0025064724
71,10.1016/j.actamat.2015.01.018,4580,3(a),5854,MgAg0.96Cu0.01Sb0.99,MgAg0.96Cu0.01Sb0.99,516,0.000022372,,0.0021889,0.00022153,0.87348,1.2918,44698.7305560522,0.0025059532
71,10.1016/j.actamat.2015.01.018,4580,3(a),5854,MgAg0.96Cu0.01Sb0.99,MgAg0.96Cu0.01Sb0.99,516.5,0.000022333,,0.0021897,0.00022142,0.87403,1.2928,44776.7877132494,0.0025052916
71,10.1016/j.actamat.2015.01.018,4580,3(a),5854,MgAg0.96Cu0.01Sb0.99,MgAg0.96Cu0.01Sb0.99,517,0.000022294,,0.0021905,0.0002213,0.87457,1.2938,44855.1179689603,0.0025046594
71,10.1016/j.actamat.2015.01.018,4580,3(a),5854,MgAg0.96Cu0.01Sb0.99,MgAg0.96Cu0.01Sb0.99,517.5,0.000022255,,0.0021914,0.00022119,0.87511,1.2947,44933.7227589306,0.0025041423
71,10.1016/j.actamat.2015.01.018,4580,3(a),5854,MgAg0.96Cu0.01Sb0.99,MgAg0.96Cu0.01Sb0.99,518,0.000022215,,0.0021922,0.00022107,0.87565,1.2957,45014.6297546703,0.0025035117
71,10.1016/j.actamat.2015.01.018,4580,3(a),5854,MgAg0.96Cu0.01Sb0.99,MgAg0.96Cu0.01Sb0.99,518.5,0.000022176,,0.002193,0.00022095,0.87619,1.2967,45093.7950937951,0.0025028818
71,10.1016/j.actamat.2015.01.018,4580,3(a),5854,MgAg0.96Cu0.01Sb0.99,MgAg0.96Cu0.01Sb0.99,519,0.000022137,,0.0021939,0.00022084,0.87673,1.2977,45173.2393729954,0.0025023667
71,10.1016/j.actamat.2015.01.018,4580,3(a),5854,MgAg0.96Cu0.01Sb0.99,MgAg0.96Cu0.01Sb0.99,519.5,0.000022097,,0.0021947,0.00022072,0.87727,1.2986,45255.0119925782,0.0025017383
71,10.1016/j.actamat.2015.01.018,4580,3(a),5854,MgAg0.96Cu0.01Sb0.99,MgAg0.96Cu0.01Sb0.99,520,0.000022058,,0.0021955,0.00022061,0.87781,1.2996,45335.0258409647,0.0025011107
71,10.1016/j.actamat.2015.01.018,4580,3(a),5854,MgAg0.96Cu0.01Sb0.99,MgAg0.96Cu0.01Sb0.99,520.5,0.000022019,,0.0021964,0.00022049,0.87835,1.3006,45415.3231300241,0.0025005977
71,10.1016/j.actamat.2015.01.018,4580,3(a),5854,MgAg0.96Cu0.01Sb0.99,MgAg0.96Cu0.01Sb0.99,521,0.00002198,,0.0021972,0.00022037,0.87889,1.3016,45495.9053685168,0.0024999716
71,10.1016/j.actamat.2015.01.018,4580,3(a),5854,MgAg0.96Cu0.01Sb0.99,MgAg0.96Cu0.01Sb0.99,521.5,0.00002194,,0.0021981,0.00022026,0.87943,1.3025,45578.8514129444,0.0024994599
71,10.1016/j.actamat.2015.01.018,4580,3(a),5854,MgAg0.96Cu0.01Sb0.99,MgAg0.96Cu0.01Sb0.99,522,0.000021901,,0.0021989,0.00022014,0.87997,1.3035,45660.0155244053,0.0024988352
71,10.1016/j.actamat.2015.01.018,4580,3(a),5854,MgAg0.96Cu0.01Sb0.99,MgAg0.96Cu0.01Sb0.99,522.5,0.000021862,,0.0021997,0.00022003,0.88051,1.3045,45741.4692159912,0.0024982113
71,10.1016/j.actamat.2015.01.018,4580,3(a),5854,MgAg0.96Cu0.01Sb0.99,MgAg0.96Cu0.01Sb0.99,523,0.000021822,,0.0022006,0.00021991,0.88105,1.3055,45825.3139034002,0.0024977016
71,10.1016/j.actamat.2015.01.018,4580,3(a),5854,MgAg0.96Cu0.01Sb0.99,MgAg0.96Cu0.01Sb0.99,523.5,0.000021783,,0.0022014,0.00021979,0.88159,1.3064,45907.3589496396,0.0024970791
71,10.1016/j.actamat.2015.01.018,4580,3(a),5854,MgAg0.96Cu0.01Sb0.99,MgAg0.96Cu0.01Sb0.99,524,0.000021744,,0.0022022,0.00021968,0.88213,1.3074,45989.6983075791,0.0024964574
71,10.1016/j.actamat.2015.01.018,4580,3(a),5854,MgAg0.96Cu0.01Sb0.99,MgAg0.96Cu0.01Sb0.99,524.5,0.000021704,,0.0022031,0.00021956,0.88267,1.3084,46074.4563214154,0.0024959498
71,10.1016/j.actamat.2015.01.018,4580,3(a),5854,MgAg0.96Cu0.01Sb0.99,MgAg0.96Cu0.01Sb0.99,525,0.000021665,,0.0022039,0.00021945,0.88321,1.3093,46157.3967228248,0.0024953295
71,10.1016/j.actamat.2015.01.018,4580,3(a),5854,MgAg0.96Cu0.01Sb0.99,MgAg0.96Cu0.01Sb0.99,525.5,0.000021626,,0.0022047,0.00021933,0.88375,1.3103,46240.6362711551,0.00249471
71,10.1016/j.actamat.2015.01.018,4580,3(a),5854,MgAg0.96Cu0.01Sb0.99,MgAg0.96Cu0.01Sb0.99,526,0.000021587,,0.0022056,0.00021921,0.88429,1.3113,46324.1765877612,0.0024942044
71,10.1016/j.actamat.2015.01.018,4580,3(a),5854,MgAg0.96Cu0.01Sb0.99,MgAg0.96Cu0.01Sb0.99,526.5,0.000021547,,0.0022064,0.0002191,0.88483,1.3123,46410.1731099457,0.0024935863
71,10.1016/j.actamat.2015.01.018,4580,3(a),5854,MgAg0.96Cu0.01Sb0.99,MgAg0.96Cu0.01Sb0.99,527,0.000021508,,0.0022072,0.00021898,0.88537,1.3132,46494.3276920216,0.002492969
71,10.1016/j.actamat.2015.01.018,4580,3(a),5854,MgAg0.96Cu0.01Sb0.99,MgAg0.96Cu0.01Sb0.99,527.5,0.000021469,,0.0022081,0.00021887,0.88591,1.3142,46578.7880199357,0.0024924654
71,10.1016/j.actamat.2015.01.018,4580,3(a),5854,MgAg0.96Cu0.01Sb0.99,MgAg0.96Cu0.01Sb0.99,528,0.000021429,,0.0022089,0.00021875,0.88645,1.3152,46665.7333519996,0.0024918495
71,10.1016/j.actamat.2015.01.018,4580,3(a),5854,MgAg0.96Cu0.01Sb0.99,MgAg0.96Cu0.01Sb0.99,528.5,0.00002139,,0.0022098,0.00021863,0.88699,1.3162,46750.8181393174,0.0024913471
71,10.1016/j.actamat.2015.01.018,4580,3(a),5854,MgAg0.96Cu0.01Sb0.99,MgAg0.96Cu0.01Sb0.99,529,0.000021351,,0.0022106,0.00021852,0.88753,1.3171,46836.2137604796,0.0024907327
71,10.1016/j.actamat.2015.01.018,4580,3(a),5854,MgAg0.96Cu0.01Sb0.99,MgAg0.96Cu0.01Sb0.99,529.5,0.000021312,,0.0022114,0.0002184,0.88807,1.3181,46921.9219219219,0.002490119
71,10.1016/j.actamat.2015.01.018,4580,3(a),5854,MgAg0.96Cu0.01Sb0.99,MgAg0.96Cu0.01Sb0.99,530,0.000021272,,0.0022123,0.00021828,0.88861,1.3191,47010.1541933058,0.0024896186
71,10.1016/j.actamat.2015.01.018,4580,3(a),5854,MgAg0.96Cu0.01Sb0.99,MgAg0.96Cu0.01Sb0.99,530.5,0.000021233,,0.0022131,0.00021817,0.88915,1.3201,47096.5007299958,0.0024890064
71,10.1016/j.actamat.2015.01.018,4580,3(a),5854,MgAg0.96Cu0.01Sb0.99,MgAg0.96Cu0.01Sb0.99,531,0.000021194,,0.0022139,0.00021805,0.88969,1.321,47183.1650467113,0.0024883948
71,10.1016/j.actamat.2015.01.018,4580,3(a),5854,MgAg0.96Cu0.01Sb0.99,MgAg0.96Cu0.01Sb0.99,531.5,0.000021154,,0.0022148,0.00021794,0.89023,1.322,47272.3834735747,0.0024878964
71,10.1016/j.actamat.2015.01.018,4580,3(a),5854,MgAg0.96Cu0.01Sb0.99,MgAg0.96Cu0.01Sb0.99,532,0.000021115,,0.0022156,0.00021782,0.89077,1.323,47359.6968979399,0.0024872863
71,10.1016/j.actamat.2015.01.018,4580,3(a),5854,MgAg0.96Cu0.01Sb0.99,MgAg0.96Cu0.01Sb0.99,532.5,0.000021076,,0.0022164,0.0002177,0.89131,1.3239,47447.3334598596,0.0024866769
71,10.1016/j.actamat.2015.01.018,4580,3(a),5854,MgAg0.96Cu0.01Sb0.99,MgAg0.96Cu0.01Sb0.99,533,0.000021037,,0.0022173,0.00021759,0.89185,1.3249,47535.2949565052,0.0024861804
71,10.1016/j.actamat.2015.01.018,4580,3(a),5854,MgAg0.96Cu0.01Sb0.99,MgAg0.96Cu0.01Sb0.99,533.5,0.000020997,,0.0022181,0.00021747,0.89239,1.3259,47625.8513120922,0.0024855725
71,10.1016/j.actamat.2015.01.018,4580,3(a),5854,MgAg0.96Cu0.01Sb0.99,MgAg0.96Cu0.01Sb0.99,534,0.000020958,,0.0022189,0.00021736,0.89293,1.3269,47714.476572192,0.0024849652
71,10.1016/j.actamat.2015.01.018,4580,3(a),5854,MgAg0.96Cu0.01Sb0.99,MgAg0.96Cu0.01Sb0.99,534.5,0.000020919,,0.0022198,0.00021724,0.89347,1.3278,47803.4322864382,0.0024844707
71,10.1016/j.actamat.2015.01.018,4580,3(a),5854,MgAg0.96Cu0.01Sb0.99,MgAg0.96Cu0.01Sb0.99,535,0.000020879,,0.0022206,0.00021712,0.89401,1.3288,47895.0141290292,0.0024838648
71,10.1016/j.actamat.2015.01.018,4580,3(a),5854,MgAg0.96Cu0.01Sb0.99,MgAg0.96Cu0.01Sb0.99,535.5,0.00002084,,0.0022214,0.00021701,0.89455,1.3298,47984.6449136276,0.0024832597
71,10.1016/j.actamat.2015.01.018,4580,3(a),5854,MgAg0.96Cu0.01Sb0.99,MgAg0.96Cu0.01Sb0.99,536,0.000020801,,0.0022223,0.00021689,0.89509,1.3308,48074.6117975097,0.0024827671
71,10.1016/j.actamat.2015.01.018,4580,3(a),5854,MgAg0.96Cu0.01Sb0.99,MgAg0.96Cu0.01Sb0.99,536.5,0.000020762,,0.0022231,0.00021678,0.89563,1.3317,48164.9166746942,0.0024821634
71,10.1016/j.actamat.2015.01.018,4580,3(a),5854,MgAg0.96Cu0.01Sb0.99,MgAg0.96Cu0.01Sb0.99,537,0.000020722,,0.002224,0.00021666,0.89617,1.3327,48257.890165042,0.002481672
71,10.1016/j.actamat.2015.01.018,4580,3(a),5854,MgAg0.96Cu0.01Sb0.99,MgAg0.96Cu0.01Sb0.99,537.5,0.000020683,,0.0022248,0.00021654,0.89671,1.3337,48348.8855581879,0.0024810697
71,10.1016/j.actamat.2015.01.018,4580,3(a),5854,MgAg0.96Cu0.01Sb0.99,MgAg0.96Cu0.01Sb0.99,538,0.000020644,,0.0022256,0.00021643,0.89725,1.3347,48440.2247626429,0.0024804681
71,10.1016/j.actamat.2015.01.018,4580,3(a),5854,MgAg0.96Cu0.01Sb0.99,MgAg0.96Cu0.01Sb0.99,538.5,0.000020604,,0.0022265,0.00021631,0.89779,1.3356,48534.265191225,0.0024799786
71,10.1016/j.actamat.2015.01.018,4580,3(a),5854,MgAg0.96Cu0.01Sb0.99,MgAg0.96Cu0.01Sb0.99,539,0.000020565,,0.0022273,0.0002162,0.89833,1.3366,48626.3068319961,0.0024793784
71,10.1016/j.actamat.2015.01.018,4580,3(a),5854,MgAg0.96Cu0.01Sb0.99,MgAg0.96Cu0.01Sb0.99,539.5,0.000020526,,0.0022281,0.00021608,0.89887,1.3376,48718.6982363831,0.0024787789
71,10.1016/j.actamat.2015.01.018,4580,3(a),5854,MgAg0.96Cu0.01Sb0.99,MgAg0.96Cu0.01Sb0.99,540,0.000020487,,0.002229,0.00021596,0.89941,1.3386,48811.4414018646,0.0024782913
71,10.1016/j.actamat.2015.01.018,4580,3(a),5854,MgAg0.96Cu0.01Sb0.99,MgAg0.96Cu0.01Sb0.99,540.5,0.000020447,,0.0022298,0.00021585,0.89995,1.3395,48906.9301119969,0.0024776932
71,10.1016/j.actamat.2015.01.018,4580,3(a),5854,MgAg0.96Cu0.01Sb0.99,MgAg0.96Cu0.01Sb0.99,541,0.000020408,,0.0022306,0.00021573,0.90049,1.3405,49000.392003136,0.0024770958
71,10.1016/j.actamat.2015.01.018,4580,3(a),5854,MgAg0.96Cu0.01Sb0.99,MgAg0.96Cu0.01Sb0.99,541.5,0.000020369,,0.0022315,0.00021562,0.90103,1.3415,49094.2117924297,0.0024766101
71,10.1016/j.actamat.2015.01.018,4580,3(a),5854,MgAg0.96Cu0.01Sb0.99,MgAg0.96Cu0.01Sb0.99,542,0.000020329,,0.0022323,0.0002155,0.90157,1.3424,49190.811156476,0.0024760141
71,10.1016/j.actamat.2015.01.018,4580,3(a),5854,MgAg0.96Cu0.01Sb0.99,MgAg0.96Cu0.01Sb0.99,542.5,0.00002029,,0.0022331,0.00021538,0.90211,1.3434,49285.3622474125,0.0024754187
71,10.1016/j.actamat.2015.01.018,4580,3(a),5854,MgAg0.96Cu0.01Sb0.99,MgAg0.96Cu0.01Sb0.99,543,0.000020251,,0.002234,0.00021527,0.90265,1.3444,49380.2775171596,0.0024749349
71,10.1016/j.actamat.2015.01.018,4580,3(a),5854,MgAg0.96Cu0.01Sb0.99,MgAg0.96Cu0.01Sb0.99,543.5,0.000020212,,0.0022348,0.00021515,0.90319,1.3454,49475.5590738175,0.0024743409
71,10.1016/j.actamat.2015.01.018,4580,3(a),5854,MgAg0.96Cu0.01Sb0.99,MgAg0.96Cu0.01Sb0.99,544,0.000020172,,0.0022357,0.00021504,0.90373,1.3463,49573.666468372,0.0024738583
71,10.1016/j.actamat.2015.01.018,4580,3(a),5854,MgAg0.96Cu0.01Sb0.99,MgAg0.96Cu0.01Sb0.99,544.5,0.000020133,,0.0022365,0.00021492,0.90427,1.3473,49669.6965181543,0.0024732657
71,10.1016/j.actamat.2015.01.018,4580,3(a),5854,MgAg0.96Cu0.01Sb0.99,MgAg0.96Cu0.01Sb0.99,545,0.000020094,,0.0022373,0.0002148,0.90481,1.3483,49766.0993331343,0.0024726738
71,10.1016/j.actamat.2015.01.018,4580,3(a),5854,MgAg0.96Cu0.01Sb0.99,MgAg0.96Cu0.01Sb0.99,545.5,0.000020054,,0.0022382,0.00021469,0.90535,1.3493,49865.3635185,0.0024721931
71,10.1016/j.actamat.2015.01.018,4580,3(a),5854,MgAg0.96Cu0.01Sb0.99,MgAg0.96Cu0.01Sb0.99,546,0.000020015,,0.002239,0.00021457,0.90589,1.3502,49962.5281039221,0.0024716025
71,10.1016/j.actamat.2015.01.018,4581,3(b),5854,MgAg0.96Cu0.01Sb0.99,MgAg0.96Cu0.01Sb0.99,546.5,,,0.0022398,0.00021446,0.90643,1.3512,,0.0024710127
71,10.1016/j.actamat.2015.01.018,4581,3(b),5854,MgAg0.96Cu0.01Sb0.99,MgAg0.96Cu0.01Sb0.99,547,,,0.0022407,0.00021434,0.90697,1.3522,,0.0024705338
71,10.1016/j.actamat.2015.01.018,4581,3(b),5854,MgAg0.96Cu0.01Sb0.99,MgAg0.96Cu0.01Sb0.99,547.5,,,0.0022415,0.00021422,0.90752,1.3523,,0.002469918
71,10.1016/j.actamat.2015.01.018,4583,3(d),5854,MgAg0.96Cu0.01Sb0.99,MgAg0.96Cu0.01Sb0.99,296.5,,,,,0.63635,,,
71,10.1016/j.actamat.2015.01.018,4583,3(d),5854,MgAg0.96Cu0.01Sb0.99,MgAg0.96Cu0.01Sb0.99,297,,,,,0.63689,,,
71,10.1016/j.actamat.2015.01.018,4583,3(d),5854,MgAg0.96Cu0.01Sb0.99,MgAg0.96Cu0.01Sb0.99,297.5,,,,,0.63743,,,
71,10.1016/j.actamat.2015.01.018,4583,3(d),5854,MgAg0.96Cu0.01Sb0.99,MgAg0.96Cu0.01Sb0.99,298,,,,,0.63797,,,
71,10.1016/j.actamat.2015.01.018,4583,3(d),5854,MgAg0.96Cu0.01Sb0.99,MgAg0.96Cu0.01Sb0.99,298.5,,,,,0.63851,,,
71,10.1016/j.actamat.2015.01.018,4583,3(d),5854,MgAg0.96Cu0.01Sb0.99,MgAg0.96Cu0.01Sb0.99,299,,,,,0.63905,,,
71,10.1016/j.actamat.2015.01.018,4583,3(d),5854,MgAg0.96Cu0.01Sb0.99,MgAg0.96Cu0.01Sb0.99,299.5,,,,,0.63959,,,
71,10.1016/j.actamat.2015.01.018,4583,3(d),5854,MgAg0.96Cu0.01Sb0.99,MgAg0.96Cu0.01Sb0.99,300,,,,,0.64013,,,
71,10.1016/j.actamat.2015.01.018,4583,3(d),5854,MgAg0.96Cu0.01Sb0.99,MgAg0.96Cu0.01Sb0.99,300.5,,,,,0.64067,,,
71,10.1016/j.actamat.2015.01.018,4583,3(d),5854,MgAg0.96Cu0.01Sb0.99,MgAg0.96Cu0.01Sb0.99,301,,,,,0.64121,,,
71,10.1016/j.actamat.2015.01.018,4583,3(d),5854,MgAg0.96Cu0.01Sb0.99,MgAg0.96Cu0.01Sb0.99,301.5,,,,,0.64176,,,
71,10.1016/j.actamat.2015.01.018,4583,3(d),5854,MgAg0.96Cu0.01Sb0.99,MgAg0.96Cu0.01Sb0.99,302,,,,,0.6423,,,
71,10.1016/j.actamat.2015.01.018,4583,3(d),5854,MgAg0.96Cu0.01Sb0.99,MgAg0.96Cu0.01Sb0.99,302.5,,,,,0.64284,,,
71,10.1016/j.actamat.2015.01.018,4583,3(d),5854,MgAg0.96Cu0.01Sb0.99,MgAg0.96Cu0.01Sb0.99,303,,,,,0.64338,,,
71,10.1016/j.actamat.2015.01.018,4583,3(d),5854,MgAg0.96Cu0.01Sb0.99,MgAg0.96Cu0.01Sb0.99,548,,,,,0.90806,,,
71,10.1016/j.actamat.2015.01.018,4583,3(d),5854,MgAg0.96Cu0.01Sb0.99,MgAg0.96Cu0.01Sb0.99,548.5,,,,,0.9086,,,
71,10.1016/j.actamat.2015.01.018,4583,3(d),5854,MgAg0.96Cu0.01Sb0.99,MgAg0.96Cu0.01Sb0.99,549,,,,,0.90914,,,
71,10.1016/j.actamat.2015.01.018,4586,6(a),5855,parallel,MgAg0.97Sb0.99,304.5,0.000042784,,0.0017436,0.00028205,0.71315,0.78079,23373.2236350037,0.0024449274
71,10.1016/j.actamat.2015.01.018,4586,6(a),5855,parallel,MgAg0.97Sb0.99,305,0.000042764,,0.0017444,0.00028192,0.71369,0.78165,23384.154896642,0.0024441985
71,10.1016/j.actamat.2015.01.018,4586,6(a),5855,parallel,MgAg0.97Sb0.99,305.5,0.000042743,,0.0017452,0.00028178,0.71422,0.78251,23395.6437311373,0.0024435048
71,10.1016/j.actamat.2015.01.018,4586,6(a),5855,parallel,MgAg0.97Sb0.99,306,0.000042722,,0.0017459,0.00028164,0.71475,0.78338,23407.1438603062,0.0024426723
71,10.1016/j.actamat.2015.01.018,4586,6(a),5855,parallel,MgAg0.97Sb0.99,306.5,0.000042702,,0.0017467,0.00028151,0.71529,0.78424,23418.1068802398,0.0024419466
71,10.1016/j.actamat.2015.01.018,4586,6(a),5855,parallel,MgAg0.97Sb0.99,307,0.000042681,,0.0017475,0.00028137,0.71582,0.78511,23429.6291089712,0.0024412562
71,10.1016/j.actamat.2015.01.018,4586,6(a),5855,parallel,MgAg0.97Sb0.99,307.5,0.000042659,,0.0017483,0.00028124,0.71636,0.78597,23441.7121826578,0.0024405327
71,10.1016/j.actamat.2015.01.018,4586,6(a),5855,parallel,MgAg0.97Sb0.99,308,0.000042638,,0.001749,0.0002811,0.71689,0.78683,23453.2576574886,0.0024397048
71,10.1016/j.actamat.2015.01.018,4586,6(a),5855,parallel,MgAg0.97Sb0.99,308.5,0.000042617,,0.0017498,0.00028096,0.71742,0.7877,23464.8145106413,0.0024390176
71,10.1016/j.actamat.2015.01.018,4586,6(a),5855,parallel,MgAg0.97Sb0.99,309,0.000042595,,0.0017506,0.00028083,0.71796,0.78856,23476.933912431,0.0024382974
71,10.1016/j.actamat.2015.01.018,4586,6(a),5855,parallel,MgAg0.97Sb0.99,309.5,0.000042574,,0.0017514,0.00028069,0.71849,0.78943,23488.514116597,0.0024376122
71,10.1016/j.actamat.2015.01.018,4586,6(a),5855,parallel,MgAg0.97Sb0.99,310,0.000042552,,0.0017521,0.00028055,0.71903,0.79029,23500.6580184245,0.0024367551
71,10.1016/j.actamat.2015.01.018,4586,6(a),5855,parallel,MgAg0.97Sb0.99,310.5,0.00004253,,0.0017529,0.00028042,0.71956,0.79115,23512.8144838937,0.002436072
71,10.1016/j.actamat.2015.01.018,4586,6(a),5855,parallel,MgAg0.97Sb0.99,311,0.000042508,,0.0017537,0.00028028,0.72009,0.79202,23524.9835325115,0.00243539
71,10.1016/j.actamat.2015.01.018,4586,6(a),5855,parallel,MgAg0.97Sb0.99,311.5,0.000042486,,0.0017545,0.00028015,0.72063,0.79288,23537.1651838253,0.0024346752
71,10.1016/j.actamat.2015.01.018,4586,6(a),5855,parallel,MgAg0.97Sb0.99,312,0.000042464,,0.0017552,0.00028001,0.72116,0.79374,23549.3594574228,0.0024338566
71,10.1016/j.actamat.2015.01.018,4586,6(a),5855,parallel,MgAg0.97Sb0.99,312.5,0.000042442,,0.001756,0.00027987,0.7217,0.79461,23561.5663729325,0.002433144
71,10.1016/j.actamat.2015.01.018,4586,6(a),5855,parallel,MgAg0.97Sb0.99,313,0.000042419,,0.0017568,0.00027974,0.72223,0.79547,23574.3416865084,0.0024324661
71,10.1016/j.actamat.2015.01.018,4586,6(a),5855,parallel,MgAg0.97Sb0.99,313.5,0.000042397,,0.0017575,0.0002796,0.72276,0.79634,23586.5745217822,0.0024316509
71,10.1016/j.actamat.2015.01.018,4586,6(a),5855,parallel,MgAg0.97Sb0.99,314,0.000042374,,0.0017583,0.00027946,0.7233,0.7972,23599.3769764478,0.0024309415
71,10.1016/j.actamat.2015.01.018,4586,6(a),5855,parallel,MgAg0.97Sb0.99,314.5,0.000042351,,0.0017591,0.00027933,0.72383,0.79806,23612.193336639,0.0024302668
71,10.1016/j.actamat.2015.01.018,4586,6(a),5855,parallel,MgAg0.97Sb0.99,315,0.000042328,,0.0017599,0.00027919,0.72437,0.79893,23625.0236250236,0.0024295595
71,10.1016/j.actamat.2015.01.018,4586,6(a),5855,parallel,MgAg0.97Sb0.99,315.5,0.000042305,,0.0017606,0.00027906,0.7249,0.79979,23637.8678643186,0.0024287488
71,10.1016/j.actamat.2015.01.018,4586,6(a),5855,parallel,MgAg0.97Sb0.99,316,0.000042282,,0.0017614,0.00027892,0.72543,0.80066,23650.7260772906,0.0024280771
71,10.1016/j.actamat.2015.01.018,4586,6(a),5855,parallel,MgAg0.97Sb0.99,316.5,0.000042259,,0.0017622,0.00027878,0.72597,0.80152,23663.5982867555,0.002427373
71,10.1016/j.actamat.2015.01.018,4586,6(a),5855,parallel,MgAg0.97Sb0.99,317,0.000042236,,0.001763,0.00027865,0.7265,0.80238,23676.4845155791,0.0024267034
71,10.1016/j.actamat.2015.01.018,4586,6(a),5855,parallel,MgAg0.97Sb0.99,317.5,0.000042212,,0.0017637,0.00027851,0.72704,0.80325,23689.9459869232,0.0024258638
71,10.1016/j.actamat.2015.01.018,4586,6(a),5855,parallel,MgAg0.97Sb0.99,318,0.000042189,,0.0017645,0.00027838,0.72757,0.80411,23702.8609353149,0.0024251962
71,10.1016/j.actamat.2015.01.018,4586,6(a),5855,parallel,MgAg0.97Sb0.99,318.5,0.000042165,,0.0017653,0.00027824,0.7281,0.80498,23716.352424997,0.0024245296
71,10.1016/j.actamat.2015.01.018,4586,6(a),5855,parallel,MgAg0.97Sb0.99,319,0.000042141,,0.0017661,0.0002781,0.72864,0.80584,23729.8592819345,0.0024238307
71,10.1016/j.actamat.2015.01.018,4586,6(a),5855,parallel,MgAg0.97Sb0.99,319.5,0.000042117,,0.0017668,0.00027797,0.72917,0.8067,23743.3815323978,0.0024230289
71,10.1016/j.actamat.2015.01.018,4586,6(a),5855,parallel,MgAg0.97Sb0.99,320,0.000042093,,0.0017676,0.00027783,0.72971,0.80757,23756.9192027178,0.0024223322
71,10.1016/j.actamat.2015.01.018,4586,6(a),5855,parallel,MgAg0.97Sb0.99,320.5,0.000042069,,0.0017684,0.00027769,0.73024,0.80843,23770.472319285,0.0024216696
71,10.1016/j.actamat.2015.01.018,4586,6(a),5855,parallel,MgAg0.97Sb0.99,321,0.000042045,,0.0017692,0.00027756,0.73077,0.8093,23784.0409085504,0.002421008
71,10.1016/j.actamat.2015.01.018,4586,6(a),5855,parallel,MgAg0.97Sb0.99,321.5,0.00004202,,0.0017699,0.00027742,0.73131,0.81016,23798.1913374584,0.0024201775
71,10.1016/j.actamat.2015.01.018,4586,6(a),5855,parallel,MgAg0.97Sb0.99,322,0.000041996,,0.0017707,0.00027729,0.73184,0.81102,23811.7915991999,0.0024195179
71,10.1016/j.actamat.2015.01.018,4586,6(a),5855,parallel,MgAg0.97Sb0.99,322.5,0.000041971,,0.0017715,0.00027715,0.73238,0.81189,23825.9750780301,0.0024188263