sid,DOI,figureid,fignum,sampleid,samplename,composition,Temperature,Electrical resistivity,Lattice thermal conductivity,Power factor,Seebeck coefficient,Thermal conductivity,ZT,Electrical conductivity,Figure of merit Z
71,10.1016/j.actamat.2015.01.018,4580,3(a),5854,MgAg0.96Cu0.01Sb0.99,MgAg0.96Cu0.01Sb0.99,343.5,0.000035927,0.54247,0.0019006,0.00026157,0.68713,0.95594,27834.2193893172,0.0027659977
71,10.1016/j.actamat.2015.01.018,4580,3(a),5854,MgAg0.96Cu0.01Sb0.99,MgAg0.96Cu0.01Sb0.99,344,0.000035888,0.5424,0.0019014,0.00026146,0.68767,0.95692,27864.4672313865,0.002764989
71,10.1016/j.actamat.2015.01.018,4580,3(a),5854,MgAg0.96Cu0.01Sb0.99,MgAg0.96Cu0.01Sb0.99,344.5,0.000035848,0.54233,0.0019023,0.00026134,0.68821,0.95789,27895.5590270029,0.0027641272
71,10.1016/j.actamat.2015.01.018,4580,3(a),5854,MgAg0.96Cu0.01Sb0.99,MgAg0.96Cu0.01Sb0.99,345,0.000035809,0.54225,0.0019031,0.00026122,0.68875,0.95886,27925.9404060432,0.0027631216
71,10.1016/j.actamat.2015.01.018,4580,3(a),5854,MgAg0.96Cu0.01Sb0.99,MgAg0.96Cu0.01Sb0.99,345.5,0.00003577,0.54218,0.0019039,0.00026111,0.68929,0.95984,27956.3880346659,0.0027621175
71,10.1016/j.actamat.2015.01.018,4580,3(a),5854,MgAg0.96Cu0.01Sb0.99,MgAg0.96Cu0.01Sb0.99,346,0.000035731,0.54211,0.0019048,0.00026099,0.68983,0.96081,27986.9021298033,0.00276126
71,10.1016/j.actamat.2015.01.018,4580,3(a),5854,MgAg0.96Cu0.01Sb0.99,MgAg0.96Cu0.01Sb0.99,346.5,0.000035691,0.54203,0.0019056,0.00026088,0.69037,0.96179,28018.2679106778,0.002760259
71,10.1016/j.actamat.2015.01.018,4580,3(a),5854,MgAg0.96Cu0.01Sb0.99,MgAg0.96Cu0.01Sb0.99,347,0.000035652,0.54196,0.0019065,0.00026076,0.69091,0.96276,28048.9173117918,0.0027594043
71,10.1016/j.actamat.2015.01.018,4580,3(a),5854,MgAg0.96Cu0.01Sb0.99,MgAg0.96Cu0.01Sb0.99,347.5,0.000035613,0.54189,0.0019073,0.00026064,0.69145,0.96373,28079.6338415747,0.0027584062
71,10.1016/j.actamat.2015.01.018,4580,3(a),5854,MgAg0.96Cu0.01Sb0.99,MgAg0.96Cu0.01Sb0.99,348,0.000035573,0.54181,0.0019081,0.00026053,0.69199,0.96471,28111.2079386051,0.0027574098
71,10.1016/j.actamat.2015.01.018,4580,3(a),5854,MgAg0.96Cu0.01Sb0.99,MgAg0.96Cu0.01Sb0.99,348.5,0.000035534,0.54174,0.001909,0.00026041,0.69253,0.96568,28142.0611245568,0.0027565593
71,10.1016/j.actamat.2015.01.018,4580,3(a),5854,MgAg0.96Cu0.01Sb0.99,MgAg0.96Cu0.01Sb0.99,349,0.000035495,0.54167,0.0019098,0.00026029,0.69307,0.96665,28172.9821101564,0.0027555658
71,10.1016/j.actamat.2015.01.018,4580,3(a),5854,MgAg0.96Cu0.01Sb0.99,MgAg0.96Cu0.01Sb0.99,349.5,0.000035456,0.54159,0.0019106,0.00026018,0.69361,0.96763,28203.9711191336,0.0027545739
71,10.1016/j.actamat.2015.01.018,4580,3(a),5854,MgAg0.96Cu0.01Sb0.99,MgAg0.96Cu0.01Sb0.99,350,0.000035416,0.54152,0.0019115,0.00026006,0.69415,0.9686,28235.825615541,0.0027537276
71,10.1016/j.actamat.2015.01.018,4580,3(a),5854,MgAg0.96Cu0.01Sb0.99,MgAg0.96Cu0.01Sb0.99,350.5,0.000035377,0.54145,0.0019123,0.00025995,0.69469,0.96957,28266.9531051248,0.0027527386
71,10.1016/j.actamat.2015.01.018,4580,3(a),5854,MgAg0.96Cu0.01Sb0.99,MgAg0.96Cu0.01Sb0.99,351,0.000035338,0.54137,0.0019131,0.00025983,0.69523,0.97055,28298.1493010357,0.0027517512
71,10.1016/j.actamat.2015.01.018,4580,3(a),5854,MgAg0.96Cu0.01Sb0.99,MgAg0.96Cu0.01Sb0.99,351.5,0.000035298,0.5413,0.001914,0.00025971,0.69577,0.97152,28330.2170094623,0.0027509091
71,10.1016/j.actamat.2015.01.018,4580,3(a),5854,MgAg0.96Cu0.01Sb0.99,MgAg0.96Cu0.01Sb0.99,352,0.000035259,0.54123,0.0019148,0.0002596,0.69631,0.97249,28361.5530786466,0.0027499246
71,10.1016/j.actamat.2015.01.018,4580,3(a),5854,MgAg0.96Cu0.01Sb0.99,MgAg0.96Cu0.01Sb0.99,352.5,0.00003522,0.54115,0.0019156,0.00025948,0.69685,0.97347,28392.9585462805,0.0027489417
71,10.1016/j.actamat.2015.01.018,4580,3(a),5854,MgAg0.96Cu0.01Sb0.99,MgAg0.96Cu0.01Sb0.99,353,0.000035181,0.54108,0.0019165,0.00025937,0.69739,0.97444,28424.4336431597,0.0027481036
71,10.1016/j.actamat.2015.01.018,4580,3(a),5854,MgAg0.96Cu0.01Sb0.99,MgAg0.96Cu0.01Sb0.99,353.5,0.000035141,0.54101,0.0019173,0.00025925,0.69793,0.97541,28456.7883668649,0.0027471236
71,10.1016/j.actamat.2015.01.018,4580,3(a),5854,MgAg0.96Cu0.01Sb0.99,MgAg0.96Cu0.01Sb0.99,354,0.000035102,0.54093,0.0019182,0.00025913,0.69847,0.97639,28488.4052190758,0.0027462883
71,10.1016/j.actamat.2015.01.018,4580,3(a),5854,MgAg0.96Cu0.01Sb0.99,MgAg0.96Cu0.01Sb0.99,354.5,0.000035063,0.54086,0.001919,0.00025902,0.69901,0.97736,28520.0924050994,0.0027453112
71,10.1016/j.actamat.2015.01.018,4580,3(a),5854,MgAg0.96Cu0.01Sb0.99,MgAg0.96Cu0.01Sb0.99,355,0.000035023,0.54079,0.0019198,0.0002589,0.69955,0.97834,28552.6653913143,0.0027443356
71,10.1016/j.actamat.2015.01.018,4580,3(a),5854,MgAg0.96Cu0.01Sb0.99,MgAg0.96Cu0.01Sb0.99,355.5,0.000034984,0.54072,0.0019207,0.00025879,0.70009,0.97931,28584.4957694946,0.0027435044
71,10.1016/j.actamat.2015.01.018,4580,3(a),5854,MgAg0.96Cu0.01Sb0.99,MgAg0.96Cu0.01Sb0.99,356,0.000034945,0.54064,0.0019215,0.00025867,0.70063,0.98028,28616.3971955931,0.0027425317
71,10.1016/j.actamat.2015.01.018,4580,3(a),5854,MgAg0.96Cu0.01Sb0.99,MgAg0.96Cu0.01Sb0.99,356.5,0.000034906,0.54057,0.0019223,0.00025855,0.70117,0.98126,28648.3699077522,0.0027415605
71,10.1016/j.actamat.2015.01.018,4580,3(a),5854,MgAg0.96Cu0.01Sb0.99,MgAg0.96Cu0.01Sb0.99,357,0.000034866,0.5405,0.0019232,0.00025844,0.70171,0.98223,28681.236734928,0.0027407334
71,10.1016/j.actamat.2015.01.018,4580,3(a),5854,MgAg0.96Cu0.01Sb0.99,MgAg0.96Cu0.01Sb0.99,357.5,0.000034827,0.54042,0.001924,0.00025832,0.70225,0.9832,28713.3545812157,0.002739765
71,10.1016/j.actamat.2015.01.018,4580,3(a),5854,MgAg0.96Cu0.01Sb0.99,MgAg0.96Cu0.01Sb0.99,358,0.000034788,0.54035,0.0019248,0.00025821,0.70279,0.98418,28745.5444406117,0.0027387982
71,10.1016/j.actamat.2015.01.018,4580,3(a),5854,MgAg0.96Cu0.01Sb0.99,MgAg0.96Cu0.01Sb0.99,358.5,0.000034748,0.54028,0.0019257,0.00025809,0.70333,0.98515,28778.6347415679,0.0027379751
71,10.1016/j.actamat.2015.01.018,4580,3(a),5854,MgAg0.96Cu0.01Sb0.99,MgAg0.96Cu0.01Sb0.99,359,0.000034709,0.5402,0.0019265,0.00025797,0.70387,0.98612,28810.9712178397,0.0027370111
71,10.1016/j.actamat.2015.01.018,4580,3(a),5854,MgAg0.96Cu0.01Sb0.99,MgAg0.96Cu0.01Sb0.99,359.5,0.00003467,0.54013,0.0019273,0.00025786,0.70441,0.9871,28843.3804441881,0.0027360486
71,10.1016/j.actamat.2015.01.018,4580,3(a),5854,MgAg0.96Cu0.01Sb0.99,MgAg0.96Cu0.01Sb0.99,360,0.000034631,0.54006,0.0019282,0.00025774,0.70495,0.98807,28875.8626663972,0.0027352294
71,10.1016/j.actamat.2015.01.018,4580,3(a),5854,MgAg0.96Cu0.01Sb0.99,MgAg0.96Cu0.01Sb0.99,360.5,0.000034591,0.53998,0.001929,0.00025763,0.70549,0.98904,28909.2538521581,0.0027342698
71,10.1016/j.actamat.2015.01.018,4580,3(a),5854,MgAg0.96Cu0.01Sb0.99,MgAg0.96Cu0.01Sb0.99,361,0.000034552,0.53991,0.0019299,0.00025751,0.70603,0.99002,28941.8846955314,0.0027334533
71,10.1016/j.actamat.2015.01.018,4580,3(a),5854,MgAg0.96Cu0.01Sb0.99,MgAg0.96Cu0.01Sb0.99,361.5,0.000034513,0.53984,0.0019307,0.00025739,0.70657,0.99099,28974.5892851969,0.0027324964
71,10.1016/j.actamat.2015.01.018,4580,3(a),5854,MgAg0.96Cu0.01Sb0.99,MgAg0.96Cu0.01Sb0.99,362,0.000034473,0.53976,0.0019315,0.00025728,0.70711,0.99197,29008.2093232385,0.0027315411
71,10.1016/j.actamat.2015.01.018,4580,3(a),5854,MgAg0.96Cu0.01Sb0.99,MgAg0.96Cu0.01Sb0.99,362.5,0.000034434,0.53969,0.0019324,0.00025716,0.70765,0.99294,29041.0640645873,0.0027307285
71,10.1016/j.actamat.2015.01.018,4580,3(a),5854,MgAg0.96Cu0.01Sb0.99,MgAg0.96Cu0.01Sb0.99,363,0.000034395,0.53962,0.0019332,0.00025705,0.7082,0.99391,29073.9933129815,0.0027297374
71,10.1016/j.actamat.2015.01.018,4580,3(a),5854,MgAg0.96Cu0.01Sb0.99,MgAg0.96Cu0.01Sb0.99,363.5,0.000034355,0.53954,0.001934,0.00025693,0.70874,0.99489,29107.84456411,0.0027287863
71,10.1016/j.actamat.2015.01.018,4580,3(a),5854,MgAg0.96Cu0.01Sb0.99,MgAg0.96Cu0.01Sb0.99,364,0.000034316,0.53947,0.0019349,0.00025681,0.70928,0.99586,29140.9255157944,0.0027279777
71,10.1016/j.actamat.2015.01.018,4580,3(a),5854,MgAg0.96Cu0.01Sb0.99,MgAg0.96Cu0.01Sb0.99,364.5,0.000034277,0.5394,0.0019357,0.0002567,0.70982,0.99683,29174.0817457771,0.0027270294
71,10.1016/j.actamat.2015.01.018,4580,3(a),5854,MgAg0.96Cu0.01Sb0.99,MgAg0.96Cu0.01Sb0.99,365,0.000034238,0.53932,0.0019365,0.00025658,0.71036,0.99781,29207.3135113032,0.0027260825
71,10.1016/j.actamat.2015.01.018,4580,3(a),5854,MgAg0.96Cu0.01Sb0.99,MgAg0.96Cu0.01Sb0.99,365.5,0.000034198,0.53925,0.0019374,0.00025647,0.7109,0.99878,29241.476109714,0.0027252778
71,10.1016/j.actamat.2015.01.018,4580,3(a),5854,MgAg0.96Cu0.01Sb0.99,MgAg0.96Cu0.01Sb0.99,366,0.000034159,0.53918,0.0019382,0.00025635,0.71144,0.99975,29274.8616762786,0.0027243337
71,10.1016/j.actamat.2015.01.018,4580,3(a),5854,MgAg0.96Cu0.01Sb0.99,MgAg0.96Cu0.01Sb0.99,366.5,0.00003412,0.5391,0.001939,0.00025623,0.71198,1.0007,29308.3235638921,0.0027233911
71,10.1016/j.actamat.2015.01.018,4580,3(a),5854,MgAg0.96Cu0.01Sb0.99,MgAg0.96Cu0.01Sb0.99,367,0.00003408,0.53903,0.0019399,0.00025612,0.71252,1.0017,29342.7230046948,0.0027225902
71,10.1016/j.actamat.2015.01.018,4580,3(a),5854,MgAg0.96Cu0.01Sb0.99,MgAg0.96Cu0.01Sb0.99,367.5,0.000034041,0.53896,0.0019407,0.000256,0.71306,1.0027,29376.340295526,0.0027216504
71,10.1016/j.actamat.2015.01.018,4580,3(a),5854,MgAg0.96Cu0.01Sb0.99,MgAg0.96Cu0.01Sb0.99,368,0.000034002,0.53888,0.0019415,0.00025589,0.7136,1.0036,29410.034703841,0.0027207119
71,10.1016/j.actamat.2015.01.018,4580,3(a),5854,MgAg0.96Cu0.01Sb0.99,MgAg0.96Cu0.01Sb0.99,368.5,0.000033963,0.53881,0.0019424,0.00025577,0.71414,1.0046,29443.8064953037,0.0027199149
71,10.1016/j.actamat.2015.01.018,4580,3(a),5854,MgAg0.96Cu0.01Sb0.99,MgAg0.96Cu0.01Sb0.99,369,0.000033923,0.53874,0.0019432,0.00025565,0.71468,1.0056,29478.5248946143,0.0027189791
71,10.1016/j.actamat.2015.01.018,4580,3(a),5854,MgAg0.96Cu0.01Sb0.99,MgAg0.96Cu0.01Sb0.99,369.5,0.000033884,0.53866,0.0019441,0.00025554,0.71522,1.0066,29512.4542556959,0.0027181846
71,10.1016/j.actamat.2015.01.018,4580,3(a),5854,MgAg0.96Cu0.01Sb0.99,MgAg0.96Cu0.01Sb0.99,370,0.000033845,0.53859,0.0019449,0.00025542,0.71576,1.0075,29546.4618111981,0.0027172516
71,10.1016/j.actamat.2015.01.018,4580,3(a),5854,MgAg0.96Cu0.01Sb0.99,MgAg0.96Cu0.01Sb0.99,370.5,0.000033805,0.53852,0.0019457,0.0002553,0.7163,1.0085,29581.4228664399,0.00271632
71,10.1016/j.actamat.2015.01.018,4580,3(a),5854,MgAg0.96Cu0.01Sb0.99,MgAg0.96Cu0.01Sb0.99,371,0.000033766,0.53845,0.0019466,0.00025519,0.71684,1.0095,29615.5896463899,0.0027155293
71,10.1016/j.actamat.2015.01.018,4580,3(a),5854,MgAg0.96Cu0.01Sb0.99,MgAg0.96Cu0.01Sb0.99,371.5,0.000033727,0.53837,0.0019474,0.00025507,0.71738,1.0105,29649.8354434133,0.0027146004
71,10.1016/j.actamat.2015.01.018,4580,3(a),5854,MgAg0.96Cu0.01Sb0.99,MgAg0.96Cu0.01Sb0.99,372,0.000033688,0.5383,0.0019482,0.00025496,0.71792,1.0114,29684.1605319402,0.0027136728
71,10.1016/j.actamat.2015.01.018,4580,3(a),5854,MgAg0.96Cu0.01Sb0.99,MgAg0.96Cu0.01Sb0.99,372.5,0.000033648,0.53823,0.0019491,0.00025484,0.71846,1.0124,29719.4484070376,0.0027128859
71,10.1016/j.actamat.2015.01.018,4580,3(a),5854,MgAg0.96Cu0.01Sb0.99,MgAg0.96Cu0.01Sb0.99,373,0.000033609,,0.0019499,0.00025472,0.719,1.0134,29753.9349578982,0.0027119611
71,10.1016/j.actamat.2015.01.018,4580,3(a),5854,MgAg0.96Cu0.01Sb0.99,MgAg0.96Cu0.01Sb0.99,373.5,0.00003357,,0.0019507,0.00025461,0.71954,1.0144,29788.5016383676,0.0027110376
71,10.1016/j.actamat.2015.01.018,4580,3(a),5854,MgAg0.96Cu0.01Sb0.99,MgAg0.96Cu0.01Sb0.99,374,0.00003353,,0.0019516,0.00025449,0.72008,1.0153,29824.0381747689,0.0027102544
71,10.1016/j.actamat.2015.01.018,4580,3(a),5854,MgAg0.96Cu0.01Sb0.99,MgAg0.96Cu0.01Sb0.99,374.5,0.000033491,,0.0019524,0.00025438,0.72062,1.0163,29858.7680272312,0.0027093336
71,10.1016/j.actamat.2015.01.018,4580,3(a),5854,MgAg0.96Cu0.01Sb0.99,MgAg0.96Cu0.01Sb0.99,375,0.000033452,,0.0019532,0.00025426,0.72116,1.0173,29893.578859261,0.0027084142
71,10.1016/j.actamat.2015.01.018,4580,3(a),5854,MgAg0.96Cu0.01Sb0.99,MgAg0.96Cu0.01Sb0.99,375.5,0.000033413,,0.0019541,0.00025414,0.7217,1.0183,29928.4709544189,0.0027076348
71,10.1016/j.actamat.2015.01.018,4580,3(a),5854,MgAg0.96Cu0.01Sb0.99,MgAg0.96Cu0.01Sb0.99,376,0.000033373,,0.0019549,0.00025403,0.72224,1.0192,29964.3424325053,0.002706718
71,10.1016/j.actamat.2015.01.018,4580,3(a),5854,MgAg0.96Cu0.01Sb0.99,MgAg0.96Cu0.01Sb0.99,376.5,0.000033334,,0.0019558,0.00025391,0.72278,1.0202,29999.4000119998,0.002705941
71,10.1016/j.actamat.2015.01.018,4580,3(a),5854,MgAg0.96Cu0.01Sb0.99,MgAg0.96Cu0.01Sb0.99,377,0.000033295,,0.0019566,0.0002538,0.72332,1.0212,30034.5397206788,0.0027050268
71,10.1016/j.actamat.2015.01.018,4580,3(a),5854,MgAg0.96Cu0.01Sb0.99,MgAg0.96Cu0.01Sb0.99,377.5,0.000033255,,0.0019574,0.00025368,0.72386,1.0221,30070.6660652533,0.0027041141
71,10.1016/j.actamat.2015.01.018,4580,3(a),5854,MgAg0.96Cu0.01Sb0.99,MgAg0.96Cu0.01Sb0.99,378,0.000033216,,0.0019583,0.00025356,0.7244,1.0231,30105.9730250482,0.0027033407
71,10.1016/j.actamat.2015.01.018,4580,3(a),5854,MgAg0.96Cu0.01Sb0.99,MgAg0.96Cu0.01Sb0.99,378.5,0.000033177,,0.0019591,0.00025345,0.72494,1.0241,30141.3629924345,0.0027024305
71,10.1016/j.actamat.2015.01.018,4580,3(a),5854,MgAg0.96Cu0.01Sb0.99,MgAg0.96Cu0.01Sb0.99,379,0.000033138,,0.0019599,0.00025333,0.72548,1.0251,30176.8362604864,0.0027015218
71,10.1016/j.actamat.2015.01.018,4580,3(a),5854,MgAg0.96Cu0.01Sb0.99,MgAg0.96Cu0.01Sb0.99,379.5,0.000033098,,0.0019608,0.00025322,0.72602,1.026,30213.3059399359,0.002700752
71,10.1016/j.actamat.2015.01.018,4580,3(a),5854,MgAg0.96Cu0.01Sb0.99,MgAg0.96Cu0.01Sb0.99,380,0.000033059,,0.0019616,0.0002531,0.72656,1.027,30248.9488490275,0.0026998458
71,10.1016/j.actamat.2015.01.018,4580,3(a),5854,MgAg0.96Cu0.01Sb0.99,MgAg0.96Cu0.01Sb0.99,380.5,0.00003302,,0.0019624,0.00025298,0.7271,1.028,30284.6759539673,0.002698941
71,10.1016/j.actamat.2015.01.018,4580,3(a),5854,MgAg0.96Cu0.01Sb0.99,MgAg0.96Cu0.01Sb0.99,381,0.00003298,,0.0019633,0.00025287,0.72764,1.029,30321.4069132808,0.0026981749
71,10.1016/j.actamat.2015.01.018,4580,3(a),5854,MgAg0.96Cu0.01Sb0.99,MgAg0.96Cu0.01Sb0.99,381.5,0.000032941,,0.0019641,0.00025275,0.72818,1.0299,30357.3054855651,0.0026972727
71,10.1016/j.actamat.2015.01.018,4580,3(a),5854,MgAg0.96Cu0.01Sb0.99,MgAg0.96Cu0.01Sb0.99,382,0.000032902,,0.0019649,0.00025264,0.72872,1.0309,30393.2891617531,0.0026963717
71,10.1016/j.actamat.2015.01.018,4580,3(a),5854,MgAg0.96Cu0.01Sb0.99,MgAg0.96Cu0.01Sb0.99,382.5,0.000032863,,0.0019658,0.00025252,0.72926,1.0319,30429.3582448346,0.0026956092
71,10.1016/j.actamat.2015.01.018,4580,3(a),5854,MgAg0.96Cu0.01Sb0.99,MgAg0.96Cu0.01Sb0.99,383,0.000032823,,0.0019666,0.0002524,0.7298,1.0329,30466.4412150017,0.0026947109
71,10.1016/j.actamat.2015.01.018,4580,3(a),5854,MgAg0.96Cu0.01Sb0.99,MgAg0.96Cu0.01Sb0.99,383.5,0.000032784,,0.0019674,0.00025229,0.73034,1.0338,30502.6842362128,0.0026938138
71,10.1016/j.actamat.2015.01.018,4580,3(a),5854,MgAg0.96Cu0.01Sb0.99,MgAg0.96Cu0.01Sb0.99,384,0.000032745,,0.0019683,0.00025217,0.73088,1.0348,30539.013589861,0.0026930549
71,10.1016/j.actamat.2015.01.018,4580,3(a),5854,MgAg0.96Cu0.01Sb0.99,MgAg0.96Cu0.01Sb0.99,384.5,0.000032705,,0.0019691,0.00025206,0.73142,1.0358,30576.3644702645,0.0026921605
71,10.1016/j.actamat.2015.01.018,4580,3(a),5854,MgAg0.96Cu0.01Sb0.99,MgAg0.96Cu0.01Sb0.99,385,0.000032666,,0.00197,0.00025194,0.73196,1.0367,30612.869650401,0.0026914039
71,10.1016/j.actamat.2015.01.018,4580,3(a),5854,MgAg0.96Cu0.01Sb0.99,MgAg0.96Cu0.01Sb0.99,385.5,0.000032627,,0.0019708,0.00025182,0.7325,1.0377,30649.4621019401,0.0026905119
71,10.1016/j.actamat.2015.01.018,4580,3(a),5854,MgAg0.96Cu0.01Sb0.99,MgAg0.96Cu0.01Sb0.99,386,0.000032587,,0.0019716,0.00025171,0.73304,1.0387,30687.0838064259,0.0026896213
71,10.1016/j.actamat.2015.01.018,4580,3(a),5854,MgAg0.96Cu0.01Sb0.99,MgAg0.96Cu0.01Sb0.99,386.5,0.000032548,,0.0019725,0.00025159,0.73358,1.0397,30723.8540002458,0.0026888683
71,10.1016/j.actamat.2015.01.018,4580,3(a),5854,MgAg0.96Cu0.01Sb0.99,MgAg0.96Cu0.01Sb0.99,387,0.000032509,,0.0019733,0.00025148,0.73412,1.0406,30760.7124180996,0.0026879802
71,10.1016/j.actamat.2015.01.018,4580,3(a),5854,MgAg0.96Cu0.01Sb0.99,MgAg0.96Cu0.01Sb0.99,387.5,0.00003247,,0.0019741,0.00025136,0.73466,1.0416,30797.6593778873,0.0026870933
71,10.1016/j.actamat.2015.01.018,4580,3(a),5854,MgAg0.96Cu0.01Sb0.99,MgAg0.96Cu0.01Sb0.99,388,0.00003243,,0.001975,0.00025124,0.7352,1.0426,30835.6460067838,0.0026863439
71,10.1016/j.actamat.2015.01.018,4580,3(a),5854,MgAg0.96Cu0.01Sb0.99,MgAg0.96Cu0.01Sb0.99,388.5,0.000032391,,0.0019758,0.00025113,0.73574,1.0436,30872.7733012256,0.0026854595
71,10.1016/j.actamat.2015.01.018,4580,3(a),5854,MgAg0.96Cu0.01Sb0.99,MgAg0.96Cu0.01Sb0.99,389,0.000032352,,0.0019766,0.00025101,0.73628,1.0445,30909.9901088032,0.0026845765
71,10.1016/j.actamat.2015.01.018,4580,3(a),5854,MgAg0.96Cu0.01Sb0.99,MgAg0.96Cu0.01Sb0.99,389.5,0.000032312,,0.0019775,0.00025089,0.73682,1.0455,30948.2545184452,0.0026838305
71,10.1016/j.actamat.2015.01.018,4580,3(a),5854,MgAg0.96Cu0.01Sb0.99,MgAg0.96Cu0.01Sb0.99,390,0.000032273,,0.0019783,0.00025078,0.73736,1.0465,30985.6536423636,0.00268295
71,10.1016/j.actamat.2015.01.018,4580,3(a),5854,MgAg0.96Cu0.01Sb0.99,MgAg0.96Cu0.01Sb0.99,390.5,0.000032234,,0.0019791,0.00025066,0.7379,1.0475,31023.1432648756,0.0026820707
71,10.1016/j.actamat.2015.01.018,4580,3(a),5854,MgAg0.96Cu0.01Sb0.99,MgAg0.96Cu0.01Sb0.99,391,0.000032195,,0.00198,0.00025055,0.73844,1.0484,31060.7237148626,0.0026813282
71,10.1016/j.actamat.2015.01.018,4580,3(a),5854,MgAg0.96Cu0.01Sb0.99,MgAg0.96Cu0.01Sb0.99,391.5,0.000032155,,0.0019808,0.00025043,0.73898,1.0494,31099.3624630695,0.0026804514
71,10.1016/j.actamat.2015.01.018,4580,3(a),5854,MgAg0.96Cu0.01Sb0.99,MgAg0.96Cu0.01Sb0.99,392,0.000032116,,0.0019817,0.00025031,0.73952,1.0504,31137.1279113215,0.0026797112
71,10.1016/j.actamat.2015.01.018,4580,3(a),5854,MgAg0.96Cu0.01Sb0.99,MgAg0.96Cu0.01Sb0.99,392.5,0.000032077,,0.0019825,0.0002502,0.74006,1.0514,31174.985191882,0.0026788369
71,10.1016/j.actamat.2015.01.018,4580,3(a),5854,MgAg0.96Cu0.01Sb0.99,MgAg0.96Cu0.01Sb0.99,393,0.000032037,,0.0019833,0.00025008,0.7406,1.0523,31213.9089178138,0.0026779638
71,10.1016/j.actamat.2015.01.018,4580,3(a),5854,MgAg0.96Cu0.01Sb0.99,MgAg0.96Cu0.01Sb0.99,393.5,0.000031998,,0.0019842,0.00024997,0.74115,1.0533,31251.9532470779,0.0026771909
71,10.1016/j.actamat.2015.01.018,4580,3(a),5854,MgAg0.96Cu0.01Sb0.99,MgAg0.96Cu0.01Sb0.99,394,0.000031959,,0.001985,0.00024985,0.74169,1.0543,31290.0904283613,0.0026763203
71,10.1016/j.actamat.2015.01.018,4580,3(a),5854,MgAg0.96Cu0.01Sb0.99,MgAg0.96Cu0.01Sb0.99,394.5,0.00003192,,0.0019858,0.00024973,0.74223,1.0552,31328.320802005,0.002675451
71,10.1016/j.actamat.2015.01.018,4580,3(a),5854,MgAg0.96Cu0.01Sb0.99,MgAg0.96Cu0.01Sb0.99,395,0.00003188,,0.0019867,0.00024962,0.74277,1.0562,31367.6286072773,0.0026747176
71,10.1016/j.actamat.2015.01.018,4580,3(a),5854,MgAg0.96Cu0.01Sb0.99,MgAg0.96Cu0.01Sb0.99,395.5,0.000031841,,0.0019875,0.0002495,0.74331,1.0572,31406.0488049998,0.0026738507
71,10.1016/j.actamat.2015.01.018,4580,3(a),5854,MgAg0.96Cu0.01Sb0.99,MgAg0.96Cu0.01Sb0.99,396,0.000031802,,0.0019883,0.00024939,0.74385,1.0582,31444.5632350167,0.0026729851
71,10.1016/j.actamat.2015.01.018,4580,3(a),5854,MgAg0.96Cu0.01Sb0.99,MgAg0.96Cu0.01Sb0.99,396.5,0.000031762,,0.0019892,0.00024927,0.74439,1.0591,31484.1634657767,0.0026722551
71,10.1016/j.actamat.2015.01.018,4580,3(a),5854,MgAg0.96Cu0.01Sb0.99,MgAg0.96Cu0.01Sb0.99,397,0.000031723,,0.00199,0.00024915,0.74493,1.0601,31522.8698420704,0.0026713919
71,10.1016/j.actamat.2015.01.018,4580,3(a),5854,MgAg0.96Cu0.01Sb0.99,MgAg0.96Cu0.01Sb0.99,397.5,0.000031684,,0.0019908,0.00024904,0.74547,1.0611,31561.671506123,0.00267053
71,10.1016/j.actamat.2015.01.018,4580,3(a),5854,MgAg0.96Cu0.01Sb0.99,MgAg0.96Cu0.01Sb0.99,398,0.000031645,,0.0019917,0.00024892,0.74601,1.0621,31600.5688102386,0.0026698034
71,10.1016/j.actamat.2015.01.018,4580,3(a),5854,MgAg0.96Cu0.01Sb0.99,MgAg0.96Cu0.01Sb0.99,398.5,0.000031605,,0.0019925,0.00024881,0.74655,1.063,31640.563202025,0.0026689438