sid,DOI,figureid,fignum,sampleid,samplename,composition,Temperature,Electrical resistivity,Lattice thermal conductivity,Power factor,Seebeck coefficient,Thermal conductivity,ZT,Electrical conductivity,Figure of merit Z
71,10.1016/j.actamat.2015.01.018,4580,3(a),5853,MgAg0.963Cu0.007Sb0.99,MgAg0.963Cu0.007Sb0.99,482,0.000022148,,0.0021766,0.00022167,0.85425,1.2648,45150.8036843056,0.0025479661
71,10.1016/j.actamat.2015.01.018,4580,3(a),5853,MgAg0.963Cu0.007Sb0.99,MgAg0.963Cu0.007Sb0.99,482.5,0.000022123,,0.0021772,0.00022158,0.85482,1.2657,45201.8261537766,0.002546969
71,10.1016/j.actamat.2015.01.018,4580,3(a),5853,MgAg0.963Cu0.007Sb0.99,MgAg0.963Cu0.007Sb0.99,483,0.000022099,,0.0021779,0.00022149,0.85539,1.2665,45250.9163310557,0.0025460901
71,10.1016/j.actamat.2015.01.018,4580,3(a),5853,MgAg0.963Cu0.007Sb0.99,MgAg0.963Cu0.007Sb0.99,483.5,0.000022074,,0.0021785,0.0002214,0.85595,1.2674,45302.1654435082,0.0025451253
71,10.1016/j.actamat.2015.01.018,4580,3(a),5853,MgAg0.963Cu0.007Sb0.99,MgAg0.963Cu0.007Sb0.99,484,0.000022049,,0.0021791,0.00022131,0.85652,1.2682,45353.5307723706,0.0025441321
71,10.1016/j.actamat.2015.01.018,4580,3(a),5853,MgAg0.963Cu0.007Sb0.99,MgAg0.963Cu0.007Sb0.99,484.5,0.000022024,,0.0021798,0.00022122,0.85709,1.269,45405.0127134036,0.0025432568
71,10.1016/j.actamat.2015.01.018,4580,3(a),5853,MgAg0.963Cu0.007Sb0.99,MgAg0.963Cu0.007Sb0.99,485,0.000022,,0.0021804,0.00022114,0.85766,1.2699,45454.5454545455,0.0025422662
71,10.1016/j.actamat.2015.01.018,4580,3(a),5853,MgAg0.963Cu0.007Sb0.99,MgAg0.963Cu0.007Sb0.99,485.5,0.000021975,,0.002181,0.00022105,0.85823,1.2707,45506.2571103527,0.0025412768
71,10.1016/j.actamat.2015.01.018,4580,3(a),5853,MgAg0.963Cu0.007Sb0.99,MgAg0.963Cu0.007Sb0.99,486,0.00002195,,0.0021817,0.00022096,0.8588,1.2716,45558.0865603645,0.0025404052
71,10.1016/j.actamat.2015.01.018,4580,3(a),5853,MgAg0.963Cu0.007Sb0.99,MgAg0.963Cu0.007Sb0.99,486.5,0.000021926,,0.0021823,0.00022087,0.85936,1.2724,45607.9540271823,0.002539448
71,10.1016/j.actamat.2015.01.018,4580,3(a),5853,MgAg0.963Cu0.007Sb0.99,MgAg0.963Cu0.007Sb0.99,487,0.000021901,,0.0021829,0.00022078,0.85993,1.2733,45660.0155244053,0.0025384624
71,10.1016/j.actamat.2015.01.018,4580,3(a),5853,MgAg0.963Cu0.007Sb0.99,MgAg0.963Cu0.007Sb0.99,487.5,0.000021876,,0.0021836,0.00022069,0.8605,1.2741,45712.1960138965,0.0025375944
71,10.1016/j.actamat.2015.01.018,4580,3(a),5853,MgAg0.963Cu0.007Sb0.99,MgAg0.963Cu0.007Sb0.99,488,0.000021851,,0.0021842,0.0002206,0.86107,1.275,45764.4959040776,0.0025366114
71,10.1016/j.actamat.2015.01.018,4580,3(a),5853,MgAg0.963Cu0.007Sb0.99,MgAg0.963Cu0.007Sb0.99,488.5,0.000021827,,0.0021848,0.00022052,0.86164,1.2758,45814.8165116599,0.0025356297
71,10.1016/j.actamat.2015.01.018,4580,3(a),5853,MgAg0.963Cu0.007Sb0.99,MgAg0.963Cu0.007Sb0.99,489,0.000021802,,0.0021855,0.00022043,0.8622,1.2766,45867.3516191175,0.0025347947
71,10.1016/j.actamat.2015.01.018,4580,3(a),5853,MgAg0.963Cu0.007Sb0.99,MgAg0.963Cu0.007Sb0.99,489.5,0.000021777,,0.0021861,0.00022034,0.86277,1.2775,45920.0073472012,0.0025338155
71,10.1016/j.actamat.2015.01.018,4580,3(a),5853,MgAg0.963Cu0.007Sb0.99,MgAg0.963Cu0.007Sb0.99,490,0.000021753,,0.0021867,0.00022025,0.86334,1.2783,45970.6707120857,0.0025328376
71,10.1016/j.actamat.2015.01.018,4580,3(a),5853,MgAg0.963Cu0.007Sb0.99,MgAg0.963Cu0.007Sb0.99,490.5,0.000021728,,0.0021874,0.00022016,0.86391,1.2792,46023.5640648012,0.0025319767
71,10.1016/j.actamat.2015.01.018,4580,3(a),5853,MgAg0.963Cu0.007Sb0.99,MgAg0.963Cu0.007Sb0.99,491,0.000021703,,0.002188,0.00022007,0.86448,1.28,46076.5792747546,0.0025310013
71,10.1016/j.actamat.2015.01.018,4580,3(a),5853,MgAg0.963Cu0.007Sb0.99,MgAg0.963Cu0.007Sb0.99,491.5,0.000021678,,0.0021886,0.00021999,0.86505,1.2809,46129.7167635391,0.0025300272
71,10.1016/j.actamat.2015.01.018,4580,3(a),5853,MgAg0.963Cu0.007Sb0.99,MgAg0.963Cu0.007Sb0.99,492,0.000021654,,0.0021893,0.0002199,0.86561,1.2817,46180.8441858317,0.0025291991
71,10.1016/j.actamat.2015.01.018,4580,3(a),5853,MgAg0.963Cu0.007Sb0.99,MgAg0.963Cu0.007Sb0.99,492.5,0.000021629,,0.0021899,0.00021981,0.86618,1.2825,46234.2225715475,0.0025282274
71,10.1016/j.actamat.2015.01.018,4580,3(a),5853,MgAg0.963Cu0.007Sb0.99,MgAg0.963Cu0.007Sb0.99,493,0.000021604,,0.0021905,0.00021972,0.86675,1.2834,46287.7244954638,0.002527257
71,10.1016/j.actamat.2015.01.018,4580,3(a),5853,MgAg0.963Cu0.007Sb0.99,MgAg0.963Cu0.007Sb0.99,493.5,0.00002158,,0.0021912,0.00021963,0.86732,1.2842,46339.202965709,0.0025264032
71,10.1016/j.actamat.2015.01.018,4580,3(a),5853,MgAg0.963Cu0.007Sb0.99,MgAg0.963Cu0.007Sb0.99,494,0.000021555,,0.0021918,0.00021954,0.86789,1.2851,46392.9482718627,0.0025254353
71,10.1016/j.actamat.2015.01.018,4580,3(a),5853,MgAg0.963Cu0.007Sb0.99,MgAg0.963Cu0.007Sb0.99,494.5,0.00002153,,0.0021924,0.00021945,0.86845,1.2859,46446.8183929401,0.0025244977
71,10.1016/j.actamat.2015.01.018,4580,3(a),5853,MgAg0.963Cu0.007Sb0.99,MgAg0.963Cu0.007Sb0.99,495,0.000021505,,0.0021931,0.00021937,0.86902,1.2868,46500.8137642409,0.0025236473
71,10.1016/j.actamat.2015.01.018,4580,3(a),5853,MgAg0.963Cu0.007Sb0.99,MgAg0.963Cu0.007Sb0.99,495.5,0.000021481,,0.0021937,0.00021928,0.86959,1.2876,46552.7675620316,0.0025226831
71,10.1016/j.actamat.2015.01.018,4580,3(a),5853,MgAg0.963Cu0.007Sb0.99,MgAg0.963Cu0.007Sb0.99,496,0.000021456,,0.0021943,0.00021919,0.87016,1.2884,46607.009694258,0.0025217201
71,10.1016/j.actamat.2015.01.018,4580,3(a),5853,MgAg0.963Cu0.007Sb0.99,MgAg0.963Cu0.007Sb0.99,496.5,0.000021431,,0.002195,0.0002191,0.87073,1.2893,46661.3783771173,0.0025208733
71,10.1016/j.actamat.2015.01.018,4580,3(a),5853,MgAg0.963Cu0.007Sb0.99,MgAg0.963Cu0.007Sb0.99,497,0.000021406,,0.0021956,0.00021901,0.8713,1.2901,46715.8740540036,0.0025199128
71,10.1016/j.actamat.2015.01.018,4580,3(a),5853,MgAg0.963Cu0.007Sb0.99,MgAg0.963Cu0.007Sb0.99,497.5,0.000021382,,0.0021962,0.00021892,0.87186,1.291,46768.3097932841,0.0025189824
71,10.1016/j.actamat.2015.01.018,4580,3(a),5853,MgAg0.963Cu0.007Sb0.99,MgAg0.963Cu0.007Sb0.99,498,0.000021357,,0.0021969,0.00021884,0.87243,1.2918,46823.0556726132,0.002518139
71,10.1016/j.actamat.2015.01.018,4580,3(a),5853,MgAg0.963Cu0.007Sb0.99,MgAg0.963Cu0.007Sb0.99,498.5,0.000021332,,0.0021975,0.00021875,0.873,1.2927,46877.9298706169,0.0025171821
71,10.1016/j.actamat.2015.01.018,4580,3(a),5853,MgAg0.963Cu0.007Sb0.99,MgAg0.963Cu0.007Sb0.99,499,0.000021308,,0.0021981,0.00021866,0.87357,1.2935,46930.7302421626,0.0025162265
71,10.1016/j.actamat.2015.01.018,4580,3(a),5853,MgAg0.963Cu0.007Sb0.99,MgAg0.963Cu0.007Sb0.99,499.5,0.000021283,,0.0021988,0.00021857,0.87414,1.2943,46985.8572569657,0.0025153866
71,10.1016/j.actamat.2015.01.018,4580,3(a),5853,MgAg0.963Cu0.007Sb0.99,MgAg0.963Cu0.007Sb0.99,500,0.000021258,,0.0021994,0.00021848,0.8747,1.2952,47041.113933578,0.0025144621
71,10.1016/j.actamat.2015.01.018,4580,3(a),5853,MgAg0.963Cu0.007Sb0.99,MgAg0.963Cu0.007Sb0.99,500.5,0.000021233,,0.0022,0.00021839,0.87527,1.296,47096.5007299958,0.0025135101
71,10.1016/j.actamat.2015.01.018,4580,3(a),5853,MgAg0.963Cu0.007Sb0.99,MgAg0.963Cu0.007Sb0.99,501,0.000021209,,0.0022007,0.0002183,0.87584,1.2969,47149.7948983922,0.0025126735
71,10.1016/j.actamat.2015.01.018,4580,3(a),5853,MgAg0.963Cu0.007Sb0.99,MgAg0.963Cu0.007Sb0.99,501.5,0.000021184,,0.0022013,0.00021822,0.87641,1.2977,47205.4380664653,0.002511724
71,10.1016/j.actamat.2015.01.018,4580,3(a),5853,MgAg0.963Cu0.007Sb0.99,MgAg0.963Cu0.007Sb0.99,502,0.000021159,,0.0022019,0.00021813,0.87698,1.2986,47261.2127227185,0.0025107756
71,10.1016/j.actamat.2015.01.018,4580,3(a),5853,MgAg0.963Cu0.007Sb0.99,MgAg0.963Cu0.007Sb0.99,502.5,0.000021135,,0.0022026,0.00021804,0.87754,1.2994,47314.8805299267,0.0025099711
71,10.1016/j.actamat.2015.01.018,4580,3(a),5853,MgAg0.963Cu0.007Sb0.99,MgAg0.963Cu0.007Sb0.99,503,0.00002111,,0.0022032,0.00021795,0.87811,1.3002,47370.9142586452,0.0025090251
71,10.1016/j.actamat.2015.01.018,4580,3(a),5853,MgAg0.963Cu0.007Sb0.99,MgAg0.963Cu0.007Sb0.99,503.5,0.000021085,,0.0022038,0.00021786,0.87868,1.3011,47427.0808631729,0.0025080803
71,10.1016/j.actamat.2015.01.018,4580,3(a),5853,MgAg0.963Cu0.007Sb0.99,MgAg0.963Cu0.007Sb0.99,504,0.00002106,,0.0022045,0.00021777,0.87925,1.3019,47483.3808167141,0.0025072505
71,10.1016/j.actamat.2015.01.018,4580,3(a),5853,MgAg0.963Cu0.007Sb0.99,MgAg0.963Cu0.007Sb0.99,504.5,0.000021036,,0.0022051,0.00021768,0.87982,1.3028,47537.5546681879,0.0025063081
71,10.1016/j.actamat.2015.01.018,4580,3(a),5853,MgAg0.963Cu0.007Sb0.99,MgAg0.963Cu0.007Sb0.99,505,0.000021011,,0.0022057,0.0002176,0.88039,1.3036,47594.1173670934,0.0025053669
71,10.1016/j.actamat.2015.01.018,4580,3(a),5853,MgAg0.963Cu0.007Sb0.99,MgAg0.963Cu0.007Sb0.99,505.5,0.000020986,,0.0022064,0.00021751,0.88095,1.3045,47650.8148289336,0.0025045689
71,10.1016/j.actamat.2015.01.018,4580,3(a),5853,MgAg0.963Cu0.007Sb0.99,MgAg0.963Cu0.007Sb0.99,506,0.000020962,,0.002207,0.00021742,0.88152,1.3053,47705.371624845,0.0025036301
71,10.1016/j.actamat.2015.01.018,4580,3(a),5853,MgAg0.963Cu0.007Sb0.99,MgAg0.963Cu0.007Sb0.99,506.5,0.000020937,,0.0022076,0.00021733,0.88209,1.3062,47762.3346229164,0.0025026925
71,10.1016/j.actamat.2015.01.018,4580,3(a),5853,MgAg0.963Cu0.007Sb0.99,MgAg0.963Cu0.007Sb0.99,507,0.000020912,,0.0022083,0.00021724,0.88266,1.307,47819.4338179036,0.0025018693
71,10.1016/j.actamat.2015.01.018,4580,3(a),5853,MgAg0.963Cu0.007Sb0.99,MgAg0.963Cu0.007Sb0.99,507.5,0.000020887,,0.0022089,0.00021715,0.88323,1.3078,47876.6696988558,0.0025009341
71,10.1016/j.actamat.2015.01.018,4580,3(a),5853,MgAg0.963Cu0.007Sb0.99,MgAg0.963Cu0.007Sb0.99,508,0.000020863,,0.0022095,0.00021707,0.88379,1.3087,47931.7451948425,0.0025000283
71,10.1016/j.actamat.2015.01.018,4580,3(a),5853,MgAg0.963Cu0.007Sb0.99,MgAg0.963Cu0.007Sb0.99,508.5,0.000020838,,0.0022102,0.00021698,0.88436,1.3095,47989.2504079086,0.0024992085
71,10.1016/j.actamat.2015.01.018,4580,3(a),5853,MgAg0.963Cu0.007Sb0.99,MgAg0.963Cu0.007Sb0.99,509,0.000020813,,0.0022108,0.00021689,0.88493,1.3104,48046.8937683179,0.0024982767
71,10.1016/j.actamat.2015.01.018,4580,3(a),5853,MgAg0.963Cu0.007Sb0.99,MgAg0.963Cu0.007Sb0.99,509.5,0.000020789,,0.0022114,0.0002168,0.8855,1.3112,48102.3618259657,0.0024973461
71,10.1016/j.actamat.2015.01.018,4580,3(a),5853,MgAg0.963Cu0.007Sb0.99,MgAg0.963Cu0.007Sb0.99,510,0.000020764,,0.0022121,0.00021671,0.88607,1.3121,48160.2774031978,0.0024965296
71,10.1016/j.actamat.2015.01.018,4580,3(a),5853,MgAg0.963Cu0.007Sb0.99,MgAg0.963Cu0.007Sb0.99,510.5,0.000020739,,0.0022127,0.00021662,0.88664,1.3129,48218.3326100583,0.0024956014
71,10.1016/j.actamat.2015.01.018,4580,3(a),5853,MgAg0.963Cu0.007Sb0.99,MgAg0.963Cu0.007Sb0.99,511,0.000020714,,0.0022133,0.00021653,0.8872,1.3137,48276.5279521097,0.0024947024
71,10.1016/j.actamat.2015.01.018,4580,3(a),5853,MgAg0.963Cu0.007Sb0.99,MgAg0.963Cu0.007Sb0.99,511.5,0.00002069,,0.002214,0.00021645,0.88777,1.3146,48332.5277912035,0.0024938892
71,10.1016/j.actamat.2015.01.018,4580,3(a),5853,MgAg0.963Cu0.007Sb0.99,MgAg0.963Cu0.007Sb0.99,512,0.000020665,,0.0022146,0.00021636,0.88834,1.3154,48390.999274135,0.0024929644
71,10.1016/j.actamat.2015.01.018,4580,3(a),5853,MgAg0.963Cu0.007Sb0.99,MgAg0.963Cu0.007Sb0.99,512.5,0.00002064,,0.0022152,0.00021627,0.88891,1.3163,48449.6124031008,0.0024920408
71,10.1016/j.actamat.2015.01.018,4580,3(a),5853,MgAg0.963Cu0.007Sb0.99,MgAg0.963Cu0.007Sb0.99,513,0.000020616,,0.0022159,0.00021618,0.88948,1.3171,48506.0147458285,0.0024912308
71,10.1016/j.actamat.2015.01.018,4580,3(a),5853,MgAg0.963Cu0.007Sb0.99,MgAg0.963Cu0.007Sb0.99,513.5,0.000020591,,0.0022165,0.00021609,0.89004,1.318,48564.9069982031,0.0024903375
71,10.1016/j.actamat.2015.01.018,4580,3(a),5853,MgAg0.963Cu0.007Sb0.99,MgAg0.963Cu0.007Sb0.99,514,0.000020566,,0.0022171,0.000216,0.89061,1.3188,48623.9424292522,0.0024894174
71,10.1016/j.actamat.2015.01.018,4580,3(a),5853,MgAg0.963Cu0.007Sb0.99,MgAg0.963Cu0.007Sb0.99,514.5,0.000020541,,0.0022178,0.00021592,0.89118,1.3196,48683.1215617545,0.0024886106
71,10.1016/j.actamat.2015.01.018,4580,3(a),5853,MgAg0.963Cu0.007Sb0.99,MgAg0.963Cu0.007Sb0.99,515,0.000020517,,0.0022184,0.00021583,0.89175,1.3205,48740.0692108983,0.0024876927
71,10.1016/j.actamat.2015.01.018,4580,3(a),5853,MgAg0.963Cu0.007Sb0.99,MgAg0.963Cu0.007Sb0.99,515.5,0.000020492,,0.002219,0.00021574,0.89232,1.3213,48799.5315244974,0.002486776
71,10.1016/j.actamat.2015.01.018,4580,3(a),5853,MgAg0.963Cu0.007Sb0.99,MgAg0.963Cu0.007Sb0.99,516,0.000020467,,0.0022197,0.00021565,0.89289,1.3222,48859.139101969,0.0024859725
71,10.1016/j.actamat.2015.01.018,4580,3(a),5853,MgAg0.963Cu0.007Sb0.99,MgAg0.963Cu0.007Sb0.99,516.5,0.000020442,,0.0022203,0.00021556,0.89345,1.323,48918.8924762743,0.0024850859
71,10.1016/j.actamat.2015.01.018,4580,3(a),5853,MgAg0.963Cu0.007Sb0.99,MgAg0.963Cu0.007Sb0.99,517,0.000020418,,0.002221,0.00021547,0.89402,1.3239,48976.3933783916,0.0024842845
71,10.1016/j.actamat.2015.01.018,4580,3(a),5853,MgAg0.963Cu0.007Sb0.99,MgAg0.963Cu0.007Sb0.99,517.5,0.000020393,,0.0022216,0.00021538,0.89459,1.3247,49036.4340705144,0.0024833723
71,10.1016/j.actamat.2015.01.018,4580,3(a),5853,MgAg0.963Cu0.007Sb0.99,MgAg0.963Cu0.007Sb0.99,518,0.000020368,,0.0022222,0.0002153,0.89516,1.3255,49096.6221523959,0.0024824612
71,10.1016/j.actamat.2015.01.018,4580,3(a),5853,MgAg0.963Cu0.007Sb0.99,MgAg0.963Cu0.007Sb0.99,518.5,0.000020344,,0.0022229,0.00021521,0.89573,1.3264,49154.5418796697,0.002481663
71,10.1016/j.actamat.2015.01.018,4580,3(a),5853,MgAg0.963Cu0.007Sb0.99,MgAg0.963Cu0.007Sb0.99,519,0.000020319,,0.0022235,0.00021512,0.89629,1.3272,49215.0204242335,0.0024807819
71,10.1016/j.actamat.2015.01.018,4580,3(a),5853,MgAg0.963Cu0.007Sb0.99,MgAg0.963Cu0.007Sb0.99,519.5,0.000020294,,0.0022241,0.00021503,0.89686,1.3281,49275.6479747709,0.0024798742
71,10.1016/j.actamat.2015.01.018,4580,3(a),5853,MgAg0.963Cu0.007Sb0.99,MgAg0.963Cu0.007Sb0.99,520,0.000020269,,0.0022248,0.00021494,0.89743,1.3289,49336.4250826385,0.0024790791
71,10.1016/j.actamat.2015.01.018,4580,3(a),5853,MgAg0.963Cu0.007Sb0.99,MgAg0.963Cu0.007Sb0.99,520.5,0.000020245,,0.0022254,0.00021485,0.898,1.3298,49394.9123240306,0.0024781737
71,10.1016/j.actamat.2015.01.018,4580,3(a),5853,MgAg0.963Cu0.007Sb0.99,MgAg0.963Cu0.007Sb0.99,521,0.00002022,,0.002226,0.00021476,0.89857,1.3306,49455.9841740851,0.0024772694
71,10.1016/j.actamat.2015.01.018,4580,3(a),5853,MgAg0.963Cu0.007Sb0.99,MgAg0.963Cu0.007Sb0.99,521.5,0.000020195,,0.0022267,0.00021468,0.89914,1.3314,49517.2072295123,0.0024764775
71,10.1016/j.actamat.2015.01.018,4580,3(a),5853,MgAg0.963Cu0.007Sb0.99,MgAg0.963Cu0.007Sb0.99,522,0.000020171,,0.0022273,0.00021459,0.8997,1.3323,49576.1241386148,0.002475603
71,10.1016/j.actamat.2015.01.018,4580,3(a),5853,MgAg0.963Cu0.007Sb0.99,MgAg0.963Cu0.007Sb0.99,522.5,0.000020146,,0.0022279,0.0002145,0.90027,1.3331,49637.6451901122,0.002474702
71,10.1016/j.actamat.2015.01.018,4580,3(a),5853,MgAg0.963Cu0.007Sb0.99,MgAg0.963Cu0.007Sb0.99,523,0.000020121,,0.0022286,0.00021441,0.90084,1.334,49699.3191193281,0.0024739132
71,10.1016/j.actamat.2015.01.018,4580,3(a),5853,MgAg0.963Cu0.007Sb0.99,MgAg0.963Cu0.007Sb0.99,523.5,0.000020096,,0.0022292,0.00021432,0.90141,1.3348,49761.1464968153,0.0024730145
71,10.1016/j.actamat.2015.01.018,4580,3(a),5853,MgAg0.963Cu0.007Sb0.99,MgAg0.963Cu0.007Sb0.99,524,0.000020072,,0.0022298,0.00021423,0.90198,1.3357,49820.645675568,0.0024721169
71,10.1016/j.actamat.2015.01.018,4580,3(a),5853,MgAg0.963Cu0.007Sb0.99,MgAg0.963Cu0.007Sb0.99,524.5,0.000020047,,0.0022305,0.00021415,0.90254,1.3365,49882.7754776276,0.0024713586
71,10.1016/j.actamat.2015.01.018,4580,3(a),5853,MgAg0.963Cu0.007Sb0.99,MgAg0.963Cu0.007Sb0.99,525,0.000020022,,0.0022311,0.00021406,0.90311,1.3374,49945.0604335231,0.0024704632
71,10.1016/j.actamat.2015.01.018,4580,3(a),5853,MgAg0.963Cu0.007Sb0.99,MgAg0.963Cu0.007Sb0.99,525.5,0.000019998,,0.0022317,0.00021397,0.90368,1.3382,50005.00050005,0.0024695689
71,10.1016/j.actamat.2015.01.018,4580,3(a),5853,MgAg0.963Cu0.007Sb0.99,MgAg0.963Cu0.007Sb0.99,526,0.000019973,,0.0022324,0.00021388,0.90425,1.339,50067.591248185,0.0024687863
71,10.1016/j.actamat.2015.01.018,4580,3(a),5853,MgAg0.963Cu0.007Sb0.99,MgAg0.963Cu0.007Sb0.99,526.5,0.000019948,,0.002233,0.00021379,0.90482,1.3399,50130.3388810908,0.0024678942
71,10.1016/j.actamat.2015.01.018,4580,3(a),5853,MgAg0.963Cu0.007Sb0.99,MgAg0.963Cu0.007Sb0.99,527,0.000019923,,0.0022336,0.0002137,0.90539,1.3407,50193.243989359,0.0024670032
71,10.1016/j.actamat.2015.01.018,4580,3(a),5853,MgAg0.963Cu0.007Sb0.99,MgAg0.963Cu0.007Sb0.99,527.5,0.000019899,,0.0022343,0.00021361,0.90595,1.3416,50253.7815970652,0.0024662509
71,10.1016/j.actamat.2015.01.018,4580,3(a),5853,MgAg0.963Cu0.007Sb0.99,MgAg0.963Cu0.007Sb0.99,528,0.000019874,,0.0022349,0.00021353,0.90652,1.3424,50316.9970816142,0.002465362
71,10.1016/j.actamat.2015.01.018,4580,3(a),5853,MgAg0.963Cu0.007Sb0.99,MgAg0.963Cu0.007Sb0.99,528.5,0.000019849,,0.0022355,0.00021344,0.90709,1.3433,50380.3718071439,0.0024644743
71,10.1016/j.actamat.2015.01.018,4580,3(a),5853,MgAg0.963Cu0.007Sb0.99,MgAg0.963Cu0.007Sb0.99,529,0.000019825,,0.0022362,0.00021335,0.90766,1.3441,50441.3619167717,0.0024636979
71,10.1016/j.actamat.2015.01.018,4580,3(a),5853,MgAg0.963Cu0.007Sb0.99,MgAg0.963Cu0.007Sb0.99,529.5,0.0000198,,0.0022368,0.00021326,0.90823,1.3449,50505.0505050505,0.0024628123
71,10.1016/j.actamat.2015.01.018,4580,3(a),5853,MgAg0.963Cu0.007Sb0.99,MgAg0.963Cu0.007Sb0.99,530,0.000019775,,0.0022374,0.00021317,0.90879,1.3458,50568.9001264223,0.0024619549
71,10.1016/j.actamat.2015.01.018,4580,3(a),5853,MgAg0.963Cu0.007Sb0.99,MgAg0.963Cu0.007Sb0.99,530.5,0.00001975,,0.0022381,0.00021308,0.90936,1.3466,50632.9113924051,0.0024611815
71,10.1016/j.actamat.2015.01.018,4580,3(a),5853,MgAg0.963Cu0.007Sb0.99,MgAg0.963Cu0.007Sb0.99,531,0.000019726,,0.0022387,0.000213,0.90993,1.3475,50694.5148534929,0.0024602991
71,10.1016/j.actamat.2015.01.018,4580,3(a),5853,MgAg0.963Cu0.007Sb0.99,MgAg0.963Cu0.007Sb0.99,531.5,0.000019701,,0.0022393,0.00021291,0.9105,1.3483,50758.844728694,0.0024594179
71,10.1016/j.actamat.2015.01.018,4580,3(a),5853,MgAg0.963Cu0.007Sb0.99,MgAg0.963Cu0.007Sb0.99,532,0.000019676,,0.00224,0.00021282,0.91107,1.3492,50823.3380768449,0.0024586475
71,10.1016/j.actamat.2015.01.018,4580,3(a),5853,MgAg0.963Cu0.007Sb0.99,MgAg0.963Cu0.007Sb0.99,532.5,0.000019652,,0.0022406,0.00021273,0.91163,1.35,50885.4060655404,0.0024577954
71,10.1016/j.actamat.2015.01.018,4580,3(a),5853,MgAg0.963Cu0.007Sb0.99,MgAg0.963Cu0.007Sb0.99,533,0.000019627,,0.0022412,0.00021264,0.9122,1.3508,50950.2216334641,0.0024569173
71,10.1016/j.actamat.2015.01.018,4580,3(a),5853,MgAg0.963Cu0.007Sb0.99,MgAg0.963Cu0.007Sb0.99,533.5,0.000019602,,0.0022419,0.00021255,0.91277,1.3517,51015.202530354,0.00245615
71,10.1016/j.actamat.2015.01.018,4580,3(a),5853,MgAg0.963Cu0.007Sb0.99,MgAg0.963Cu0.007Sb0.99,534,0.000019577,,0.0022425,0.00021246,0.91334,1.3525,51080.3493895898,0.002455274
71,10.1016/j.actamat.2015.01.018,4580,3(a),5853,MgAg0.963Cu0.007Sb0.99,MgAg0.963Cu0.007Sb0.99,534.5,0.000019553,,0.0022431,0.00021238,0.91391,1.3534,51143.0471027464,0.0024543992
71,10.1016/j.actamat.2015.01.018,4580,3(a),5853,MgAg0.963Cu0.007Sb0.99,MgAg0.963Cu0.007Sb0.99,535,0.000019528,,0.0022438,0.00021229,0.91448,1.3542,51208.5210979107,0.0024536349
71,10.1016/j.actamat.2015.01.018,4580,3(a),5853,MgAg0.963Cu0.007Sb0.99,MgAg0.963Cu0.007Sb0.99,535.5,0.000019503,,0.0022444,0.0002122,0.91504,1.3551,51274.1629492899,0.0024527889
71,10.1016/j.actamat.2015.01.018,4580,3(a),5853,MgAg0.963Cu0.007Sb0.99,MgAg0.963Cu0.007Sb0.99,536,0.000019478,,0.002245,0.00021211,0.91561,1.3559,51339.9733032139,0.0024519173
71,10.1016/j.actamat.2015.01.018,4580,3(a),5853,MgAg0.963Cu0.007Sb0.99,MgAg0.963Cu0.007Sb0.99,536.5,0.000019454,,0.0022457,0.00021202,0.91618,1.3567,51403.310373188,0.0024511559
71,10.1016/j.actamat.2015.01.018,4580,3(a),5853,MgAg0.963Cu0.007Sb0.99,MgAg0.963Cu0.007Sb0.99,537,0.000019429,,0.0022463,0.00021193,0.91675,1.3576,51469.4528797159,0.0024502863