sid,DOI,figureid,fignum,sampleid,samplename,composition,Temperature,Electrical resistivity,Lattice thermal conductivity,Power factor,Seebeck coefficient,Thermal conductivity,ZT,Electrical conductivity,Figure of merit Z
71,10.1016/j.actamat.2015.01.018,4586,6(a),5856,perpendicular,MgAg0.97Sb0.99,510,0.000023458,,0.0020106,0.00022835,0.92495,1.0935,42629.3801688123,0.0021737391
71,10.1016/j.actamat.2015.01.018,4586,6(a),5856,perpendicular,MgAg0.97Sb0.99,510.5,0.000023422,,0.0020112,0.00022827,0.92553,1.0943,42694.9022286739,0.0021730252
71,10.1016/j.actamat.2015.01.018,4586,6(a),5856,perpendicular,MgAg0.97Sb0.99,511,0.000023386,,0.0020118,0.00022818,0.9261,1.0952,42760.6260155649,0.0021723356
71,10.1016/j.actamat.2015.01.018,4586,6(a),5856,perpendicular,MgAg0.97Sb0.99,511.5,0.000023351,,0.0020125,0.0002281,0.92668,1.096,42824.7184274763,0.0021717313
71,10.1016/j.actamat.2015.01.018,4586,6(a),5856,perpendicular,MgAg0.97Sb0.99,512,0.000023316,,0.0020131,0.00022801,0.92725,1.0968,42889.0032595642,0.0021710434
71,10.1016/j.actamat.2015.01.018,4586,6(a),5856,perpendicular,MgAg0.97Sb0.99,512.5,0.000023282,,0.0020137,0.00022793,0.92783,1.0977,42951.636457349,0.0021703329
71,10.1016/j.actamat.2015.01.018,4586,6(a),5856,perpendicular,MgAg0.97Sb0.99,513,0.000023248,,0.0020143,0.00022785,0.9284,1.0985,43014.4528561597,0.0021696467
71,10.1016/j.actamat.2015.01.018,4586,6(a),5856,perpendicular,MgAg0.97Sb0.99,513.5,0.000023215,,0.002015,0.00022776,0.92898,1.0993,43075.5976739177,0.0021690456
71,10.1016/j.actamat.2015.01.018,4586,6(a),5856,perpendicular,MgAg0.97Sb0.99,514,0.000023183,,0.0020156,0.00022768,0.92955,1.1002,43135.0558598973,0.002168361
71,10.1016/j.actamat.2015.01.018,4586,6(a),5856,perpendicular,MgAg0.97Sb0.99,514.5,0.000023151,,0.0020162,0.0002276,0.93013,1.101,43194.6784156192,0.002167654
71,10.1016/j.actamat.2015.01.018,4586,6(a),5856,perpendicular,MgAg0.97Sb0.99,515,0.00002312,,0.0020168,0.00022751,0.9307,1.1018,43252.5951557093,0.0021669711
71,10.1016/j.actamat.2015.01.018,4586,6(a),5856,perpendicular,MgAg0.97Sb0.99,515.5,0.00002309,,0.0020175,0.00022743,0.93128,1.1027,43308.791684712,0.0021663732
71,10.1016/j.actamat.2015.01.018,4586,6(a),5856,perpendicular,MgAg0.97Sb0.99,516,0.00002306,,0.0020181,0.00022734,0.93185,1.1035,43365.1344319167,0.0021656919
71,10.1016/j.actamat.2015.01.018,4586,6(a),5856,perpendicular,MgAg0.97Sb0.99,516.5,0.000023031,,0.0020187,0.00022726,0.93243,1.1043,43419.7386131735,0.0021649883
71,10.1016/j.actamat.2015.01.018,4586,6(a),5856,perpendicular,MgAg0.97Sb0.99,517,0.000023002,,0.0020193,0.00022718,0.933,1.1052,43474.4804799583,0.0021643087
71,10.1016/j.actamat.2015.01.018,4586,6(a),5856,perpendicular,MgAg0.97Sb0.99,517.5,0.000022974,,0.00202,0.00022709,0.93358,1.106,43527.4658309393,0.0021637139
71,10.1016/j.actamat.2015.01.018,4586,6(a),5856,perpendicular,MgAg0.97Sb0.99,518,0.000022947,,0.0020206,0.00022701,0.93415,1.1068,43578.6813091036,0.0021630359
71,10.1016/j.actamat.2015.01.018,4586,6(a),5856,perpendicular,MgAg0.97Sb0.99,518.5,0.00002292,,0.0020212,0.00022692,0.93473,1.1077,43630.017452007,0.0021623356
71,10.1016/j.actamat.2015.01.018,4586,6(a),5856,perpendicular,MgAg0.97Sb0.99,519,0.000022894,,0.0020219,0.00022684,0.9353,1.1085,43679.5666986983,0.0021617663
71,10.1016/j.actamat.2015.01.018,4586,6(a),5856,perpendicular,MgAg0.97Sb0.99,519.5,0.000022869,,0.0020225,0.00022676,0.93588,1.1093,43727.3164545892,0.0021610677
71,10.1016/j.actamat.2015.01.018,4586,6(a),5856,perpendicular,MgAg0.97Sb0.99,520,0.000022844,,0.0020231,0.00022667,0.93645,1.1101,43775.1707231658,0.002160393
71,10.1016/j.actamat.2015.01.018,4586,6(a),5856,perpendicular,MgAg0.97Sb0.99,520.5,0.00002282,,0.0020237,0.00022659,0.93703,1.111,43821.2094653812,0.0021596961
71,10.1016/j.actamat.2015.01.018,4586,6(a),5856,perpendicular,MgAg0.97Sb0.99,521,0.000022796,,0.0020244,0.0002265,0.9376,1.1118,43867.3451482716,0.0021591297
71,10.1016/j.actamat.2015.01.018,4586,6(a),5856,perpendicular,MgAg0.97Sb0.99,521.5,0.000022774,,0.002025,0.00022642,0.93818,1.1126,43909.721612365,0.0021584344
71,10.1016/j.actamat.2015.01.018,4586,6(a),5856,perpendicular,MgAg0.97Sb0.99,522,0.000022752,,0.0020256,0.00022634,0.93875,1.1135,43952.1800281294,0.002157763
71,10.1016/j.actamat.2015.01.018,4586,6(a),5856,perpendicular,MgAg0.97Sb0.99,522.5,0.00002273,,0.0020262,0.00022625,0.93933,1.1143,43994.720633524,0.0021570694
71,10.1016/j.actamat.2015.01.018,4586,6(a),5856,perpendicular,MgAg0.97Sb0.99,523,0.00002271,,0.0020269,0.00022617,0.9399,1.1151,44033.4654337296,0.002156506
71,10.1016/j.actamat.2015.01.018,4586,6(a),5856,perpendicular,MgAg0.97Sb0.99,523.5,0.00002269,,0.0020275,0.00022609,0.94047,1.116,44072.2785368004,0.002155837
71,10.1016/j.actamat.2015.01.018,4586,6(a),5856,perpendicular,MgAg0.97Sb0.99,524,0.00002267,,0.0020281,0.000226,0.94105,1.1168,44111.1601235112,0.0021551458
71,10.1016/j.actamat.2015.01.018,4586,6(a),5856,perpendicular,MgAg0.97Sb0.99,524.5,0.000022652,,0.0020287,0.00022592,0.94162,1.1176,44146.2122549885,0.0021544785
71,10.1016/j.actamat.2015.01.018,4586,6(a),5856,perpendicular,MgAg0.97Sb0.99,525,0.000022634,,0.0020294,0.00022583,0.9422,1.1185,44181.3201378457,0.0021538951
71,10.1016/j.actamat.2015.01.018,4586,6(a),5856,perpendicular,MgAg0.97Sb0.99,525.5,0.000022617,,0.00203,0.00022575,0.94277,1.1193,44214.5288941946,0.0021532293
71,10.1016/j.actamat.2015.01.018,4586,6(a),5856,perpendicular,MgAg0.97Sb0.99,526,0.0000226,,0.0020306,0.00022567,0.94335,1.1201,44247.7876106195,0.0021525415
71,10.1016/j.actamat.2015.01.018,4586,6(a),5856,perpendicular,MgAg0.97Sb0.99,526.5,0.000022585,,0.0020313,0.00022558,0.94392,1.121,44277.1751162276,0.0021519832
71,10.1016/j.actamat.2015.01.018,4586,6(a),5856,perpendicular,MgAg0.97Sb0.99,527,0.00002257,,0.0020319,0.0002255,0.9445,1.1218,44306.6016836509,0.002151297
71,10.1016/j.actamat.2015.01.018,4586,6(a),5856,perpendicular,MgAg0.97Sb0.99,527.5,0.000022555,,0.0020325,0.00022541,0.94507,1.1226,44336.0673908224,0.0021506343
71,10.1016/j.actamat.2015.01.018,4586,6(a),5856,perpendicular,MgAg0.97Sb0.99,528,0.000022542,,0.0020331,0.00022533,0.94565,1.1234,44361.6360571378,0.0021499498
71,10.1016/j.actamat.2015.01.018,4586,6(a),5856,perpendicular,MgAg0.97Sb0.99,528.5,0.000022529,,0.0020338,0.00022525,0.94622,1.1243,44387.234231435,0.0021493944
71,10.1016/j.actamat.2015.01.018,4586,6(a),5856,perpendicular,MgAg0.97Sb0.99,529,0.000022517,,0.0020344,0.00022516,0.9468,1.1251,44410.8895501177,0.0021487114
71,10.1016/j.actamat.2015.01.018,4586,6(a),5856,perpendicular,MgAg0.97Sb0.99,529.5,0.000022506,,0.002035,0.00022508,0.94737,1.1259,44432.5957522438,0.002148052
71,10.1016/j.actamat.2015.01.018,4586,6(a),5856,perpendicular,MgAg0.97Sb0.99,530,0.000022495,,0.0020356,0.00022499,0.94795,1.1268,44454.3231829295,0.0021473706
71,10.1016/j.actamat.2015.01.018,4586,6(a),5856,perpendicular,MgAg0.97Sb0.99,530.5,0.000022486,,0.0020363,0.00022491,0.94852,1.1276,44472.1159832785,0.0021468182
71,10.1016/j.actamat.2015.01.018,4586,6(a),5856,perpendicular,MgAg0.97Sb0.99,531,0.000022477,,0.0020369,0.00022483,0.9491,1.1284,44489.9230324332,0.0021461384
71,10.1016/j.actamat.2015.01.018,4586,6(a),5856,perpendicular,MgAg0.97Sb0.99,531.5,0.000022468,,0.0020375,0.00022474,0.94967,1.1293,44507.7443475165,0.0021454821
71,10.1016/j.actamat.2015.01.018,4586,6(a),5856,perpendicular,MgAg0.97Sb0.99,532,0.000022461,,0.0020381,0.00022466,0.95025,1.1301,44521.6152442011,0.002144804
71,10.1016/j.actamat.2015.01.018,4586,6(a),5856,perpendicular,MgAg0.97Sb0.99,532.5,0.000022454,,0.0020388,0.00022458,0.95082,1.1309,44535.4947893471,0.0021442544
71,10.1016/j.actamat.2015.01.018,4586,6(a),5856,perpendicular,MgAg0.97Sb0.99,533,0.000022448,,0.0020394,0.00022449,0.9514,1.1318,44547.3984319316,0.0021435779
71,10.1016/j.actamat.2015.01.018,4586,6(a),5856,perpendicular,MgAg0.97Sb0.99,533.5,0.000022443,,0.00204,0.00022441,0.95197,1.1326,44557.3229960344,0.0021429247
71,10.1016/j.actamat.2015.01.018,4586,6(a),5856,perpendicular,MgAg0.97Sb0.99,534,0.000022439,,0.0020407,0.00022432,0.95255,1.1334,44565.2658318107,0.0021423547
71,10.1016/j.actamat.2015.01.018,4586,6(a),5856,perpendicular,MgAg0.97Sb0.99,534.5,0.000022435,,0.0020413,0.00022424,0.95312,1.1343,44573.2114998886,0.002141703
71,10.1016/j.actamat.2015.01.018,4586,6(a),5856,perpendicular,MgAg0.97Sb0.99,535,0.000022433,,0.0020419,0.00022416,0.9537,1.1351,44577.1853965141,0.0021410297
71,10.1016/j.actamat.2015.01.018,4586,6(a),5856,perpendicular,MgAg0.97Sb0.99,535.5,0.000022431,,0.0020425,0.00022407,0.95427,1.1359,44581.1600017832,0.0021403796
71,10.1016/j.actamat.2015.01.018,4586,6(a),5856,perpendicular,MgAg0.97Sb0.99,536,0.00002243,,0.0020432,0.00022399,0.95485,1.1367,44583.1475702185,0.0021398125
71,10.1016/j.actamat.2015.01.018,4586,6(a),5856,perpendicular,MgAg0.97Sb0.99,536.5,0.000022429,,0.0020438,0.0002239,0.95542,1.1376,44585.1353158857,0.0021391639
71,10.1016/j.actamat.2015.01.018,4586,6(a),5856,perpendicular,MgAg0.97Sb0.99,537,0.00002243,,0.0020444,0.00022382,0.956,1.1384,44583.1475702185,0.0021384937
71,10.1016/j.actamat.2015.01.018,4586,6(a),5856,perpendicular,MgAg0.97Sb0.99,537.5,0.000022431,,0.002045,0.00022374,0.95657,1.1392,44581.1600017832,0.0021378467
71,10.1016/j.actamat.2015.01.018,4586,6(a),5856,perpendicular,MgAg0.97Sb0.99,538,0.000022433,,0.0020457,0.00022365,0.95715,1.1401,44577.1853965141,0.0021372826
71,10.1016/j.actamat.2015.01.018,4586,6(a),5856,perpendicular,MgAg0.97Sb0.99,538.5,0.000022436,,0.0020463,0.00022357,0.95772,1.1409,44571.224817258,0.002136637
71,10.1016/j.actamat.2015.01.018,4586,6(a),5856,perpendicular,MgAg0.97Sb0.99,539,0.00002244,,0.0020469,0.00022348,0.9583,1.1417,44563.2798573975,0.0021359699
71,10.1016/j.actamat.2015.01.018,4586,6(a),5856,perpendicular,MgAg0.97Sb0.99,539.5,0.000022445,,0.0020475,0.0002234,0.95887,1.1426,44553.3526397861,0.002135326
71,10.1016/j.actamat.2015.01.018,4586,6(a),5856,perpendicular,MgAg0.97Sb0.99,540,0.000022451,,0.0020482,0.00022332,0.95945,1.1434,44541.4458153312,0.0021347647
71,10.1016/j.actamat.2015.01.018,4586,6(a),5856,perpendicular,MgAg0.97Sb0.99,540.5,0.000022457,,0.0020488,0.00022323,0.96002,1.1442,44529.5453533419,0.0021341222
71,10.1016/j.actamat.2015.01.018,4586,6(a),5856,perpendicular,MgAg0.97Sb0.99,541,0.000022464,,0.0020494,0.00022315,0.9606,1.1451,44515.6695156695,0.0021334583
71,10.1016/j.actamat.2015.01.018,4586,6(a),5856,perpendicular,MgAg0.97Sb0.99,541.5,0.000022472,,0.00205,0.00022307,0.96117,1.1459,44499.822000712,0.0021328173
71,10.1016/j.actamat.2015.01.018,4586,6(a),5856,perpendicular,MgAg0.97Sb0.99,542,0.000022481,,0.0020507,0.00022298,0.96175,1.1467,44482.0070281571,0.0021322589
71,10.1016/j.actamat.2015.01.018,4586,6(a),5856,perpendicular,MgAg0.97Sb0.99,542.5,0.000022491,,0.0020513,0.0002229,0.96232,1.1476,44462.2293361789,0.0021316194
71,10.1016/j.actamat.2015.01.018,4586,6(a),5856,perpendicular,MgAg0.97Sb0.99,543,0.000022502,,0.0020519,0.00022281,0.9629,1.1484,44440.4941782953,0.0021309586
71,10.1016/j.actamat.2015.01.018,4586,6(a),5856,perpendicular,MgAg0.97Sb0.99,543.5,0.000022514,,0.0020526,0.00022273,0.96347,1.1492,44416.8073198898,0.0021304244
71,10.1016/j.actamat.2015.01.018,4586,6(a),5856,perpendicular,MgAg0.97Sb0.99,544,0.000022526,,0.0020532,0.00022265,0.96405,1.15,44393.1456983042,0.0021297651
71,10.1016/j.actamat.2015.01.018,4586,6(a),5856,perpendicular,MgAg0.97Sb0.99,544.5,0.00002254,,0.0020538,0.00022256,0.96462,1.1509,44365.5723158829,0.0021291286
71,10.1016/j.actamat.2015.01.018,4586,6(a),5856,perpendicular,MgAg0.97Sb0.99,545,0.000022554,,0.0020544,0.00022248,0.9652,1.1517,44338.0331648488,0.0021284708
71,10.1016/j.actamat.2015.01.018,4586,6(a),5856,perpendicular,MgAg0.97Sb0.99,545.5,0.000022569,,0.0020551,0.00022239,0.96577,1.1525,44308.5648455847,0.0021279394
71,10.1016/j.actamat.2015.01.018,4586,6(a),5856,perpendicular,MgAg0.97Sb0.99,546,0.000022585,,0.0020557,0.00022231,0.96635,1.1534,44277.1751162276,0.0021272831
71,10.1016/j.actamat.2015.01.018,4586,6(a),5856,perpendicular,MgAg0.97Sb0.99,546.5,0.000022602,,0.002185,0.00022223,0.96692,1.1542,44243.872223697,0.0022597526
71,10.1016/j.actamat.2015.01.018,4586,6(a),5856,perpendicular,MgAg0.97Sb0.99,547,0.00002262,,,,,1.155,44208.6648983201,
71,10.1016/j.actamat.2015.01.018,4586,6(a),5856,perpendicular,MgAg0.97Sb0.99,547.5,0.000022639,,,,,,44171.5623481603,
71,10.1016/j.actamat.2015.01.018,4586,6(a),5856,perpendicular,MgAg0.97Sb0.99,548,0.000022659,,,,,,44132.5742530562,
71,10.1016/j.actamat.2015.01.018,4587,6(b),5856,perpendicular,MgAg0.97Sb0.99,303,,,0.0017512,0.00026308,0.68693,0.74934,,0.0025493136
71,10.1016/j.actamat.2015.01.018,4587,6(b),5856,perpendicular,MgAg0.97Sb0.99,303.5,,,0.0017518,0.00026299,0.68751,0.75017,,0.0025480357
71,10.1016/j.actamat.2015.01.018,4587,6(b),5856,perpendicular,MgAg0.97Sb0.99,304,,,0.0017524,0.00026291,0.68808,0.751,,0.0025467969
71,10.1016/j.actamat.2015.01.018,4587,6(b),5856,perpendicular,MgAg0.97Sb0.99,304.5,,,0.001753,0.00026283,0.68866,0.75183,,0.0025455232
71,10.1016/j.actamat.2015.01.018,4587,6(b),5856,perpendicular,MgAg0.97Sb0.99,305,,,0.0017537,0.00026274,0.68923,0.75267,,0.0025444336
71,10.1016/j.actamat.2015.01.018,4589,6(d),5856,perpendicular,MgAg0.97Sb0.99,296.5,,,,,0.67946,,,
71,10.1016/j.actamat.2015.01.018,4589,6(d),5856,perpendicular,MgAg0.97Sb0.99,297,,,,,0.68003,,,
71,10.1016/j.actamat.2015.01.018,4589,6(d),5856,perpendicular,MgAg0.97Sb0.99,297.5,,,,,0.68061,,,
71,10.1016/j.actamat.2015.01.018,4589,6(d),5856,perpendicular,MgAg0.97Sb0.99,298,,,,,0.68118,,,
71,10.1016/j.actamat.2015.01.018,4589,6(d),5856,perpendicular,MgAg0.97Sb0.99,298.5,,,,,0.68176,,,
71,10.1016/j.actamat.2015.01.018,4589,6(d),5856,perpendicular,MgAg0.97Sb0.99,299,,,,,0.68233,,,
71,10.1016/j.actamat.2015.01.018,4589,6(d),5856,perpendicular,MgAg0.97Sb0.99,299.5,,,,,0.68291,,,
71,10.1016/j.actamat.2015.01.018,4589,6(d),5856,perpendicular,MgAg0.97Sb0.99,300,,,,,0.68348,,,
71,10.1016/j.actamat.2015.01.018,4589,6(d),5856,perpendicular,MgAg0.97Sb0.99,300.5,,,,,0.68406,,,
71,10.1016/j.actamat.2015.01.018,4589,6(d),5856,perpendicular,MgAg0.97Sb0.99,301,,,,,0.68463,,,
71,10.1016/j.actamat.2015.01.018,4589,6(d),5856,perpendicular,MgAg0.97Sb0.99,301.5,,,,,0.68521,,,
71,10.1016/j.actamat.2015.01.018,4589,6(d),5856,perpendicular,MgAg0.97Sb0.99,302,,,,,0.68578,,,
71,10.1016/j.actamat.2015.01.018,4589,6(d),5856,perpendicular,MgAg0.97Sb0.99,302.5,,,,,0.68636,,,