sid,DOI,figureid,fignum,sampleid,samplename,composition,Temperature,Electrical resistivity,Lattice thermal conductivity,Power factor,Seebeck coefficient,Thermal conductivity,ZT,Electrical conductivity,Figure of merit Z
71,10.1016/j.actamat.2015.01.018,4580,3(a),5853,MgAg0.963Cu0.007Sb0.99,MgAg0.963Cu0.007Sb0.99,371,0.000027635,0.52734,0.0020359,0.00024131,0.72812,1.0776,36185.9960195404,0.002796105
71,10.1016/j.actamat.2015.01.018,4580,3(a),5853,MgAg0.963Cu0.007Sb0.99,MgAg0.963Cu0.007Sb0.99,371.5,0.000027611,0.52744,0.0020365,0.00024122,0.72869,1.0785,36217.4495672015,0.0027947412
71,10.1016/j.actamat.2015.01.018,4580,3(a),5853,MgAg0.963Cu0.007Sb0.99,MgAg0.963Cu0.007Sb0.99,372,0.000027586,0.52755,0.0020371,0.00024113,0.72925,1.0793,36250.2718770391,0.0027934179
71,10.1016/j.actamat.2015.01.018,4580,3(a),5853,MgAg0.963Cu0.007Sb0.99,MgAg0.963Cu0.007Sb0.99,372.5,0.000027561,0.52765,0.0020378,0.00024104,0.72982,1.0802,36283.1537317224,0.0027921953
71,10.1016/j.actamat.2015.01.018,4580,3(a),5853,MgAg0.963Cu0.007Sb0.99,MgAg0.963Cu0.007Sb0.99,373,0.000027537,,0.0020384,0.00024096,0.73039,1.081,36314.7764825507,0.0027908378
71,10.1016/j.actamat.2015.01.018,4580,3(a),5853,MgAg0.963Cu0.007Sb0.99,MgAg0.963Cu0.007Sb0.99,373.5,0.000027512,,0.0020391,0.00024087,0.73096,1.0818,36347.7755161384,0.0027896191
71,10.1016/j.actamat.2015.01.018,4580,3(a),5853,MgAg0.963Cu0.007Sb0.99,MgAg0.963Cu0.007Sb0.99,374,0.000027487,,0.0020397,0.00024078,0.73153,1.0827,36380.8345763452,0.0027882657
71,10.1016/j.actamat.2015.01.018,4580,3(a),5853,MgAg0.963Cu0.007Sb0.99,MgAg0.963Cu0.007Sb0.99,374.5,0.000027462,,0.0020403,0.00024069,0.73209,1.0835,36413.9538271065,0.0027869524
71,10.1016/j.actamat.2015.01.018,4580,3(a),5853,MgAg0.963Cu0.007Sb0.99,MgAg0.963Cu0.007Sb0.99,375,0.000027438,,0.002041,0.0002406,0.73266,1.0844,36445.8050878344,0.0027857396
71,10.1016/j.actamat.2015.01.018,4580,3(a),5853,MgAg0.963Cu0.007Sb0.99,MgAg0.963Cu0.007Sb0.99,375.5,0.000027413,,0.0020416,0.00024051,0.73323,1.0852,36479.0427899172,0.0027843923
71,10.1016/j.actamat.2015.01.018,4580,3(a),5853,MgAg0.963Cu0.007Sb0.99,MgAg0.963Cu0.007Sb0.99,376,0.000027388,,0.0020422,0.00024043,0.7338,1.0861,36512.3411713159,0.0027830472
71,10.1016/j.actamat.2015.01.018,4580,3(a),5853,MgAg0.963Cu0.007Sb0.99,MgAg0.963Cu0.007Sb0.99,376.5,0.000027364,,0.0020429,0.00024034,0.73437,1.0869,36544.3648589388,0.0027818402
71,10.1016/j.actamat.2015.01.018,4580,3(a),5853,MgAg0.963Cu0.007Sb0.99,MgAg0.963Cu0.007Sb0.99,377,0.000027339,,0.0020435,0.00024025,0.73493,1.0878,36577.7826548155,0.0027805369
71,10.1016/j.actamat.2015.01.018,4580,3(a),5853,MgAg0.963Cu0.007Sb0.99,MgAg0.963Cu0.007Sb0.99,377.5,0.000027314,,0.0020441,0.00024016,0.7355,1.0886,36611.2616240756,0.0027791978
71,10.1016/j.actamat.2015.01.018,4580,3(a),5853,MgAg0.963Cu0.007Sb0.99,MgAg0.963Cu0.007Sb0.99,378,0.000027289,,0.0020448,0.00024007,0.73607,1.0894,36644.8019348455,0.0027779967
71,10.1016/j.actamat.2015.01.018,4580,3(a),5853,MgAg0.963Cu0.007Sb0.99,MgAg0.963Cu0.007Sb0.99,378.5,0.000027265,,0.0020454,0.00023998,0.73664,1.0903,36677.0584999083,0.0027766616
71,10.1016/j.actamat.2015.01.018,4580,3(a),5853,MgAg0.963Cu0.007Sb0.99,MgAg0.963Cu0.007Sb0.99,379,0.00002724,,0.002046,0.00023989,0.73721,1.0911,36710.7195301028,0.0027753286
71,10.1016/j.actamat.2015.01.018,4580,3(a),5853,MgAg0.963Cu0.007Sb0.99,MgAg0.963Cu0.007Sb0.99,379.5,0.000027215,,0.0020467,0.00023981,0.73778,1.092,36744.4424030865,0.0027741332
71,10.1016/j.actamat.2015.01.018,4580,3(a),5853,MgAg0.963Cu0.007Sb0.99,MgAg0.963Cu0.007Sb0.99,380,0.00002719,,0.0020473,0.00023972,0.73834,1.0928,36778.2272894447,0.0027728418
71,10.1016/j.actamat.2015.01.018,4580,3(a),5853,MgAg0.963Cu0.007Sb0.99,MgAg0.963Cu0.007Sb0.99,380.5,0.000027166,,0.0020479,0.00023963,0.73891,1.0937,36810.7192814548,0.0027715148
71,10.1016/j.actamat.2015.01.018,4580,3(a),5853,MgAg0.963Cu0.007Sb0.99,MgAg0.963Cu0.007Sb0.99,381,0.000027141,,0.0020486,0.00023954,0.73948,1.0945,36844.6262112671,0.0027703251
71,10.1016/j.actamat.2015.01.018,4580,3(a),5853,MgAg0.963Cu0.007Sb0.99,MgAg0.963Cu0.007Sb0.99,381.5,0.000027116,,0.0020492,0.00023945,0.74005,1.0953,36878.5956630772,0.0027690021
71,10.1016/j.actamat.2015.01.018,4580,3(a),5853,MgAg0.963Cu0.007Sb0.99,MgAg0.963Cu0.007Sb0.99,382,0.000027092,,0.0020498,0.00023936,0.74062,1.0962,36911.2653181751,0.0027676811
71,10.1016/j.actamat.2015.01.018,4580,3(a),5853,MgAg0.963Cu0.007Sb0.99,MgAg0.963Cu0.007Sb0.99,382.5,0.000027067,,0.0020505,0.00023927,0.74118,1.097,36945.3578157904,0.0027665344
71,10.1016/j.actamat.2015.01.018,4580,3(a),5853,MgAg0.963Cu0.007Sb0.99,MgAg0.963Cu0.007Sb0.99,383,0.000027042,,0.0020511,0.00023919,0.74175,1.0979,36979.5133496043,0.0027652174
71,10.1016/j.actamat.2015.01.018,4580,3(a),5853,MgAg0.963Cu0.007Sb0.99,MgAg0.963Cu0.007Sb0.99,383.5,0.000027017,,0.0020517,0.0002391,0.74232,1.0987,37013.7320946071,0.0027639024
71,10.1016/j.actamat.2015.01.018,4580,3(a),5853,MgAg0.963Cu0.007Sb0.99,MgAg0.963Cu0.007Sb0.99,384,0.000026993,,0.0020524,0.00023901,0.74289,1.0996,37046.6417219279,0.002762724
71,10.1016/j.actamat.2015.01.018,4580,3(a),5853,MgAg0.963Cu0.007Sb0.99,MgAg0.963Cu0.007Sb0.99,384.5,0.000026968,,0.002053,0.00023892,0.74346,1.1004,37080.9848709582,0.0027614129
71,10.1016/j.actamat.2015.01.018,4580,3(a),5853,MgAg0.963Cu0.007Sb0.99,MgAg0.963Cu0.007Sb0.99,385,0.000026943,,0.0020536,0.00023883,0.74403,1.1012,37115.39175296,0.0027601038
71,10.1016/j.actamat.2015.01.018,4580,3(a),5853,MgAg0.963Cu0.007Sb0.99,MgAg0.963Cu0.007Sb0.99,385.5,0.000026919,,0.0020543,0.00023874,0.74459,1.1021,37148.4824844905,0.002758968
71,10.1016/j.actamat.2015.01.018,4580,3(a),5853,MgAg0.963Cu0.007Sb0.99,MgAg0.963Cu0.007Sb0.99,386,0.000026894,,0.0020549,0.00023866,0.74516,1.1029,37183.0147988399,0.0027576628
71,10.1016/j.actamat.2015.01.018,4580,3(a),5853,MgAg0.963Cu0.007Sb0.99,MgAg0.963Cu0.007Sb0.99,386.5,0.000026869,,0.0020555,0.00023857,0.74573,1.1038,37217.611373702,0.0027563595
71,10.1016/j.actamat.2015.01.018,4580,3(a),5853,MgAg0.963Cu0.007Sb0.99,MgAg0.963Cu0.007Sb0.99,387,0.000026844,,0.0020562,0.00023848,0.7463,1.1046,37252.2723886157,0.0027551923
71,10.1016/j.actamat.2015.01.018,4580,3(a),5853,MgAg0.963Cu0.007Sb0.99,MgAg0.963Cu0.007Sb0.99,387.5,0.00002682,,0.0020568,0.00023839,0.74687,1.1055,37285.6077554064,0.0027538929
71,10.1016/j.actamat.2015.01.018,4580,3(a),5853,MgAg0.963Cu0.007Sb0.99,MgAg0.963Cu0.007Sb0.99,388,0.000026795,,0.0020574,0.0002383,0.74743,1.1063,37320.3955961933,0.0027526324
71,10.1016/j.actamat.2015.01.018,4580,3(a),5853,MgAg0.963Cu0.007Sb0.99,MgAg0.963Cu0.007Sb0.99,388.5,0.00002677,,0.0020581,0.00023821,0.748,1.1071,37355.2484124019,0.0027514706
71,10.1016/j.actamat.2015.01.018,4580,3(a),5853,MgAg0.963Cu0.007Sb0.99,MgAg0.963Cu0.007Sb0.99,389,0.000026746,,0.0020587,0.00023812,0.74857,1.108,37388.7684139684,0.002750177
71,10.1016/j.actamat.2015.01.018,4580,3(a),5853,MgAg0.963Cu0.007Sb0.99,MgAg0.963Cu0.007Sb0.99,389.5,0.000026721,,0.0020593,0.00023804,0.74914,1.1088,37423.749111186,0.0027488854
71,10.1016/j.actamat.2015.01.018,4580,3(a),5853,MgAg0.963Cu0.007Sb0.99,MgAg0.963Cu0.007Sb0.99,390,0.000026696,,0.00206,0.00023795,0.74971,1.1097,37458.7953251423,0.0027477291
71,10.1016/j.actamat.2015.01.018,4580,3(a),5853,MgAg0.963Cu0.007Sb0.99,MgAg0.963Cu0.007Sb0.99,390.5,0.000026671,,0.0020606,0.00023786,0.75028,1.1105,37493.9072400735,0.0027464413
71,10.1016/j.actamat.2015.01.018,4580,3(a),5853,MgAg0.963Cu0.007Sb0.99,MgAg0.963Cu0.007Sb0.99,391,0.000026647,,0.0020612,0.00023777,0.75084,1.1114,37527.6766615379,0.0027451921
71,10.1016/j.actamat.2015.01.018,4580,3(a),5853,MgAg0.963Cu0.007Sb0.99,MgAg0.963Cu0.007Sb0.99,391.5,0.000026622,,0.0020619,0.00023768,0.75141,1.1122,37562.9178874615,0.0027440412
71,10.1016/j.actamat.2015.01.018,4580,3(a),5853,MgAg0.963Cu0.007Sb0.99,MgAg0.963Cu0.007Sb0.99,392,0.000026597,,0.0020625,0.00023759,0.75198,1.113,37598.2253637628,0.0027427591
71,10.1016/j.actamat.2015.01.018,4580,3(a),5853,MgAg0.963Cu0.007Sb0.99,MgAg0.963Cu0.007Sb0.99,392.5,0.000026573,,0.0020631,0.00023751,0.75255,1.1139,37632.1830429383,0.002741479
71,10.1016/j.actamat.2015.01.018,4580,3(a),5853,MgAg0.963Cu0.007Sb0.99,MgAg0.963Cu0.007Sb0.99,393,0.000026548,,0.0020638,0.00023742,0.75312,1.1147,37667.6209130631,0.0027403335
71,10.1016/j.actamat.2015.01.018,4580,3(a),5853,MgAg0.963Cu0.007Sb0.99,MgAg0.963Cu0.007Sb0.99,393.5,0.000026523,,0.0020644,0.00023733,0.75368,1.1156,37703.1255891113,0.0027390935
71,10.1016/j.actamat.2015.01.018,4580,3(a),5853,MgAg0.963Cu0.007Sb0.99,MgAg0.963Cu0.007Sb0.99,394,0.000026498,,0.002065,0.00023724,0.75425,1.1164,37738.6972601706,0.002737819
71,10.1016/j.actamat.2015.01.018,4580,3(a),5853,MgAg0.963Cu0.007Sb0.99,MgAg0.963Cu0.007Sb0.99,394.5,0.000026474,,0.0020657,0.00023715,0.75482,1.1173,37772.9092694719,0.0027366789
71,10.1016/j.actamat.2015.01.018,4580,3(a),5853,MgAg0.963Cu0.007Sb0.99,MgAg0.963Cu0.007Sb0.99,395,0.000026449,,0.0020663,0.00023706,0.75539,1.1181,37808.6128019963,0.0027354082
71,10.1016/j.actamat.2015.01.018,4580,3(a),5853,MgAg0.963Cu0.007Sb0.99,MgAg0.963Cu0.007Sb0.99,395.5,0.000026424,,0.0020669,0.00023697,0.75596,1.119,37844.3838934302,0.0027341394
71,10.1016/j.actamat.2015.01.018,4580,3(a),5853,MgAg0.963Cu0.007Sb0.99,MgAg0.963Cu0.007Sb0.99,396,0.0000264,,0.0020676,0.00023689,0.75653,1.1198,37878.7878787879,0.0027330046
71,10.1016/j.actamat.2015.01.018,4580,3(a),5853,MgAg0.963Cu0.007Sb0.99,MgAg0.963Cu0.007Sb0.99,396.5,0.000026375,,0.0020682,0.0002368,0.75709,1.1206,37914.691943128,0.0027317756
71,10.1016/j.actamat.2015.01.018,4580,3(a),5853,MgAg0.963Cu0.007Sb0.99,MgAg0.963Cu0.007Sb0.99,397,0.00002635,,0.0020688,0.00023671,0.75766,1.1215,37950.6641366224,0.0027305124
71,10.1016/j.actamat.2015.01.018,4580,3(a),5853,MgAg0.963Cu0.007Sb0.99,MgAg0.963Cu0.007Sb0.99,397.5,0.000026325,,0.0020695,0.00023662,0.75823,1.1223,37986.7046533713,0.0027293829
71,10.1016/j.actamat.2015.01.018,4580,3(a),5853,MgAg0.963Cu0.007Sb0.99,MgAg0.963Cu0.007Sb0.99,398,0.000026301,,0.0020701,0.00023653,0.7588,1.1232,38021.368008821,0.0027281234
71,10.1016/j.actamat.2015.01.018,4580,3(a),5853,MgAg0.963Cu0.007Sb0.99,MgAg0.963Cu0.007Sb0.99,398.5,0.000026276,,0.0020707,0.00023644,0.75937,1.124,38057.5430050236,0.0027268657
71,10.1016/j.actamat.2015.01.018,4580,3(a),5853,MgAg0.963Cu0.007Sb0.99,MgAg0.963Cu0.007Sb0.99,399,0.000026251,,0.0020714,0.00023636,0.75993,1.1249,38093.7869033561,0.0027257774
71,10.1016/j.actamat.2015.01.018,4580,3(a),5853,MgAg0.963Cu0.007Sb0.99,MgAg0.963Cu0.007Sb0.99,399.5,0.000026226,,0.002072,0.00023627,0.7605,1.1257,38130.0999008617,0.0027245233
71,10.1016/j.actamat.2015.01.018,4580,3(a),5853,MgAg0.963Cu0.007Sb0.99,MgAg0.963Cu0.007Sb0.99,400,0.000026202,,0.0020726,0.00023618,0.76107,1.1265,38165.0255705671,0.0027232712
71,10.1016/j.actamat.2015.01.018,4580,3(a),5853,MgAg0.963Cu0.007Sb0.99,MgAg0.963Cu0.007Sb0.99,400.5,0.000026177,,0.0020733,0.00023609,0.76164,1.1274,38201.4745769187,0.0027221522
71,10.1016/j.actamat.2015.01.018,4580,3(a),5853,MgAg0.963Cu0.007Sb0.99,MgAg0.963Cu0.007Sb0.99,401,0.000026152,,0.0020739,0.000236,0.76221,1.1282,38237.9932701132,0.0027209037
71,10.1016/j.actamat.2015.01.018,4580,3(a),5853,MgAg0.963Cu0.007Sb0.99,MgAg0.963Cu0.007Sb0.99,401.5,0.000026128,,0.0020745,0.00023591,0.76278,1.1291,38273.1169626454,0.002719657
71,10.1016/j.actamat.2015.01.018,4580,3(a),5853,MgAg0.963Cu0.007Sb0.99,MgAg0.963Cu0.007Sb0.99,402,0.000026103,,0.0020752,0.00023582,0.76334,1.1299,38309.7728230472,0.0027185789
71,10.1016/j.actamat.2015.01.018,4580,3(a),5853,MgAg0.963Cu0.007Sb0.99,MgAg0.963Cu0.007Sb0.99,402.5,0.000026078,,0.0020758,0.00023574,0.76391,1.1308,38346.4989646445,0.0027173358
71,10.1016/j.actamat.2015.01.018,4580,3(a),5853,MgAg0.963Cu0.007Sb0.99,MgAg0.963Cu0.007Sb0.99,403,0.000026053,,0.0020764,0.00023565,0.76448,1.1316,38383.2955897593,0.0027160946
71,10.1016/j.actamat.2015.01.018,4580,3(a),5853,MgAg0.963Cu0.007Sb0.99,MgAg0.963Cu0.007Sb0.99,403.5,0.000026029,,0.0020771,0.00023556,0.76505,1.1324,38418.6868492835,0.0027149859
71,10.1016/j.actamat.2015.01.018,4580,3(a),5853,MgAg0.963Cu0.007Sb0.99,MgAg0.963Cu0.007Sb0.99,404,0.000026004,,0.0020777,0.00023547,0.76562,1.1333,38455.6222119674,0.0027137483
71,10.1016/j.actamat.2015.01.018,4580,3(a),5853,MgAg0.963Cu0.007Sb0.99,MgAg0.963Cu0.007Sb0.99,404.5,0.000025979,,0.0020783,0.00023538,0.76618,1.1341,38492.6286616113,0.002712548
71,10.1016/j.actamat.2015.01.018,4580,3(a),5853,MgAg0.963Cu0.007Sb0.99,MgAg0.963Cu0.007Sb0.99,405,0.000025955,,0.002079,0.00023529,0.76675,1.135,38528.2219225583,0.0027114444
71,10.1016/j.actamat.2015.01.018,4580,3(a),5853,MgAg0.963Cu0.007Sb0.99,MgAg0.963Cu0.007Sb0.99,405.5,0.00002593,,0.0020796,0.0002352,0.76732,1.1358,38565.3682992673,0.0027102122
71,10.1016/j.actamat.2015.01.018,4580,3(a),5853,MgAg0.963Cu0.007Sb0.99,MgAg0.963Cu0.007Sb0.99,406,0.000025905,,0.0020802,0.00023512,0.76789,1.1367,38602.586373287,0.0027089818
71,10.1016/j.actamat.2015.01.018,4580,3(a),5853,MgAg0.963Cu0.007Sb0.99,MgAg0.963Cu0.007Sb0.99,406.5,0.00002588,,0.0020809,0.00023503,0.76846,1.1375,38639.8763523957,0.0027078833
71,10.1016/j.actamat.2015.01.018,4580,3(a),5853,MgAg0.963Cu0.007Sb0.99,MgAg0.963Cu0.007Sb0.99,407,0.000025856,,0.0020815,0.00023494,0.76902,1.1383,38675.7425742574,0.0027066916
71,10.1016/j.actamat.2015.01.018,4580,3(a),5853,MgAg0.963Cu0.007Sb0.99,MgAg0.963Cu0.007Sb0.99,407.5,0.000025831,,0.0020821,0.00023485,0.76959,1.1392,38713.1740931439,0.0027054665
71,10.1016/j.actamat.2015.01.018,4580,3(a),5853,MgAg0.963Cu0.007Sb0.99,MgAg0.963Cu0.007Sb0.99,408,0.000025806,,0.0020828,0.00023476,0.77016,1.14,38750.6781368674,0.0027043731
71,10.1016/j.actamat.2015.01.018,4580,3(a),5853,MgAg0.963Cu0.007Sb0.99,MgAg0.963Cu0.007Sb0.99,408.5,0.000025782,,0.0020834,0.00023467,0.77073,1.1409,38786.7504460476,0.0027031516
71,10.1016/j.actamat.2015.01.018,4580,3(a),5853,MgAg0.963Cu0.007Sb0.99,MgAg0.963Cu0.007Sb0.99,409,0.000025757,,0.002084,0.00023459,0.7713,1.1417,38824.3972512327,0.0027019318
71,10.1016/j.actamat.2015.01.018,4580,3(a),5853,MgAg0.963Cu0.007Sb0.99,MgAg0.963Cu0.007Sb0.99,409.5,0.000025732,,0.0020847,0.0002345,0.77187,1.1426,38862.1172081455,0.0027008434
71,10.1016/j.actamat.2015.01.018,4580,3(a),5853,MgAg0.963Cu0.007Sb0.99,MgAg0.963Cu0.007Sb0.99,410,0.000025707,,0.0020853,0.00023441,0.77243,1.1434,38899.9105302058,0.0026996621
71,10.1016/j.actamat.2015.01.018,4580,3(a),5853,MgAg0.963Cu0.007Sb0.99,MgAg0.963Cu0.007Sb0.99,410.5,0.000025683,,0.002086,0.00023432,0.773,1.1442,38936.2613401861,0.002698577
71,10.1016/j.actamat.2015.01.018,4580,3(a),5853,MgAg0.963Cu0.007Sb0.99,MgAg0.963Cu0.007Sb0.99,411,0.000025658,,0.0020866,0.00023423,0.77357,1.1451,38974.1990802089,0.0026973642
71,10.1016/j.actamat.2015.01.018,4580,3(a),5853,MgAg0.963Cu0.007Sb0.99,MgAg0.963Cu0.007Sb0.99,411.5,0.000025633,,0.0020872,0.00023414,0.77414,1.1459,39012.2108219873,0.0026961532
71,10.1016/j.actamat.2015.01.018,4580,3(a),5853,MgAg0.963Cu0.007Sb0.99,MgAg0.963Cu0.007Sb0.99,412,0.000025609,,0.0020879,0.00023405,0.77471,1.1468,39048.7719161232,0.002695073
71,10.1016/j.actamat.2015.01.018,4580,3(a),5853,MgAg0.963Cu0.007Sb0.99,MgAg0.963Cu0.007Sb0.99,412.5,0.000025584,,0.0020885,0.00023397,0.77527,1.1476,39086.9293308318,0.0026939002
71,10.1016/j.actamat.2015.01.018,4580,3(a),5853,MgAg0.963Cu0.007Sb0.99,MgAg0.963Cu0.007Sb0.99,413,0.000025559,,0.0020891,0.00023388,0.77584,1.1485,39125.1613912907,0.0026926944
71,10.1016/j.actamat.2015.01.018,4580,3(a),5853,MgAg0.963Cu0.007Sb0.99,MgAg0.963Cu0.007Sb0.99,413.5,0.000025534,,0.0020898,0.00023379,0.77641,1.1493,39163.4683167541,0.0026916191
71,10.1016/j.actamat.2015.01.018,4580,3(a),5853,MgAg0.963Cu0.007Sb0.99,MgAg0.963Cu0.007Sb0.99,414,0.00002551,,0.0020904,0.0002337,0.77698,1.1502,39200.3136025088,0.0026904167
71,10.1016/j.actamat.2015.01.018,4580,3(a),5853,MgAg0.963Cu0.007Sb0.99,MgAg0.963Cu0.007Sb0.99,414.5,0.000025485,,0.002091,0.00023361,0.77755,1.151,39238.7679026879,0.0026892161
71,10.1016/j.actamat.2015.01.018,4580,3(a),5853,MgAg0.963Cu0.007Sb0.99,MgAg0.963Cu0.007Sb0.99,415,0.00002546,,0.0020917,0.00023352,0.77812,1.1518,39277.2977219167,0.0026881458
71,10.1016/j.actamat.2015.01.018,4580,3(a),5853,MgAg0.963Cu0.007Sb0.99,MgAg0.963Cu0.007Sb0.99,415.5,0.000025436,,0.0020923,0.00023344,0.77868,1.1527,39314.3576033968,0.0026869831
71,10.1016/j.actamat.2015.01.018,4580,3(a),5853,MgAg0.963Cu0.007Sb0.99,MgAg0.963Cu0.007Sb0.99,416,0.000025411,,0.0020929,0.00023335,0.77925,1.1535,39353.0360867341,0.0026857876
71,10.1016/j.actamat.2015.01.018,4580,3(a),5853,MgAg0.963Cu0.007Sb0.99,MgAg0.963Cu0.007Sb0.99,416.5,0.000025386,,0.0020936,0.00023326,0.77982,1.1544,39391.7907508075,0.0026847221
71,10.1016/j.actamat.2015.01.018,4580,3(a),5853,MgAg0.963Cu0.007Sb0.99,MgAg0.963Cu0.007Sb0.99,417,0.000025361,,0.0020942,0.00023317,0.78039,1.1552,39430.6218209061,0.00268353
71,10.1016/j.actamat.2015.01.018,4580,3(a),5853,MgAg0.963Cu0.007Sb0.99,MgAg0.963Cu0.007Sb0.99,417.5,0.000025337,,0.0020948,0.00023308,0.78096,1.1561,39467.9717409322,0.0026823397
71,10.1016/j.actamat.2015.01.018,4580,3(a),5853,MgAg0.963Cu0.007Sb0.99,MgAg0.963Cu0.007Sb0.99,418,0.000025312,,0.0020955,0.00023299,0.78152,1.1569,39506.9532237674,0.0026813133
71,10.1016/j.actamat.2015.01.018,4580,3(a),5853,MgAg0.963Cu0.007Sb0.99,MgAg0.963Cu0.007Sb0.99,418.5,0.000025287,,0.0020961,0.0002329,0.78209,1.1577,39546.0117847115,0.0026801263
71,10.1016/j.actamat.2015.01.018,4580,3(a),5853,MgAg0.963Cu0.007Sb0.99,MgAg0.963Cu0.007Sb0.99,419,0.000025262,,0.0020967,0.00023282,0.78266,1.1586,39585.1476526007,0.002678941
71,10.1016/j.actamat.2015.01.018,4580,3(a),5853,MgAg0.963Cu0.007Sb0.99,MgAg0.963Cu0.007Sb0.99,419.5,0.000025238,,0.0020974,0.00023273,0.78323,1.1594,39622.7910294001,0.0026778852
71,10.1016/j.actamat.2015.01.018,4580,3(a),5853,MgAg0.963Cu0.007Sb0.99,MgAg0.963Cu0.007Sb0.99,420,0.000025213,,0.002098,0.00023264,0.7838,1.1603,39662.0790861857,0.0026767032
71,10.1016/j.actamat.2015.01.018,4580,3(a),5853,MgAg0.963Cu0.007Sb0.99,MgAg0.963Cu0.007Sb0.99,420.5,0.000025188,,0.0020986,0.00023255,0.78437,1.1611,39701.4451326028,0.002675523
71,10.1016/j.actamat.2015.01.018,4580,3(a),5853,MgAg0.963Cu0.007Sb0.99,MgAg0.963Cu0.007Sb0.99,421,0.000025164,,0.0020993,0.00023246,0.78493,1.162,39739.3101255762,0.002674506
71,10.1016/j.actamat.2015.01.018,4580,3(a),5853,MgAg0.963Cu0.007Sb0.99,MgAg0.963Cu0.007Sb0.99,421.5,0.000025139,,0.0020999,0.00023237,0.7855,1.1628,39778.82970683,0.0026733291
71,10.1016/j.actamat.2015.01.018,4580,3(a),5853,MgAg0.963Cu0.007Sb0.99,MgAg0.963Cu0.007Sb0.99,422,0.000025114,,0.0021005,0.00023228,0.78607,1.1636,39818.4279684638,0.0026721539
71,10.1016/j.actamat.2015.01.018,4580,3(a),5853,MgAg0.963Cu0.007Sb0.99,MgAg0.963Cu0.007Sb0.99,422.5,0.000025089,,0.0021012,0.0002322,0.78664,1.1645,39858.1051456814,0.0026711075
71,10.1016/j.actamat.2015.01.018,4580,3(a),5853,MgAg0.963Cu0.007Sb0.99,MgAg0.963Cu0.007Sb0.99,423,0.000025065,,0.0021018,0.00023211,0.78721,1.1653,39896.2696987832,0.0026699356
71,10.1016/j.actamat.2015.01.018,4580,3(a),5853,MgAg0.963Cu0.007Sb0.99,MgAg0.963Cu0.007Sb0.99,423.5,0.00002504,,0.0021024,0.00023202,0.78777,1.1662,39936.1022364217,0.0026687993
71,10.1016/j.actamat.2015.01.018,4580,3(a),5853,MgAg0.963Cu0.007Sb0.99,MgAg0.963Cu0.007Sb0.99,424,0.000025015,,0.0021031,0.00023193,0.78834,1.167,39976.0143913652,0.0026677576
71,10.1016/j.actamat.2015.01.018,4580,3(a),5853,MgAg0.963Cu0.007Sb0.99,MgAg0.963Cu0.007Sb0.99,424.5,0.000024991,,0.0021037,0.00023184,0.78891,1.1679,40014.4051858669,0.0026665906
71,10.1016/j.actamat.2015.01.018,4580,3(a),5853,MgAg0.963Cu0.007Sb0.99,MgAg0.963Cu0.007Sb0.99,425,0.000024966,,0.0021043,0.00023175,0.78948,1.1687,40054.4740847553,0.0026654253
71,10.1016/j.actamat.2015.01.018,4580,3(a),5853,MgAg0.963Cu0.007Sb0.99,MgAg0.963Cu0.007Sb0.99,425.5,0.000024941,,0.002105,0.00023167,0.79005,1.1695,40094.623311014,0.0026643883
71,10.1016/j.actamat.2015.01.018,4580,3(a),5853,MgAg0.963Cu0.007Sb0.99,MgAg0.963Cu0.007Sb0.99,426,0.000024916,,0.0021056,0.00023158,0.79062,1.1704,40134.8531064376,0.0026632263