sid,DOI,figureid,fignum,sampleid,samplename,composition,Temperature,Electrical resistivity,Lattice thermal conductivity,Power factor,Seebeck coefficient,Thermal conductivity,ZT,Electrical conductivity,Figure of merit Z
71,10.1016/j.actamat.2015.01.018,4580,3(a),5851,MgAg0.97Sb0.99,MgAg0.97Sb0.99,422,0.000031859,,0.0019706,0.00024712,0.82535,1.0062,31388.3047176622,0.0023875931
71,10.1016/j.actamat.2015.01.018,4580,3(a),5851,MgAg0.97Sb0.99,MgAg0.97Sb0.99,422.5,0.000031812,,0.0019714,0.00024698,0.82592,1.0071,31434.6787375833,0.002386914
71,10.1016/j.actamat.2015.01.018,4580,3(a),5851,MgAg0.97Sb0.99,MgAg0.97Sb0.99,423,0.000031765,,0.0019723,0.00024685,0.82649,1.008,31481.1899889816,0.0023863568
71,10.1016/j.actamat.2015.01.018,4580,3(a),5851,MgAg0.97Sb0.99,MgAg0.97Sb0.99,423.5,0.000031717,,0.0019732,0.00024672,0.82707,1.0089,31528.8331178863,0.0023857715
71,10.1016/j.actamat.2015.01.018,4580,3(a),5851,MgAg0.97Sb0.99,MgAg0.97Sb0.99,424,0.00003167,,0.001974,0.00024659,0.82764,1.0098,31575.6236185665,0.002385095
71,10.1016/j.actamat.2015.01.018,4580,3(a),5851,MgAg0.97Sb0.99,MgAg0.97Sb0.99,424.5,0.000031623,,0.0019749,0.00024646,0.82821,1.0107,31622.5532049458,0.0023845402
71,10.1016/j.actamat.2015.01.018,4580,3(a),5851,MgAg0.97Sb0.99,MgAg0.97Sb0.99,425,0.000031575,,0.0019758,0.00024632,0.82878,1.0116,31670.6254948535,0.0023839861
71,10.1016/j.actamat.2015.01.018,4580,3(a),5851,MgAg0.97Sb0.99,MgAg0.97Sb0.99,425.5,0.000031528,,0.0019766,0.00024619,0.82935,1.0125,31717.8381121543,0.0023833122
71,10.1016/j.actamat.2015.01.018,4580,3(a),5851,MgAg0.97Sb0.99,MgAg0.97Sb0.99,426,0.000031481,,0.0019775,0.00024606,0.82993,1.0134,31765.1917029319,0.0023827311
71,10.1016/j.actamat.2015.01.018,4580,3(a),5851,MgAg0.97Sb0.99,MgAg0.97Sb0.99,426.5,0.000031434,,0.0019784,0.00024593,0.8305,1.0143,31812.6868995355,0.0023821794
71,10.1016/j.actamat.2015.01.018,4580,3(a),5851,MgAg0.97Sb0.99,MgAg0.97Sb0.99,427,0.000031386,,0.0019792,0.0002458,0.83107,1.0152,31861.3394507105,0.0023815082
71,10.1016/j.actamat.2015.01.018,4580,3(a),5851,MgAg0.97Sb0.99,MgAg0.97Sb0.99,427.5,0.000031339,,0.0019801,0.00024566,0.83164,1.0161,31909.1228182137,0.0023809581
71,10.1016/j.actamat.2015.01.018,4580,3(a),5851,MgAg0.97Sb0.99,MgAg0.97Sb0.99,428,0.000031292,,0.0019809,0.00024553,0.83222,1.017,31957.0497251694,0.00238026
71,10.1016/j.actamat.2015.01.018,4580,3(a),5851,MgAg0.97Sb0.99,MgAg0.97Sb0.99,428.5,0.000031244,,0.0019818,0.0002454,0.83279,1.0179,32006.1451798745,0.0023797116
71,10.1016/j.actamat.2015.01.018,4580,3(a),5851,MgAg0.97Sb0.99,MgAg0.97Sb0.99,429,0.000031197,,0.0019827,0.00024527,0.83336,1.0188,32054.3642016861,0.0023791639
71,10.1016/j.actamat.2015.01.018,4580,3(a),5851,MgAg0.97Sb0.99,MgAg0.97Sb0.99,429.5,0.00003115,,0.0019835,0.00024514,0.83393,1.0197,32102.7287319422,0.002378497
71,10.1016/j.actamat.2015.01.018,4580,3(a),5851,MgAg0.97Sb0.99,MgAg0.97Sb0.99,430,0.000031102,,0.0019844,0.000245,0.8345,1.0206,32152.2731657128,0.0023779509
71,10.1016/j.actamat.2015.01.018,4580,3(a),5851,MgAg0.97Sb0.99,MgAg0.97Sb0.99,430.5,0.000031055,,0.0019853,0.00024487,0.83508,1.0215,32200.933827081,0.002377377
71,10.1016/j.actamat.2015.01.018,4580,3(a),5851,MgAg0.97Sb0.99,MgAg0.97Sb0.99,431,0.000031008,,0.0019861,0.00024474,0.83565,1.0224,32249.742002064,0.0023767127
71,10.1016/j.actamat.2015.01.018,4580,3(a),5851,MgAg0.97Sb0.99,MgAg0.97Sb0.99,431.5,0.000030961,,0.001987,0.00024461,0.83622,1.0233,32298.698362456,0.002376169
71,10.1016/j.actamat.2015.01.018,4580,3(a),5851,MgAg0.97Sb0.99,MgAg0.97Sb0.99,432,0.000030913,,0.0019878,0.00024448,0.83679,1.0242,32348.8499983826,0.0023755064
71,10.1016/j.actamat.2015.01.018,4580,3(a),5851,MgAg0.97Sb0.99,MgAg0.97Sb0.99,432.5,0.000030866,,0.0019887,0.00024435,0.83737,1.0251,32398.1079504957,0.0023749358
71,10.1016/j.actamat.2015.01.018,4580,3(a),5851,MgAg0.97Sb0.99,MgAg0.97Sb0.99,433,0.000030819,,0.0019896,0.00024421,0.83794,1.026,32447.5161426393,0.0023743943
71,10.1016/j.actamat.2015.01.018,4580,3(a),5851,MgAg0.97Sb0.99,MgAg0.97Sb0.99,433.5,0.000030771,,0.0019904,0.00024408,0.83851,1.0269,32498.1313574469,0.0023737344
71,10.1016/j.actamat.2015.01.018,4580,3(a),5851,MgAg0.97Sb0.99,MgAg0.97Sb0.99,434,0.000030724,,0.0019913,0.00024395,0.83908,1.0278,32547.845332639,0.0023731945
71,10.1016/j.actamat.2015.01.018,4580,3(a),5851,MgAg0.97Sb0.99,MgAg0.97Sb0.99,434.5,0.000030677,,0.0019922,0.00024382,0.83966,1.0287,32597.7116406428,0.002372627
71,10.1016/j.actamat.2015.01.018,4580,3(a),5851,MgAg0.97Sb0.99,MgAg0.97Sb0.99,435,0.000030629,,0.001993,0.00024369,0.84023,1.0296,32648.7968918345,0.0023719696
71,10.1016/j.actamat.2015.01.018,4580,3(a),5851,MgAg0.97Sb0.99,MgAg0.97Sb0.99,435.5,0.000030582,,0.0019939,0.00024355,0.8408,1.0305,32698.9732522399,0.002371432
71,10.1016/j.actamat.2015.01.018,4580,3(a),5851,MgAg0.97Sb0.99,MgAg0.97Sb0.99,436,0.000030535,,0.0019948,0.00024342,0.84137,1.0314,32749.3040772884,0.0023708951
71,10.1016/j.actamat.2015.01.018,4580,3(a),5851,MgAg0.97Sb0.99,MgAg0.97Sb0.99,436.5,0.000030487,,0.0019956,0.00024329,0.84194,1.0323,32800.8659428609,0.0023702402
71,10.1016/j.actamat.2015.01.018,4580,3(a),5851,MgAg0.97Sb0.99,MgAg0.97Sb0.99,437,0.00003044,,0.0019965,0.00024316,0.84252,1.0332,32851.5111695138,0.0023696767
71,10.1016/j.actamat.2015.01.018,4580,3(a),5851,MgAg0.97Sb0.99,MgAg0.97Sb0.99,437.5,0.000030393,,0.0019974,0.00024303,0.84309,1.0341,32902.3130326062,0.0023691421
71,10.1016/j.actamat.2015.01.018,4580,3(a),5851,MgAg0.97Sb0.99,MgAg0.97Sb0.99,438,0.000030346,,0.0019982,0.00024289,0.84366,1.035,32953.2722599354,0.0023684897
71,10.1016/j.actamat.2015.01.018,4580,3(a),5851,MgAg0.97Sb0.99,MgAg0.97Sb0.99,438.5,0.000030298,,0.0019991,0.00024276,0.84423,1.0359,33005.478909499,0.0023679566
71,10.1016/j.actamat.2015.01.018,4580,3(a),5851,MgAg0.97Sb0.99,MgAg0.97Sb0.99,439,0.000030251,,0.002,0.00024263,0.84481,1.0368,33056.758454266,0.0023673962
71,10.1016/j.actamat.2015.01.018,4580,3(a),5851,MgAg0.97Sb0.99,MgAg0.97Sb0.99,439.5,0.000030204,,0.0020008,0.0002425,0.84538,1.0377,33108.1975897232,0.0023667463
71,10.1016/j.actamat.2015.01.018,4580,3(a),5851,MgAg0.97Sb0.99,MgAg0.97Sb0.99,440,0.000030156,,0.0020017,0.00024237,0.84595,1.0386,33160.896670646,0.0023662155
71,10.1016/j.actamat.2015.01.018,4580,3(a),5851,MgAg0.97Sb0.99,MgAg0.97Sb0.99,440.5,0.000030109,,0.0020025,0.00024223,0.84652,1.0395,33212.660666246,0.0023655673
71,10.1016/j.actamat.2015.01.018,4580,3(a),5851,MgAg0.97Sb0.99,MgAg0.97Sb0.99,441,0.000030062,,0.0020034,0.0002421,0.84709,1.0404,33264.5865211895,0.002365038
71,10.1016/j.actamat.2015.01.018,4580,3(a),5851,MgAg0.97Sb0.99,MgAg0.97Sb0.99,441.5,0.000030014,,0.0020043,0.00024197,0.84767,1.0413,33317.785033651,0.0023644815
71,10.1016/j.actamat.2015.01.018,4580,3(a),5851,MgAg0.97Sb0.99,MgAg0.97Sb0.99,442,0.000029967,,0.0020051,0.00024184,0.84824,1.0422,33370.0403777489,0.0023638357
71,10.1016/j.actamat.2015.01.018,4580,3(a),5851,MgAg0.97Sb0.99,MgAg0.97Sb0.99,442.5,0.00002992,,0.002006,0.00024171,0.84881,1.0431,33422.4598930481,0.0023633086
71,10.1016/j.actamat.2015.01.018,4580,3(a),5851,MgAg0.97Sb0.99,MgAg0.97Sb0.99,443,0.000029873,,0.0020069,0.00024157,0.84938,1.044,33475.0443544338,0.0023627823
71,10.1016/j.actamat.2015.01.018,4580,3(a),5851,MgAg0.97Sb0.99,MgAg0.97Sb0.99,443.5,0.000029825,,0.0020077,0.00024144,0.84996,1.0449,33528.9186923722,0.0023621112
71,10.1016/j.actamat.2015.01.018,4580,3(a),5851,MgAg0.97Sb0.99,MgAg0.97Sb0.99,444,0.000029778,,0.0020086,0.00024131,0.85053,1.0458,33581.8389415004,0.0023615863
71,10.1016/j.actamat.2015.01.018,4580,3(a),5851,MgAg0.97Sb0.99,MgAg0.97Sb0.99,444.5,0.000029731,,0.0020095,0.00024118,0.8511,1.0467,33634.9265076856,0.0023610622
71,10.1016/j.actamat.2015.01.018,4580,3(a),5851,MgAg0.97Sb0.99,MgAg0.97Sb0.99,445,0.000029683,,0.0020103,0.00024105,0.85167,1.0476,33689.317117542,0.0023604213
71,10.1016/j.actamat.2015.01.018,4580,3(a),5851,MgAg0.97Sb0.99,MgAg0.97Sb0.99,445.5,0.000029636,,0.0020112,0.00024091,0.85224,1.0485,33742.7453097584,0.0023598986
71,10.1016/j.actamat.2015.01.018,4580,3(a),5851,MgAg0.97Sb0.99,MgAg0.97Sb0.99,446,0.000029589,,0.0020121,0.00024078,0.85282,1.0494,33796.3432356619,0.002359349
71,10.1016/j.actamat.2015.01.018,4580,3(a),5851,MgAg0.97Sb0.99,MgAg0.97Sb0.99,446.5,0.000029541,,0.0020129,0.00024065,0.85339,1.0503,33851.2575742189,0.0023587106
71,10.1016/j.actamat.2015.01.018,4580,3(a),5851,MgAg0.97Sb0.99,MgAg0.97Sb0.99,447,0.000029494,,0.0020138,0.00024052,0.85396,1.0512,33905.2010578423,0.0023581901
71,10.1016/j.actamat.2015.01.018,4580,3(a),5851,MgAg0.97Sb0.99,MgAg0.97Sb0.99,447.5,0.000029447,,0.0020147,0.00024039,0.85453,1.0521,33959.3167385472,0.0023576703
71,10.1016/j.actamat.2015.01.018,4580,3(a),5851,MgAg0.97Sb0.99,MgAg0.97Sb0.99,448,0.000029399,,0.0020155,0.00024025,0.85511,1.053,34014.7624068846,0.0023570067
71,10.1016/j.actamat.2015.01.018,4580,3(a),5851,MgAg0.97Sb0.99,MgAg0.97Sb0.99,448.5,0.000029352,,0.0020164,0.00024012,0.85568,1.0539,34069.2286726629,0.0023564884
71,10.1016/j.actamat.2015.01.018,4580,3(a),5851,MgAg0.97Sb0.99,MgAg0.97Sb0.99,449,0.000029305,,0.0020173,0.00023999,0.85625,1.0548,34123.8696468179,0.0023559708
71,10.1016/j.actamat.2015.01.018,4580,3(a),5851,MgAg0.97Sb0.99,MgAg0.97Sb0.99,449.5,0.000029258,,0.0020181,0.00023986,0.85682,1.0557,34178.6861713036,0.0023553372
71,10.1016/j.actamat.2015.01.018,4580,3(a),5851,MgAg0.97Sb0.99,MgAg0.97Sb0.99,450,0.00002921,,0.002019,0.00023973,0.8574,1.0566,34234.8510783978,0.0023547936
71,10.1016/j.actamat.2015.01.018,4580,3(a),5851,MgAg0.97Sb0.99,MgAg0.97Sb0.99,450.5,0.000029163,,0.0020199,0.0002396,0.85797,1.0575,34290.0250317183,0.0023542781
71,10.1016/j.actamat.2015.01.018,4580,3(a),5851,MgAg0.97Sb0.99,MgAg0.97Sb0.99,451,0.000029116,,0.0020207,0.00023946,0.85854,1.0584,34345.3771122407,0.0023536469
71,10.1016/j.actamat.2015.01.018,4580,3(a),5851,MgAg0.97Sb0.99,MgAg0.97Sb0.99,451.5,0.000029068,,0.0020216,0.00023933,0.85911,1.0593,34402.0916471722,0.0023531329
71,10.1016/j.actamat.2015.01.018,4580,3(a),5851,MgAg0.97Sb0.99,MgAg0.97Sb0.99,452,0.000029021,,0.0020225,0.0002392,0.85968,1.0602,34457.8064160436,0.0023526196
71,10.1016/j.actamat.2015.01.018,4580,3(a),5851,MgAg0.97Sb0.99,MgAg0.97Sb0.99,452.5,0.000028974,,0.0020233,0.00023907,0.86026,1.0612,34513.70193967,0.0023519634
71,10.1016/j.actamat.2015.01.018,4580,3(a),5851,MgAg0.97Sb0.99,MgAg0.97Sb0.99,453,0.000028926,,0.0020242,0.00023894,0.86083,1.0621,34570.9742100532,0.0023514515
71,10.1016/j.actamat.2015.01.018,4580,3(a),5851,MgAg0.97Sb0.99,MgAg0.97Sb0.99,453.5,0.000028879,,0.0020251,0.0002388,0.8614,1.063,34627.2377852419,0.0023509403
71,10.1016/j.actamat.2015.01.018,4580,3(a),5851,MgAg0.97Sb0.99,MgAg0.97Sb0.99,454,0.000028832,,0.0020259,0.00023867,0.86197,1.0639,34683.6847946726,0.0023503138
71,10.1016/j.actamat.2015.01.018,4580,3(a),5851,MgAg0.97Sb0.99,MgAg0.97Sb0.99,454.5,0.000028785,,0.0020268,0.00023854,0.86255,1.0648,34740.3161368768,0.0023497768
71,10.1016/j.actamat.2015.01.018,4580,3(a),5851,MgAg0.97Sb0.99,MgAg0.97Sb0.99,455,0.000028737,,0.0020277,0.00023841,0.86312,1.0657,34798.3435988447,0.0023492678
71,10.1016/j.actamat.2015.01.018,4580,3(a),5851,MgAg0.97Sb0.99,MgAg0.97Sb0.99,455.5,0.00002869,,0.0020285,0.00023828,0.86369,1.0666,34855.3502962705,0.0023486436
71,10.1016/j.actamat.2015.01.018,4580,3(a),5851,MgAg0.97Sb0.99,MgAg0.97Sb0.99,456,0.000028643,,0.0020294,0.00023814,0.86426,1.0675,34912.5440770869,0.002348136
71,10.1016/j.actamat.2015.01.018,4580,3(a),5851,MgAg0.97Sb0.99,MgAg0.97Sb0.99,456.5,0.000028595,,0.0020303,0.00023801,0.86483,1.0684,34971.1488022382,0.002347629
71,10.1016/j.actamat.2015.01.018,4580,3(a),5851,MgAg0.97Sb0.99,MgAg0.97Sb0.99,457,0.000028548,,0.0020311,0.00023788,0.86541,1.0693,35028.7235533137,0.00234698
71,10.1016/j.actamat.2015.01.018,4580,3(a),5851,MgAg0.97Sb0.99,MgAg0.97Sb0.99,457.5,0.000028501,,0.002032,0.00023775,0.86598,1.0702,35086.4881933967,0.0023464745
71,10.1016/j.actamat.2015.01.018,4580,3(a),5851,MgAg0.97Sb0.99,MgAg0.97Sb0.99,458,0.000028453,,0.0020329,0.00023762,0.86655,1.0711,35145.6788387868,0.0023459696
71,10.1016/j.actamat.2015.01.018,4580,3(a),5851,MgAg0.97Sb0.99,MgAg0.97Sb0.99,458.5,0.000028406,,0.0020337,0.00023748,0.86712,1.072,35203.8301767232,0.0023453501
71,10.1016/j.actamat.2015.01.018,4580,3(a),5851,MgAg0.97Sb0.99,MgAg0.97Sb0.99,459,0.000028359,,0.0020346,0.00023735,0.8677,1.0729,35262.1742656652,0.0023448196
71,10.1016/j.actamat.2015.01.018,4580,3(a),5851,MgAg0.97Sb0.99,MgAg0.97Sb0.99,459.5,0.000028311,,0.0020355,0.00023722,0.86827,1.0738,35321.9596623221,0.0023443169
71,10.1016/j.actamat.2015.01.018,4580,3(a),5851,MgAg0.97Sb0.99,MgAg0.97Sb0.99,460,0.000028264,,0.0020363,0.00023709,0.86884,1.0747,35380.696292103,0.0023436996
71,10.1016/j.actamat.2015.01.018,4580,3(a),5851,MgAg0.97Sb0.99,MgAg0.97Sb0.99,460.5,0.000028217,,0.0020372,0.00023696,0.86941,1.0756,35439.6285926923,0.0023431983
71,10.1016/j.actamat.2015.01.018,4580,3(a),5851,MgAg0.97Sb0.99,MgAg0.97Sb0.99,461,0.00002817,,0.0020381,0.00023682,0.86998,1.0765,35498.757543486,0.0023426975
71,10.1016/j.actamat.2015.01.018,4580,3(a),5851,MgAg0.97Sb0.99,MgAg0.97Sb0.99,461.5,0.000028122,,0.002039,0.00023669,0.87056,1.0774,35559.3485527345,0.0023421706
71,10.1016/j.actamat.2015.01.018,4580,3(a),5851,MgAg0.97Sb0.99,MgAg0.97Sb0.99,462,0.000028075,,0.0020398,0.00023656,0.87113,1.0783,35618.8780053428,0.0023415564
71,10.1016/j.actamat.2015.01.018,4580,3(a),5851,MgAg0.97Sb0.99,MgAg0.97Sb0.99,462.5,0.000028028,,0.0020407,0.00023643,0.8717,1.0792,35678.6071071785,0.0023410577
71,10.1016/j.actamat.2015.01.018,4580,3(a),5851,MgAg0.97Sb0.99,MgAg0.97Sb0.99,463,0.00002798,,0.0020416,0.0002363,0.87227,1.0801,35739.8141529664,0.0023405597
71,10.1016/j.actamat.2015.01.018,4580,3(a),5851,MgAg0.97Sb0.99,MgAg0.97Sb0.99,463.5,0.000027933,,0.0020424,0.00023616,0.87285,1.081,35799.9498800702,0.0023399209
71,10.1016/j.actamat.2015.01.018,4580,3(a),5851,MgAg0.97Sb0.99,MgAg0.97Sb0.99,464,0.000027886,,0.0020433,0.00023603,0.87342,1.0819,35860.2883167181,0.0023394243
71,10.1016/j.actamat.2015.01.018,4580,3(a),5851,MgAg0.97Sb0.99,MgAg0.97Sb0.99,464.5,0.000027838,,0.0020442,0.0002359,0.87399,1.0828,35922.1208420145,0.0023389284
71,10.1016/j.actamat.2015.01.018,4580,3(a),5851,MgAg0.97Sb0.99,MgAg0.97Sb0.99,465,0.000027791,,0.002045,0.00023577,0.87456,1.0837,35982.8721528552,0.0023383187
71,10.1016/j.actamat.2015.01.018,4580,3(a),5851,MgAg0.97Sb0.99,MgAg0.97Sb0.99,465.5,0.000027744,,0.0020459,0.00023564,0.87514,1.0846,36043.8292964245,0.0023377974
71,10.1016/j.actamat.2015.01.018,4580,3(a),5851,MgAg0.97Sb0.99,MgAg0.97Sb0.99,466,0.000027697,,0.0020468,0.00023551,0.87571,1.0855,36104.9933205762,0.0023373034
71,10.1016/j.actamat.2015.01.018,4580,3(a),5851,MgAg0.97Sb0.99,MgAg0.97Sb0.99,466.5,0.000027649,,0.0020476,0.00023537,0.87628,1.0864,36167.6733335745,0.002336696
71,10.1016/j.actamat.2015.01.018,4580,3(a),5851,MgAg0.97Sb0.99,MgAg0.97Sb0.99,467,0.000027602,,0.0020485,0.00023524,0.87685,1.0873,36229.258749366,0.0023362035
71,10.1016/j.actamat.2015.01.018,4580,3(a),5851,MgAg0.97Sb0.99,MgAg0.97Sb0.99,467.5,0.000027555,,0.0020494,0.00023511,0.87742,1.0882,36291.0542551261,0.0023357115
71,10.1016/j.actamat.2015.01.018,4580,3(a),5851,MgAg0.97Sb0.99,MgAg0.97Sb0.99,468,0.000027507,,0.0020502,0.00023498,0.878,1.0891,36354.3825208129,0.0023350797
71,10.1016/j.actamat.2015.01.018,4580,3(a),5851,MgAg0.97Sb0.99,MgAg0.97Sb0.99,468.5,0.00002746,,0.0020511,0.00023485,0.87857,1.09,36416.6059723234,0.0023345892
71,10.1016/j.actamat.2015.01.018,4580,3(a),5851,MgAg0.97Sb0.99,MgAg0.97Sb0.99,469,0.000027413,,0.002052,0.00023471,0.87914,1.0909,36479.0427899172,0.0023340992
71,10.1016/j.actamat.2015.01.018,4580,3(a),5851,MgAg0.97Sb0.99,MgAg0.97Sb0.99,469.5,0.000027365,,0.0020529,0.00023458,0.87971,1.0918,36543.0294171387,0.0023336099
71,10.1016/j.actamat.2015.01.018,4580,3(a),5851,MgAg0.97Sb0.99,MgAg0.97Sb0.99,470,0.000027318,,0.0020537,0.00023445,0.88029,1.0927,36605.9008712204,0.0023329812
71,10.1016/j.actamat.2015.01.018,4580,3(a),5851,MgAg0.97Sb0.99,MgAg0.97Sb0.99,470.5,0.000027271,,0.0020546,0.00023432,0.88086,1.0936,36668.9890359723,0.0023324932
71,10.1016/j.actamat.2015.01.018,4580,3(a),5851,MgAg0.97Sb0.99,MgAg0.97Sb0.99,471,0.000027223,,0.0020555,0.00023419,0.88143,1.0945,36733.6443448555,0.0023320059
71,10.1016/j.actamat.2015.01.018,4580,3(a),5851,MgAg0.97Sb0.99,MgAg0.97Sb0.99,471.5,0.000027176,,0.0020563,0.00023405,0.882,1.0954,36797.1739770386,0.0023314059
71,10.1016/j.actamat.2015.01.018,4580,3(a),5851,MgAg0.97Sb0.99,MgAg0.97Sb0.99,472,0.000027129,,0.0020572,0.00023392,0.88257,1.0963,36860.9237347488,0.0023309199
71,10.1016/j.actamat.2015.01.018,4580,3(a),5851,MgAg0.97Sb0.99,MgAg0.97Sb0.99,472.5,0.000027082,,0.0020581,0.00023379,0.88315,1.0972,36924.8947640499,0.0023304082
71,10.1016/j.actamat.2015.01.018,4580,3(a),5851,MgAg0.97Sb0.99,MgAg0.97Sb0.99,473,0.000027034,,0.0020589,0.00023366,0.88372,1.0981,36990.4564622327,0.0023298103
71,10.1016/j.actamat.2015.01.018,4580,3(a),5851,MgAg0.97Sb0.99,MgAg0.97Sb0.99,473.5,0.000026987,,0.0020598,0.00023353,0.88429,1.099,37054.8782747249,0.0023293264
71,10.1016/j.actamat.2015.01.018,4580,3(a),5851,MgAg0.97Sb0.99,MgAg0.97Sb0.99,474,0.00002694,,0.0020607,0.00023339,0.88486,1.0999,37119.5248700817,0.002328843
71,10.1016/j.actamat.2015.01.018,4580,3(a),5851,MgAg0.97Sb0.99,MgAg0.97Sb0.99,474.5,0.000026892,,0.0020616,0.00023326,0.88544,1.1008,37185.7801576677,0.0023283339
71,10.1016/j.actamat.2015.01.018,4580,3(a),5851,MgAg0.97Sb0.99,MgAg0.97Sb0.99,475,0.000026845,,0.0020624,0.00023313,0.88601,1.1017,37250.8847085118,0.002327739
71,10.1016/j.actamat.2015.01.018,4580,3(a),5851,MgAg0.97Sb0.99,MgAg0.97Sb0.99,475.5,0.000026798,,0.0020633,0.000233,0.88658,1.1026,37316.2176281812,0.0023272576
71,10.1016/j.actamat.2015.01.018,4580,3(a),5851,MgAg0.97Sb0.99,MgAg0.97Sb0.99,476,0.00002675,,0.0020642,0.00023287,0.88715,1.1035,37383.1775700935,0.0023267768
71,10.1016/j.actamat.2015.01.018,4580,3(a),5851,MgAg0.97Sb0.99,MgAg0.97Sb0.99,476.5,0.000026703,,0.002065,0.00023273,0.88773,1.1044,37448.9757705127,0.0023261577
71,10.1016/j.actamat.2015.01.018,4580,3(a),5851,MgAg0.97Sb0.99,MgAg0.97Sb0.99,477,0.000026656,,0.0020659,0.0002326,0.8883,1.1053,37515.006002401,0.0023256783
71,10.1016/j.actamat.2015.01.018,4580,3(a),5851,MgAg0.97Sb0.99,MgAg0.97Sb0.99,477.5,0.000026609,,0.0020668,0.00023247,0.88887,1.1062,37581.2694952836,0.0023251994
71,10.1016/j.actamat.2015.01.018,4580,3(a),5851,MgAg0.97Sb0.99,MgAg0.97Sb0.99,478,0.000026561,,0.0020677,0.00023234,0.88944,1.1071,37649.184895147,0.0023247212
71,10.1016/j.actamat.2015.01.018,4580,3(a),5851,MgAg0.97Sb0.99,MgAg0.97Sb0.99,478.5,0.000026514,,0.0020685,0.00023221,0.89001,1.108,37715.9236629705,0.0023241312
71,10.1016/j.actamat.2015.01.018,4580,3(a),5851,MgAg0.97Sb0.99,MgAg0.97Sb0.99,479,0.000026467,,0.0020694,0.00023207,0.89059,1.1089,37782.8994597045,0.0023236282
71,10.1016/j.actamat.2015.01.018,4580,3(a),5851,MgAg0.97Sb0.99,MgAg0.97Sb0.99,479.5,0.000026419,,0.0020703,0.00023194,0.89116,1.1098,37851.5462356637,0.0023231518
71,10.1016/j.actamat.2015.01.018,4580,3(a),5851,MgAg0.97Sb0.99,MgAg0.97Sb0.99,480,0.000026372,,0.0020711,0.00023181,0.89173,1.1107,37919.0050053087,0.002322564
71,10.1016/j.actamat.2015.01.018,4580,3(a),5851,MgAg0.97Sb0.99,MgAg0.97Sb0.99,480.5,0.000026325,,0.002072,0.00023168,0.8923,1.1116,37986.7046533713,0.002322089
71,10.1016/j.actamat.2015.01.018,4580,3(a),5851,MgAg0.97Sb0.99,MgAg0.97Sb0.99,481,0.000026277,,0.0020729,0.00023155,0.89288,1.1125,38056.0946835636,0.0023215886
71,10.1016/j.actamat.2015.01.018,4580,3(a),5851,MgAg0.97Sb0.99,MgAg0.97Sb0.99,481.5,0.00002623,,0.0020738,0.00023141,0.89345,1.1134,38124.2851696531,0.0023211148
71,10.1016/j.actamat.2015.01.018,4580,3(a),5851,MgAg0.97Sb0.99,MgAg0.97Sb0.99,482,0.000026183,,0.0020746,0.00023128,0.89402,1.1143,38192.7204674789,0.0023205297
71,10.1016/j.actamat.2015.01.018,4580,3(a),5851,MgAg0.97Sb0.99,MgAg0.97Sb0.99,482.5,0.000026135,,0.0020755,0.00023115,0.89459,1.1152,38262.8658886551,0.0023200572