sid,DOI,figureid,fignum,sampleid,samplename,composition,Temperature,Electrical resistivity,Lattice thermal conductivity,Power factor,Seebeck coefficient,Thermal conductivity,ZT,Electrical conductivity,Figure of merit Z
71,10.1016/j.actamat.2015.01.018,4580,3(a),5852,MgAg0.967Cu0.003Sb0.99,MgAg0.967Cu0.003Sb0.99,347,0.000033976,0.56635,0.0021066,0.00026022,0.71846,0.96963,29432.5406169061,0.0029321048
71,10.1016/j.actamat.2015.01.018,4580,3(a),5852,MgAg0.967Cu0.003Sb0.99,MgAg0.967Cu0.003Sb0.99,347.5,0.00003396,0.5664,0.0021071,0.0002601,0.71904,0.97048,29446.4075382803,0.002930435
71,10.1016/j.actamat.2015.01.018,4580,3(a),5852,MgAg0.967Cu0.003Sb0.99,MgAg0.967Cu0.003Sb0.99,348,0.000033944,0.56645,0.0021077,0.00025998,0.71961,0.97132,29460.2875324063,0.0029289476
71,10.1016/j.actamat.2015.01.018,4580,3(a),5852,MgAg0.967Cu0.003Sb0.99,MgAg0.967Cu0.003Sb0.99,348.5,0.000033928,0.56649,0.0021082,0.00025987,0.72019,0.97216,29474.1806177788,0.0029272831
71,10.1016/j.actamat.2015.01.018,4580,3(a),5852,MgAg0.967Cu0.003Sb0.99,MgAg0.967Cu0.003Sb0.99,349,0.000033912,0.56654,0.0021088,0.00025975,0.72077,0.973,29488.0868129276,0.00292576
71,10.1016/j.actamat.2015.01.018,4580,3(a),5852,MgAg0.967Cu0.003Sb0.99,MgAg0.967Cu0.003Sb0.99,349.5,0.000033895,0.56658,0.0021093,0.00025963,0.72134,0.97385,29502.8765304617,0.0029241412
71,10.1016/j.actamat.2015.01.018,4580,3(a),5852,MgAg0.967Cu0.003Sb0.99,MgAg0.967Cu0.003Sb0.99,350,0.000033879,0.56663,0.0021099,0.00025951,0.72192,0.97469,29516.8098231943,0.002922623
71,10.1016/j.actamat.2015.01.018,4580,3(a),5852,MgAg0.967Cu0.003Sb0.99,MgAg0.967Cu0.003Sb0.99,350.5,0.000033862,0.56668,0.0021105,0.00025939,0.7225,0.97553,29531.6283739885,0.0029211073
71,10.1016/j.actamat.2015.01.018,4580,3(a),5852,MgAg0.967Cu0.003Sb0.99,MgAg0.967Cu0.003Sb0.99,351,0.000033845,0.56672,0.002111,0.00025927,0.72308,0.97637,29546.4618111981,0.0029194557
71,10.1016/j.actamat.2015.01.018,4580,3(a),5852,MgAg0.967Cu0.003Sb0.99,MgAg0.967Cu0.003Sb0.99,351.5,0.000033828,0.56677,0.0021116,0.00025915,0.72365,0.97722,29561.3101572662,0.0029179852
71,10.1016/j.actamat.2015.01.018,4580,3(a),5852,MgAg0.967Cu0.003Sb0.99,MgAg0.967Cu0.003Sb0.99,352,0.000033811,0.56682,0.0021121,0.00025903,0.72423,0.97806,29576.173434681,0.0029163387
71,10.1016/j.actamat.2015.01.018,4580,3(a),5852,MgAg0.967Cu0.003Sb0.99,MgAg0.967Cu0.003Sb0.99,352.5,0.000033794,0.56686,0.0021127,0.00025891,0.72481,0.9789,29591.0516659762,0.0029148329
71,10.1016/j.actamat.2015.01.018,4580,3(a),5852,MgAg0.967Cu0.003Sb0.99,MgAg0.967Cu0.003Sb0.99,353,0.000033777,0.56691,0.0021132,0.0002588,0.72539,0.97974,29605.9448737306,0.0029131915
71,10.1016/j.actamat.2015.01.018,4580,3(a),5852,MgAg0.967Cu0.003Sb0.99,MgAg0.967Cu0.003Sb0.99,353.5,0.000033759,0.56695,0.0021138,0.00025868,0.72596,0.98059,29621.7305014959,0.0029117307
71,10.1016/j.actamat.2015.01.018,4580,3(a),5852,MgAg0.967Cu0.003Sb0.99,MgAg0.967Cu0.003Sb0.99,354,0.000033742,0.567,0.0021143,0.00025856,0.72654,0.98143,29636.6546144271,0.0029100944
71,10.1016/j.actamat.2015.01.018,4580,3(a),5852,MgAg0.967Cu0.003Sb0.99,MgAg0.967Cu0.003Sb0.99,354.5,0.000033724,0.56705,0.0021149,0.00025844,0.72712,0.98227,29652.4730162496,0.0029085983
71,10.1016/j.actamat.2015.01.018,4580,3(a),5852,MgAg0.967Cu0.003Sb0.99,MgAg0.967Cu0.003Sb0.99,355,0.000033706,0.56709,0.0021155,0.00025832,0.7277,0.98311,29668.30831306,0.0029071046
71,10.1016/j.actamat.2015.01.018,4580,3(a),5852,MgAg0.967Cu0.003Sb0.99,MgAg0.967Cu0.003Sb0.99,355.5,0.000033688,0.56714,0.002116,0.0002582,0.72827,0.98395,29684.1605319402,0.0029055158
71,10.1016/j.actamat.2015.01.018,4580,3(a),5852,MgAg0.967Cu0.003Sb0.99,MgAg0.967Cu0.003Sb0.99,356,0.00003367,0.56719,0.0021166,0.00025808,0.72885,0.9848,29700.0297000297,0.0029040269
71,10.1016/j.actamat.2015.01.018,4580,3(a),5852,MgAg0.967Cu0.003Sb0.99,MgAg0.967Cu0.003Sb0.99,356.5,0.000033652,0.56723,0.0021171,0.00025796,0.72943,0.98564,29715.9158445263,0.0029024032
71,10.1016/j.actamat.2015.01.018,4580,3(a),5852,MgAg0.967Cu0.003Sb0.99,MgAg0.967Cu0.003Sb0.99,357,0.000033633,0.56728,0.0021177,0.00025784,0.73,0.98648,29732.7030000297,0.0029009589
71,10.1016/j.actamat.2015.01.018,4580,3(a),5852,MgAg0.967Cu0.003Sb0.99,MgAg0.967Cu0.003Sb0.99,357.5,0.000033615,0.56733,0.0021182,0.00025773,0.73058,0.98732,29748.6241261342,0.0028993403
71,10.1016/j.actamat.2015.01.018,4580,3(a),5852,MgAg0.967Cu0.003Sb0.99,MgAg0.967Cu0.003Sb0.99,358,0.000033596,0.56737,0.0021188,0.00025761,0.73116,0.98817,29765.4482676509,0.0028978609
71,10.1016/j.actamat.2015.01.018,4580,3(a),5852,MgAg0.967Cu0.003Sb0.99,MgAg0.967Cu0.003Sb0.99,358.5,0.000033577,0.56742,0.0021194,0.00025749,0.73174,0.98901,29782.2914495041,0.002896384
71,10.1016/j.actamat.2015.01.018,4580,3(a),5852,MgAg0.967Cu0.003Sb0.99,MgAg0.967Cu0.003Sb0.99,359,0.000033559,0.56746,0.0021199,0.00025737,0.73231,0.98985,29798.2657409339,0.0028948123
71,10.1016/j.actamat.2015.01.018,4580,3(a),5852,MgAg0.967Cu0.003Sb0.99,MgAg0.967Cu0.003Sb0.99,359.5,0.000033539,0.56751,0.0021205,0.00025725,0.73289,0.99069,29816.0350636572,0.0028933401
71,10.1016/j.actamat.2015.01.018,4580,3(a),5852,MgAg0.967Cu0.003Sb0.99,MgAg0.967Cu0.003Sb0.99,360,0.00003352,0.56756,0.002121,0.00025713,0.73347,0.99154,29832.9355608592,0.0028917338
71,10.1016/j.actamat.2015.01.018,4580,3(a),5852,MgAg0.967Cu0.003Sb0.99,MgAg0.967Cu0.003Sb0.99,360.5,0.000033501,0.5676,0.0021216,0.00025701,0.73405,0.99238,29849.8552282021,0.0028902663
71,10.1016/j.actamat.2015.01.018,4580,3(a),5852,MgAg0.967Cu0.003Sb0.99,MgAg0.967Cu0.003Sb0.99,361,0.000033482,0.56765,0.0021221,0.00025689,0.73462,0.99322,29866.7940983215,0.0028887044
71,10.1016/j.actamat.2015.01.018,4580,3(a),5852,MgAg0.967Cu0.003Sb0.99,MgAg0.967Cu0.003Sb0.99,361.5,0.000033462,0.5677,0.0021227,0.00025677,0.7352,0.99406,29884.6452692607,0.0028872416
71,10.1016/j.actamat.2015.01.018,4580,3(a),5852,MgAg0.967Cu0.003Sb0.99,MgAg0.967Cu0.003Sb0.99,362,0.000033442,0.56774,0.0021233,0.00025666,0.73578,0.99491,29902.5177919981,0.0028857811
71,10.1016/j.actamat.2015.01.018,4580,3(a),5852,MgAg0.967Cu0.003Sb0.99,MgAg0.967Cu0.003Sb0.99,362.5,0.000033423,0.56779,0.0021238,0.00025654,0.73636,0.99575,29919.5165006134,0.0028841871
71,10.1016/j.actamat.2015.01.018,4580,3(a),5852,MgAg0.967Cu0.003Sb0.99,MgAg0.967Cu0.003Sb0.99,363,0.000033403,0.56783,0.0021244,0.00025642,0.73693,0.99659,29937.4307696913,0.0028827704
71,10.1016/j.actamat.2015.01.018,4580,3(a),5852,MgAg0.967Cu0.003Sb0.99,MgAg0.967Cu0.003Sb0.99,363.5,0.000033382,0.56788,0.0021249,0.0002563,0.73751,0.99743,29956.263854772,0.0028811813
71,10.1016/j.actamat.2015.01.018,4580,3(a),5852,MgAg0.967Cu0.003Sb0.99,MgAg0.967Cu0.003Sb0.99,364,0.000033362,0.56793,0.0021255,0.00025618,0.73809,0.99828,29974.2221689347,0.0028797301
71,10.1016/j.actamat.2015.01.018,4580,3(a),5852,MgAg0.967Cu0.003Sb0.99,MgAg0.967Cu0.003Sb0.99,364.5,0.000033342,0.56797,0.002126,0.00025606,0.73866,0.99912,29992.2020274729,0.0028781848
71,10.1016/j.actamat.2015.01.018,4580,3(a),5852,MgAg0.967Cu0.003Sb0.99,MgAg0.967Cu0.003Sb0.99,365,0.000033321,0.56802,0.0021266,0.00025594,0.73924,0.99996,30011.1041085202,0.0028767383
71,10.1016/j.actamat.2015.01.018,4580,3(a),5852,MgAg0.967Cu0.003Sb0.99,MgAg0.967Cu0.003Sb0.99,365.5,0.000033301,0.56807,0.0021272,0.00025582,0.73982,1.0008,30029.1282544068,0.002875294
71,10.1016/j.actamat.2015.01.018,4580,3(a),5852,MgAg0.967Cu0.003Sb0.99,MgAg0.967Cu0.003Sb0.99,366,0.00003328,0.56811,0.0021277,0.0002557,0.7404,1.0016,30048.0769230769,0.0028737169
71,10.1016/j.actamat.2015.01.018,4580,3(a),5852,MgAg0.967Cu0.003Sb0.99,MgAg0.967Cu0.003Sb0.99,366.5,0.000033259,0.56816,0.0021283,0.00025559,0.74097,1.0025,30067.0495204306,0.002872316
71,10.1016/j.actamat.2015.01.018,4580,3(a),5852,MgAg0.967Cu0.003Sb0.99,MgAg0.967Cu0.003Sb0.99,367,0.000033238,0.5682,0.0021288,0.00025547,0.74155,1.0033,30086.0460918226,0.0028707437
71,10.1016/j.actamat.2015.01.018,4580,3(a),5852,MgAg0.967Cu0.003Sb0.99,MgAg0.967Cu0.003Sb0.99,367.5,0.000033217,0.56825,0.0021294,0.00025535,0.74213,1.0042,30105.0666827227,0.0028693086
71,10.1016/j.actamat.2015.01.018,4580,3(a),5852,MgAg0.967Cu0.003Sb0.99,MgAg0.967Cu0.003Sb0.99,368,0.000033196,0.5683,0.0021299,0.00025523,0.74271,1.005,30124.1113387155,0.0028677411
71,10.1016/j.actamat.2015.01.018,4580,3(a),5852,MgAg0.967Cu0.003Sb0.99,MgAg0.967Cu0.003Sb0.99,368.5,0.000033174,0.56834,0.0021305,0.00025511,0.74328,1.0059,30144.0887441973,0.0028663492
71,10.1016/j.actamat.2015.01.018,4580,3(a),5852,MgAg0.967Cu0.003Sb0.99,MgAg0.967Cu0.003Sb0.99,369,0.000033153,0.56839,0.0021311,0.00025499,0.74386,1.0067,30163.1828190511,0.0028649208
71,10.1016/j.actamat.2015.01.018,4580,3(a),5852,MgAg0.967Cu0.003Sb0.99,MgAg0.967Cu0.003Sb0.99,369.5,0.000033131,0.56844,0.0021316,0.00025487,0.74444,1.0075,30183.2120974314,0.0028633604
71,10.1016/j.actamat.2015.01.018,4580,3(a),5852,MgAg0.967Cu0.003Sb0.99,MgAg0.967Cu0.003Sb0.99,370,0.00003311,0.56848,0.0021322,0.00025475,0.74502,1.0084,30202.3557837511,0.0028619366
71,10.1016/j.actamat.2015.01.018,4580,3(a),5852,MgAg0.967Cu0.003Sb0.99,MgAg0.967Cu0.003Sb0.99,370.5,0.000033088,0.56853,0.0021327,0.00025463,0.74559,1.0092,30222.4371373308,0.0028604193
71,10.1016/j.actamat.2015.01.018,4580,3(a),5852,MgAg0.967Cu0.003Sb0.99,MgAg0.967Cu0.003Sb0.99,371,0.000033066,0.56857,0.0021333,0.00025452,0.74617,1.0101,30242.5452126051,0.002859
71,10.1016/j.actamat.2015.01.018,4580,3(a),5852,MgAg0.967Cu0.003Sb0.99,MgAg0.967Cu0.003Sb0.99,371.5,0.000033043,0.56862,0.0021338,0.0002544,0.74675,1.0109,30263.5959204673,0.0028574489
71,10.1016/j.actamat.2015.01.018,4580,3(a),5852,MgAg0.967Cu0.003Sb0.99,MgAg0.967Cu0.003Sb0.99,372,0.000033021,0.56867,0.0021344,0.00025428,0.74732,1.0118,30283.7588201448,0.0028560724
71,10.1016/j.actamat.2015.01.018,4580,3(a),5852,MgAg0.967Cu0.003Sb0.99,MgAg0.967Cu0.003Sb0.99,372.5,0.000032999,0.56871,0.0021349,0.00025416,0.7479,1.0126,30303.9486045032,0.002854526
71,10.1016/j.actamat.2015.01.018,4580,3(a),5852,MgAg0.967Cu0.003Sb0.99,MgAg0.967Cu0.003Sb0.99,373,0.000032976,,0.0021355,0.00025404,0.74848,1.0134,30325.0849102378,0.0028531156
71,10.1016/j.actamat.2015.01.018,4580,3(a),5852,MgAg0.967Cu0.003Sb0.99,MgAg0.967Cu0.003Sb0.99,373.5,0.000032953,,0.0021361,0.00025392,0.74906,1.0143,30346.2507207235,0.0028517075
71,10.1016/j.actamat.2015.01.018,4580,3(a),5852,MgAg0.967Cu0.003Sb0.99,MgAg0.967Cu0.003Sb0.99,374,0.000032931,,0.0021366,0.0002538,0.74963,1.0151,30366.5239440041,0.0028502061
71,10.1016/j.actamat.2015.01.018,4580,3(a),5852,MgAg0.967Cu0.003Sb0.99,MgAg0.967Cu0.003Sb0.99,374.5,0.000032908,,0.0021372,0.00025368,0.75021,1.016,30387.7476601434,0.0028488023
71,10.1016/j.actamat.2015.01.018,4580,3(a),5852,MgAg0.967Cu0.003Sb0.99,MgAg0.967Cu0.003Sb0.99,375,0.000032885,,0.0021377,0.00025356,0.75079,1.0168,30409.001064315,0.0028472675
71,10.1016/j.actamat.2015.01.018,4580,3(a),5852,MgAg0.967Cu0.003Sb0.99,MgAg0.967Cu0.003Sb0.99,375.5,0.000032861,,0.0021383,0.00025345,0.75137,1.0177,30431.2102492316,0.0028458682
71,10.1016/j.actamat.2015.01.018,4580,3(a),5852,MgAg0.967Cu0.003Sb0.99,MgAg0.967Cu0.003Sb0.99,376,0.000032838,,0.0021388,0.00025333,0.75194,1.0185,30452.5245142822,0.0028443759
71,10.1016/j.actamat.2015.01.018,4580,3(a),5852,MgAg0.967Cu0.003Sb0.99,MgAg0.967Cu0.003Sb0.99,376.5,0.000032815,,0.0021394,0.00025321,0.75252,1.0193,30473.8686576261,0.0028429809
71,10.1016/j.actamat.2015.01.018,4580,3(a),5852,MgAg0.967Cu0.003Sb0.99,MgAg0.967Cu0.003Sb0.99,377,0.000032791,,0.00214,0.00025309,0.7531,1.0202,30496.1727303223,0.0028415881
71,10.1016/j.actamat.2015.01.018,4580,3(a),5852,MgAg0.967Cu0.003Sb0.99,MgAg0.967Cu0.003Sb0.99,377.5,0.000032767,,0.0021405,0.00025297,0.75368,1.021,30518.5094759972,0.0028400647
71,10.1016/j.actamat.2015.01.018,4580,3(a),5852,MgAg0.967Cu0.003Sb0.99,MgAg0.967Cu0.003Sb0.99,378,0.000032743,,0.0021411,0.00025285,0.75425,1.0219,30540.8789664967,0.002838714
71,10.1016/j.actamat.2015.01.018,4580,3(a),5852,MgAg0.967Cu0.003Sb0.99,MgAg0.967Cu0.003Sb0.99,378.5,0.000032719,,0.0021416,0.00025273,0.75483,1.0227,30563.2812738776,0.0028371951
71,10.1016/j.actamat.2015.01.018,4580,3(a),5852,MgAg0.967Cu0.003Sb0.99,MgAg0.967Cu0.003Sb0.99,379,0.000032695,,0.0021422,0.00025261,0.75541,1.0236,30585.7164704083,0.002835811
71,10.1016/j.actamat.2015.01.018,4580,3(a),5852,MgAg0.967Cu0.003Sb0.99,MgAg0.967Cu0.003Sb0.99,379.5,0.000032671,,0.0021427,0.00025249,0.75598,1.0244,30608.1846285697,0.0028343342
71,10.1016/j.actamat.2015.01.018,4580,3(a),5852,MgAg0.967Cu0.003Sb0.99,MgAg0.967Cu0.003Sb0.99,380,0.000032647,,0.0021433,0.00025238,0.75656,1.0252,30630.6858210555,0.0028329544
71,10.1016/j.actamat.2015.01.018,4580,3(a),5852,MgAg0.967Cu0.003Sb0.99,MgAg0.967Cu0.003Sb0.99,380.5,0.000032622,,0.0021439,0.00025226,0.75714,1.0261,30654.1597694807,0.0028315767
71,10.1016/j.actamat.2015.01.018,4580,3(a),5852,MgAg0.967Cu0.003Sb0.99,MgAg0.967Cu0.003Sb0.99,381,0.000032597,,0.0021444,0.00025214,0.75772,1.0269,30677.6697242077,0.0028300692
71,10.1016/j.actamat.2015.01.018,4580,3(a),5852,MgAg0.967Cu0.003Sb0.99,MgAg0.967Cu0.003Sb0.99,381.5,0.000032573,,0.002145,0.00025202,0.75829,1.0278,30700.2732324318,0.0028287331
71,10.1016/j.actamat.2015.01.018,4580,3(a),5852,MgAg0.967Cu0.003Sb0.99,MgAg0.967Cu0.003Sb0.99,382,0.000032548,,0.0021455,0.0002519,0.75887,1.0286,30723.8540002458,0.00282723
71,10.1016/j.actamat.2015.01.018,4580,3(a),5852,MgAg0.967Cu0.003Sb0.99,MgAg0.967Cu0.003Sb0.99,382.5,0.000032523,,0.0021461,0.00025178,0.75945,1.0294,30747.4710205086,0.0028258608
71,10.1016/j.actamat.2015.01.018,4580,3(a),5852,MgAg0.967Cu0.003Sb0.99,MgAg0.967Cu0.003Sb0.99,383,0.000032497,,0.0021466,0.00025166,0.76003,1.0303,30772.0712681171,0.0028243622
71,10.1016/j.actamat.2015.01.018,4580,3(a),5852,MgAg0.967Cu0.003Sb0.99,MgAg0.967Cu0.003Sb0.99,383.5,0.000032472,,0.0021472,0.00025154,0.7606,1.0311,30795.7625030796,0.0028230344
71,10.1016/j.actamat.2015.01.018,4580,3(a),5852,MgAg0.967Cu0.003Sb0.99,MgAg0.967Cu0.003Sb0.99,384,0.000032447,,0.0021478,0.00025142,0.76118,1.032,30819.4902456313,0.0028216716
71,10.1016/j.actamat.2015.01.018,4580,3(a),5852,MgAg0.967Cu0.003Sb0.99,MgAg0.967Cu0.003Sb0.99,384.5,0.000032421,,0.0021483,0.00025131,0.76176,1.0328,30844.2059159187,0.0028201796
71,10.1016/j.actamat.2015.01.018,4580,3(a),5852,MgAg0.967Cu0.003Sb0.99,MgAg0.967Cu0.003Sb0.99,385,0.000032395,,0.0021489,0.00025119,0.76233,1.0337,30868.9612594536,0.002818858
71,10.1016/j.actamat.2015.01.018,4580,3(a),5852,MgAg0.967Cu0.003Sb0.99,MgAg0.967Cu0.003Sb0.99,385.5,0.00003237,,0.0021494,0.00025107,0.76291,1.0345,30892.8019771393,0.0028173703
71,10.1016/j.actamat.2015.01.018,4580,3(a),5852,MgAg0.967Cu0.003Sb0.99,MgAg0.967Cu0.003Sb0.99,386,0.000032344,,0.00215,0.00025095,0.76349,1.0353,30917.6354192431,0.0028160159
71,10.1016/j.actamat.2015.01.018,4580,3(a),5852,MgAg0.967Cu0.003Sb0.99,MgAg0.967Cu0.003Sb0.99,386.5,0.000032318,,0.0021505,0.00025083,0.76407,1.0362,30942.508818615,0.0028145327
71,10.1016/j.actamat.2015.01.018,4580,3(a),5852,MgAg0.967Cu0.003Sb0.99,MgAg0.967Cu0.003Sb0.99,387,0.000032291,,0.0021511,0.00025071,0.76464,1.037,30968.3812827104,0.0028132193
71,10.1016/j.actamat.2015.01.018,4580,3(a),5852,MgAg0.967Cu0.003Sb0.99,MgAg0.967Cu0.003Sb0.99,387.5,0.000032265,,0.0021517,0.00025059,0.76522,1.0379,30993.336432667,0.0028118711
71,10.1016/j.actamat.2015.01.018,4580,3(a),5852,MgAg0.967Cu0.003Sb0.99,MgAg0.967Cu0.003Sb0.99,388,0.000032239,,0.0021522,0.00025047,0.7658,1.0387,31018.331834114,0.0028103944
71,10.1016/j.actamat.2015.01.018,4580,3(a),5852,MgAg0.967Cu0.003Sb0.99,MgAg0.967Cu0.003Sb0.99,388.5,0.000032212,,0.0021528,0.00025035,0.76638,1.0396,31044.3313051037,0.0028090503
71,10.1016/j.actamat.2015.01.018,4580,3(a),5852,MgAg0.967Cu0.003Sb0.99,MgAg0.967Cu0.003Sb0.99,389,0.000032185,,0.0021533,0.00025024,0.76695,1.0404,31070.3743980115,0.0028076146
71,10.1016/j.actamat.2015.01.018,4580,3(a),5852,MgAg0.967Cu0.003Sb0.99,MgAg0.967Cu0.003Sb0.99,389.5,0.000032158,,0.0021539,0.00025012,0.76753,1.0412,31096.4612227129,0.0028062747
71,10.1016/j.actamat.2015.01.018,4580,3(a),5852,MgAg0.967Cu0.003Sb0.99,MgAg0.967Cu0.003Sb0.99,390,0.000032131,,0.0021544,0.00025,0.76811,1.0421,31122.5918894526,0.0028048066
71,10.1016/j.actamat.2015.01.018,4580,3(a),5852,MgAg0.967Cu0.003Sb0.99,MgAg0.967Cu0.003Sb0.99,390.5,0.000032104,,0.002155,0.00024988,0.76869,1.0429,31148.7665088462,0.0028034708
71,10.1016/j.actamat.2015.01.018,4580,3(a),5852,MgAg0.967Cu0.003Sb0.99,MgAg0.967Cu0.003Sb0.99,391,0.000032077,,0.0021555,0.00024976,0.76926,1.0438,31174.985191882,0.0028020435
71,10.1016/j.actamat.2015.01.018,4580,3(a),5852,MgAg0.967Cu0.003Sb0.99,MgAg0.967Cu0.003Sb0.99,391.5,0.000032049,,0.0021561,0.00024964,0.76984,1.0446,31202.2215981778,0.0028007118
71,10.1016/j.actamat.2015.01.018,4580,3(a),5852,MgAg0.967Cu0.003Sb0.99,MgAg0.967Cu0.003Sb0.99,392,0.000032022,,0.0021567,0.00024952,0.77042,1.0455,31228.5303853601,0.0027993822
71,10.1016/j.actamat.2015.01.018,4580,3(a),5852,MgAg0.967Cu0.003Sb0.99,MgAg0.967Cu0.003Sb0.99,392.5,0.000031994,,0.0021572,0.0002494,0.77099,1.0463,31255.8604738388,0.0027979611
71,10.1016/j.actamat.2015.01.018,4580,3(a),5852,MgAg0.967Cu0.003Sb0.99,MgAg0.967Cu0.003Sb0.99,393,0.000031967,,0.0021578,0.00024928,0.77157,1.0471,31282.2598304502,0.0027966354
71,10.1016/j.actamat.2015.01.018,4580,3(a),5852,MgAg0.967Cu0.003Sb0.99,MgAg0.967Cu0.003Sb0.99,393.5,0.000031939,,0.0021583,0.00024917,0.77215,1.048,31309.6840852876,0.0027951823
71,10.1016/j.actamat.2015.01.018,4580,3(a),5852,MgAg0.967Cu0.003Sb0.99,MgAg0.967Cu0.003Sb0.99,394,0.000031911,,0.0021589,0.00024905,0.77273,1.0488,31337.1564664222,0.0027938607
71,10.1016/j.actamat.2015.01.018,4580,3(a),5852,MgAg0.967Cu0.003Sb0.99,MgAg0.967Cu0.003Sb0.99,394.5,0.000031882,,0.0021594,0.00024893,0.7733,1.0497,31365.6608744746,0.002792448
71,10.1016/j.actamat.2015.01.018,4580,3(a),5852,MgAg0.967Cu0.003Sb0.99,MgAg0.967Cu0.003Sb0.99,395,0.000031854,,0.00216,0.00024881,0.77388,1.0505,31393.2316192629,0.0027911304
71,10.1016/j.actamat.2015.01.018,4580,3(a),5852,MgAg0.967Cu0.003Sb0.99,MgAg0.967Cu0.003Sb0.99,395.5,0.000031826,,0.0021606,0.00024869,0.77446,1.0514,31420.8508766417,0.0027898148
71,10.1016/j.actamat.2015.01.018,4580,3(a),5852,MgAg0.967Cu0.003Sb0.99,MgAg0.967Cu0.003Sb0.99,396,0.000031797,,0.0021611,0.00024857,0.77504,1.0522,31449.5078152027,0.0027883722
71,10.1016/j.actamat.2015.01.018,4580,3(a),5852,MgAg0.967Cu0.003Sb0.99,MgAg0.967Cu0.003Sb0.99,396.5,0.000031768,,0.0021617,0.00024845,0.77561,1.053,31478.2170737849,0.0027870966
71,10.1016/j.actamat.2015.01.018,4580,3(a),5852,MgAg0.967Cu0.003Sb0.99,MgAg0.967Cu0.003Sb0.99,397,0.00003174,,0.0021622,0.00024833,0.77619,1.0539,31505.9861373661,0.0027856582
71,10.1016/j.actamat.2015.01.018,4580,3(a),5852,MgAg0.967Cu0.003Sb0.99,MgAg0.967Cu0.003Sb0.99,397.5,0.000031711,,0.0021628,0.00024821,0.77677,1.0547,31534.7986503106,0.0027843506
71,10.1016/j.actamat.2015.01.018,4580,3(a),5852,MgAg0.967Cu0.003Sb0.99,MgAg0.967Cu0.003Sb0.99,398,0.000031681,,0.0021633,0.0002481,0.77735,1.0556,31564.6602064329,0.0027829163
71,10.1016/j.actamat.2015.01.018,4580,3(a),5852,MgAg0.967Cu0.003Sb0.99,MgAg0.967Cu0.003Sb0.99,398.5,0.000031652,,0.0021639,0.00024798,0.77792,1.0564,31593.5801845065,0.0027816485
71,10.1016/j.actamat.2015.01.018,4580,3(a),5852,MgAg0.967Cu0.003Sb0.99,MgAg0.967Cu0.003Sb0.99,399,0.000031623,,0.0021645,0.00024786,0.7785,1.0573,31622.5532049458,0.0027803468
71,10.1016/j.actamat.2015.01.018,4580,3(a),5852,MgAg0.967Cu0.003Sb0.99,MgAg0.967Cu0.003Sb0.99,399.5,0.000031593,,0.002165,0.00024774,0.77908,1.0581,31652.5812680024,0.0027789187
71,10.1016/j.actamat.2015.01.018,4580,3(a),5852,MgAg0.967Cu0.003Sb0.99,MgAg0.967Cu0.003Sb0.99,400,0.000031564,,0.0021656,0.00024762,0.77965,1.0589,31681.6626536561,0.0027776566
71,10.1016/j.actamat.2015.01.018,4580,3(a),5852,MgAg0.967Cu0.003Sb0.99,MgAg0.967Cu0.003Sb0.99,400.5,0.000031534,,0.0021661,0.0002475,0.78023,1.0598,31711.8031331261,0.0027762326
71,10.1016/j.actamat.2015.01.018,4580,3(a),5852,MgAg0.967Cu0.003Sb0.99,MgAg0.967Cu0.003Sb0.99,401,0.000031504,,0.0021667,0.00024738,0.78081,1.0606,31742.001015744,0.0027749388