sid,DOI,figureid,fignum,sampleid,samplename,composition,Temperature,Electrical resistivity,Lattice thermal conductivity,Power factor,Seebeck coefficient,Thermal conductivity,ZT,Electrical conductivity,Figure of merit Z
71,10.1016/j.actamat.2015.01.018,4580,3(a),5851,MgAg0.97Sb0.99,MgAg0.97Sb0.99,483,0.000026088,,0.0020764,0.00023102,0.89516,1.1161,38331.8000613309,0.0023195853
71,10.1016/j.actamat.2015.01.018,4580,3(a),5851,MgAg0.97Sb0.99,MgAg0.97Sb0.99,483.5,0.000026041,,0.0020772,0.00023089,0.89574,1.117,38400.9830651665,0.0023189765
71,10.1016/j.actamat.2015.01.018,4580,3(a),5851,MgAg0.97Sb0.99,MgAg0.97Sb0.99,484,0.000025994,,0.0020781,0.00023076,0.89631,1.1179,38470.4162499038,0.0023185059
71,10.1016/j.actamat.2015.01.018,4580,3(a),5851,MgAg0.97Sb0.99,MgAg0.97Sb0.99,484.5,0.000025946,,0.002079,0.00023062,0.89688,1.1188,38541.5863716951,0.0023180359
71,10.1016/j.actamat.2015.01.018,4580,3(a),5851,MgAg0.97Sb0.99,MgAg0.97Sb0.99,485,0.000025899,,0.0020799,0.00023049,0.89745,1.1197,38611.5294026796,0.0023175664
71,10.1016/j.actamat.2015.01.018,4580,3(a),5851,MgAg0.97Sb0.99,MgAg0.97Sb0.99,485.5,0.000025852,,0.0020807,0.00023036,0.89803,1.1206,38681.7267522822,0.0023169605
71,10.1016/j.actamat.2015.01.018,4580,3(a),5851,MgAg0.97Sb0.99,MgAg0.97Sb0.99,486,0.000025804,,0.0020816,0.00023023,0.8986,1.1215,38753.681599752,0.0023164923
71,10.1016/j.actamat.2015.01.018,4580,3(a),5851,MgAg0.97Sb0.99,MgAg0.97Sb0.99,486.5,0.000025757,,0.0020825,0.0002301,0.89917,1.1224,38824.3972512327,0.0023160248
71,10.1016/j.actamat.2015.01.018,4580,3(a),5851,MgAg0.97Sb0.99,MgAg0.97Sb0.99,487,0.00002571,,0.0020833,0.00022996,0.89974,1.1233,38895.3714507974,0.0023154467
71,10.1016/j.actamat.2015.01.018,4580,3(a),5851,MgAg0.97Sb0.99,MgAg0.97Sb0.99,487.5,0.000025662,,0.0020842,0.00022983,0.90031,1.1242,38968.1240745071,0.0023149804
71,10.1016/j.actamat.2015.01.018,4580,3(a),5851,MgAg0.97Sb0.99,MgAg0.97Sb0.99,488,0.000025615,,0.0020851,0.0002297,0.90089,1.1251,39039.6252195979,0.002314489
71,10.1016/j.actamat.2015.01.018,4580,3(a),5851,MgAg0.97Sb0.99,MgAg0.97Sb0.99,488.5,0.000025568,,0.002086,0.00022957,0.90146,1.126,39111.3892365457,0.0023140239
71,10.1016/j.actamat.2015.01.018,4580,3(a),5851,MgAg0.97Sb0.99,MgAg0.97Sb0.99,489,0.000025521,,0.0020868,0.00022944,0.90203,1.1269,39183.4175776811,0.0023134486
71,10.1016/j.actamat.2015.01.018,4580,3(a),5851,MgAg0.97Sb0.99,MgAg0.97Sb0.99,489.5,0.000025473,,0.0020877,0.0002293,0.9026,1.1278,39257.2527774506,0.0023129847
71,10.1016/j.actamat.2015.01.018,4580,3(a),5851,MgAg0.97Sb0.99,MgAg0.97Sb0.99,490,0.000025426,,0.0020886,0.00022917,0.90318,1.1287,39329.819869425,0.0023124958
71,10.1016/j.actamat.2015.01.018,4580,3(a),5851,MgAg0.97Sb0.99,MgAg0.97Sb0.99,490.5,0.000025379,,0.0020895,0.00022904,0.90375,1.1296,39402.6557389968,0.0023120332
71,10.1016/j.actamat.2015.01.018,4580,3(a),5851,MgAg0.97Sb0.99,MgAg0.97Sb0.99,491,0.000025331,,0.0020903,0.00022891,0.90432,1.1305,39477.3202794994,0.0023114605
71,10.1016/j.actamat.2015.01.018,4580,3(a),5851,MgAg0.97Sb0.99,MgAg0.97Sb0.99,491.5,0.000025284,,0.0020912,0.00022878,0.90489,1.1314,39550.7040025312,0.0023109991
71,10.1016/j.actamat.2015.01.018,4580,3(a),5851,MgAg0.97Sb0.99,MgAg0.97Sb0.99,492,0.000025237,,0.0020921,0.00022864,0.90547,1.1323,39624.361057178,0.0023105128
71,10.1016/j.actamat.2015.01.018,4580,3(a),5851,MgAg0.97Sb0.99,MgAg0.97Sb0.99,492.5,0.000025189,,0.0020929,0.00022851,0.90604,1.1332,39699.8689904323,0.0023099422
71,10.1016/j.actamat.2015.01.018,4580,3(a),5851,MgAg0.97Sb0.99,MgAg0.97Sb0.99,493,0.000025142,,0.0020938,0.00022838,0.90661,1.1341,39774.0832073821,0.0023094826
71,10.1016/j.actamat.2015.01.018,4580,3(a),5851,MgAg0.97Sb0.99,MgAg0.97Sb0.99,493.5,0.000025095,,0.0020947,0.00022825,0.90718,1.135,39848.575413429,0.0023090236
71,10.1016/j.actamat.2015.01.018,4580,3(a),5851,MgAg0.97Sb0.99,MgAg0.97Sb0.99,494,0.000025047,,0.0020956,0.00022812,0.90775,1.1359,39924.9411107119,0.0023085651
71,10.1016/j.actamat.2015.01.018,4580,3(a),5851,MgAg0.97Sb0.99,MgAg0.97Sb0.99,494.5,0.000025,,0.0020964,0.00022798,0.90833,1.1368,40000,0.0023079718
71,10.1016/j.actamat.2015.01.018,4580,3(a),5851,MgAg0.97Sb0.99,MgAg0.97Sb0.99,495,0.000024953,,0.0020973,0.00022785,0.9089,1.1377,40075.3416422875,0.0023075146
71,10.1016/j.actamat.2015.01.018,4580,3(a),5851,MgAg0.97Sb0.99,MgAg0.97Sb0.99,495.5,0.000024906,,0.0020982,0.00022772,0.90947,1.1386,40150.9676383201,0.002307058
71,10.1016/j.actamat.2015.01.018,4580,3(a),5851,MgAg0.97Sb0.99,MgAg0.97Sb0.99,496,0.000024858,,0.0020991,0.00022759,0.91004,1.1395,40228.4978678896,0.0023066019
71,10.1016/j.actamat.2015.01.018,4580,3(a),5851,MgAg0.97Sb0.99,MgAg0.97Sb0.99,496.5,0.000024811,,0.0020999,0.00022746,0.91062,1.1404,40304.7035589053,0.0023060113
71,10.1016/j.actamat.2015.01.018,4580,3(a),5851,MgAg0.97Sb0.99,MgAg0.97Sb0.99,497,0.000024764,,0.0021008,0.00022732,0.91119,1.1413,40381.1985139719,0.0023055565
71,10.1016/j.actamat.2015.01.018,4580,3(a),5851,MgAg0.97Sb0.99,MgAg0.97Sb0.99,497.5,0.000024716,,0.0021017,0.00022719,0.91176,1.1422,40459.6212979447,0.0023051022
71,10.1016/j.actamat.2015.01.018,4580,3(a),5851,MgAg0.97Sb0.99,MgAg0.97Sb0.99,498,0.000024669,,0.0021026,0.00022706,0.91233,1.1431,40536.7059872715,0.0023046485
71,10.1016/j.actamat.2015.01.018,4580,3(a),5851,MgAg0.97Sb0.99,MgAg0.97Sb0.99,498.5,0.000024622,,0.0021034,0.00022693,0.9129,1.144,40614.0849646657,0.0023040859
71,10.1016/j.actamat.2015.01.018,4580,3(a),5851,MgAg0.97Sb0.99,MgAg0.97Sb0.99,499,0.000024574,,0.0021043,0.0002268,0.91348,1.1449,40693.4158053227,0.0023036082
71,10.1016/j.actamat.2015.01.018,4580,3(a),5851,MgAg0.97Sb0.99,MgAg0.97Sb0.99,499.5,0.000024527,,0.0021052,0.00022666,0.91405,1.1458,40771.3947894157,0.0023031563
71,10.1016/j.actamat.2015.01.018,4580,3(a),5851,MgAg0.97Sb0.99,MgAg0.97Sb0.99,500,0.00002448,,0.0021061,0.00022653,0.91462,1.1467,40849.6732026144,0.0023027049
71,10.1016/j.actamat.2015.01.018,4580,3(a),5851,MgAg0.97Sb0.99,MgAg0.97Sb0.99,500.5,0.000024433,,0.0021069,0.0002264,0.91519,1.1476,40928.2527728891,0.0023021449
71,10.1016/j.actamat.2015.01.018,4580,3(a),5851,MgAg0.97Sb0.99,MgAg0.97Sb0.99,501,0.000024385,,0.0021078,0.00022627,0.91577,1.1485,41008.8168956326,0.0023016696
71,10.1016/j.actamat.2015.01.018,4580,3(a),5851,MgAg0.97Sb0.99,MgAg0.97Sb0.99,501.5,0.000024338,,0.0021087,0.00022614,0.91634,1.1494,41088.0105185307,0.0023012201
71,10.1016/j.actamat.2015.01.018,4580,3(a),5851,MgAg0.97Sb0.99,MgAg0.97Sb0.99,502,0.000024291,,0.0021096,0.00022601,0.91691,1.1503,41167.510600634,0.0023007711
71,10.1016/j.actamat.2015.01.018,4580,3(a),5851,MgAg0.97Sb0.99,MgAg0.97Sb0.99,502.5,0.000024243,,0.0021104,0.00022587,0.91748,1.1512,41249.020335767,0.0023002136
71,10.1016/j.actamat.2015.01.018,4580,3(a),5851,MgAg0.97Sb0.99,MgAg0.97Sb0.99,503,0.000024196,,0.0021113,0.00022574,0.91805,1.1521,41329.1453132749,0.0022997658
71,10.1016/j.actamat.2015.01.018,4580,3(a),5851,MgAg0.97Sb0.99,MgAg0.97Sb0.99,503.5,0.000024149,,0.0021122,0.00022561,0.91863,1.153,41409.5821773158,0.0022992935
71,10.1016/j.actamat.2015.01.018,4580,3(a),5851,MgAg0.97Sb0.99,MgAg0.97Sb0.99,504,0.000024101,,0.0021131,0.00022548,0.9192,1.1539,41492.054271607,0.0022988468
71,10.1016/j.actamat.2015.01.018,4580,3(a),5851,MgAg0.97Sb0.99,MgAg0.97Sb0.99,504.5,0.000024054,,0.0021139,0.00022535,0.91977,1.1548,41573.1271306228,0.002298292
71,10.1016/j.actamat.2015.01.018,4580,3(a),5851,MgAg0.97Sb0.99,MgAg0.97Sb0.99,505,0.000024007,,0.0021148,0.00022521,0.92034,1.1557,41654.5174324155,0.0022978464
71,10.1016/j.actamat.2015.01.018,4580,3(a),5851,MgAg0.97Sb0.99,MgAg0.97Sb0.99,505.5,0.000023959,,0.0021157,0.00022508,0.92092,1.1566,41737.969030427,0.0022973765
71,10.1016/j.actamat.2015.01.018,4580,3(a),5851,MgAg0.97Sb0.99,MgAg0.97Sb0.99,506,0.000023912,,0.0021166,0.00022495,0.92149,1.1575,41820.0066912011,0.0022969321
71,10.1016/j.actamat.2015.01.018,4580,3(a),5851,MgAg0.97Sb0.99,MgAg0.97Sb0.99,506.5,0.000023865,,0.0021174,0.00022482,0.92206,1.1584,41902.3674837628,0.0022963798
71,10.1016/j.actamat.2015.01.018,4580,3(a),5851,MgAg0.97Sb0.99,MgAg0.97Sb0.99,507,0.000023818,,0.0021183,0.00022469,0.92263,1.1593,41985.0533210177,0.0022959366
71,10.1016/j.actamat.2015.01.018,4580,3(a),5851,MgAg0.97Sb0.99,MgAg0.97Sb0.99,507.5,0.00002377,,0.0021192,0.00022455,0.92321,1.1602,42069.8359276399,0.0022954691
71,10.1016/j.actamat.2015.01.018,4580,3(a),5851,MgAg0.97Sb0.99,MgAg0.97Sb0.99,508,0.000023723,,0.0021201,0.00022442,0.92378,1.1611,42153.1846731021,0.002295027
71,10.1016/j.actamat.2015.01.018,4580,3(a),5851,MgAg0.97Sb0.99,MgAg0.97Sb0.99,508.5,0.000023676,,0.0021209,0.00022429,0.92435,1.162,42236.8643351917,0.0022944772
71,10.1016/j.actamat.2015.01.018,4580,3(a),5851,MgAg0.97Sb0.99,MgAg0.97Sb0.99,509,0.000023628,,0.0021218,0.00022416,0.92492,1.1629,42322.668020992,0.0022940362
71,10.1016/j.actamat.2015.01.018,4580,3(a),5851,MgAg0.97Sb0.99,MgAg0.97Sb0.99,509.5,0.000023581,,0.0021227,0.00022403,0.92549,1.1638,42407.022602943,0.0022935958
71,10.1016/j.actamat.2015.01.018,4580,3(a),5851,MgAg0.97Sb0.99,MgAg0.97Sb0.99,510,0.000023534,,0.0021236,0.00022389,0.92607,1.1647,42491.7141157474,0.0022931312
71,10.1016/j.actamat.2015.01.018,4580,3(a),5851,MgAg0.97Sb0.99,MgAg0.97Sb0.99,510.5,0.000023486,,0.0021244,0.00022376,0.92664,1.1656,42578.557438474,0.002292584
71,10.1016/j.actamat.2015.01.018,4580,3(a),5851,MgAg0.97Sb0.99,MgAg0.97Sb0.99,511,0.000023439,,0.0021253,0.00022363,0.92721,1.1665,42663.9361747515,0.0022921453
71,10.1016/j.actamat.2015.01.018,4580,3(a),5851,MgAg0.97Sb0.99,MgAg0.97Sb0.99,511.5,0.000023392,,0.0021262,0.0002235,0.92778,1.1674,42749.658002736,0.0022917071
71,10.1016/j.actamat.2015.01.018,4580,3(a),5851,MgAg0.97Sb0.99,MgAg0.97Sb0.99,512,0.000023345,,0.0021271,0.00022337,0.92836,1.1683,42835.7249946455,0.0022912448
71,10.1016/j.actamat.2015.01.018,4580,3(a),5851,MgAg0.97Sb0.99,MgAg0.97Sb0.99,512.5,0.000023297,,0.0021279,0.00022323,0.92893,1.1692,42923.9816285359,0.0022907001
71,10.1016/j.actamat.2015.01.018,4580,3(a),5851,MgAg0.97Sb0.99,MgAg0.97Sb0.99,513,0.00002325,,0.0021288,0.0002231,0.9295,1.1701,43010.752688172,0.0022902636
71,10.1016/j.actamat.2015.01.018,4580,3(a),5851,MgAg0.97Sb0.99,MgAg0.97Sb0.99,513.5,0.000023203,,0.0021297,0.00022297,0.93007,1.171,43097.8752747489,0.0022898276
71,10.1016/j.actamat.2015.01.018,4580,3(a),5851,MgAg0.97Sb0.99,MgAg0.97Sb0.99,514,0.000023155,,0.0021306,0.00022284,0.93064,1.1719,43187.2165838912,0.0022893922
71,10.1016/j.actamat.2015.01.018,4580,3(a),5851,MgAg0.97Sb0.99,MgAg0.97Sb0.99,514.5,0.000023108,,0.0021314,0.00022271,0.93122,1.1728,43275.0562575731,0.0022888254
71,10.1016/j.actamat.2015.01.018,4580,3(a),5851,MgAg0.97Sb0.99,MgAg0.97Sb0.99,515,0.000023061,,0.0021323,0.00022257,0.93179,1.1737,43363.2539785785,0.0022883912
71,10.1016/j.actamat.2015.01.018,4580,3(a),5851,MgAg0.97Sb0.99,MgAg0.97Sb0.99,515.5,0.000023013,,0.0021332,0.00022244,0.93236,1.1746,43453.700082562,0.0022879574
71,10.1016/j.actamat.2015.01.018,4580,3(a),5851,MgAg0.97Sb0.99,MgAg0.97Sb0.99,516,0.000022966,,0.0021341,0.00022231,0.93293,1.1755,43542.6282330401,0.0022875243
71,10.1016/j.actamat.2015.01.018,4580,3(a),5851,MgAg0.97Sb0.99,MgAg0.97Sb0.99,516.5,0.000022919,,0.002135,0.00022218,0.93351,1.1764,43631.9211134866,0.0022870671
71,10.1016/j.actamat.2015.01.018,4580,3(a),5851,MgAg0.97Sb0.99,MgAg0.97Sb0.99,517,0.000022871,,0.0021358,0.00022205,0.93408,1.1774,43723.4926325915,0.0022865279
71,10.1016/j.actamat.2015.01.018,4580,3(a),5851,MgAg0.97Sb0.99,MgAg0.97Sb0.99,517.5,0.000022824,,0.0021367,0.00022192,0.93465,1.1783,43813.529617946,0.0022860964
71,10.1016/j.actamat.2015.01.018,4580,3(a),5851,MgAg0.97Sb0.99,MgAg0.97Sb0.99,518,0.000022777,,0.0021376,0.00022178,0.93522,1.1792,43903.938183255,0.0022856654
71,10.1016/j.actamat.2015.01.018,4580,3(a),5851,MgAg0.97Sb0.99,MgAg0.97Sb0.99,518.5,0.00002273,,0.0021385,0.00022165,0.93579,1.1801,43994.720633524,0.0022852349
71,10.1016/j.actamat.2015.01.018,4580,3(a),5851,MgAg0.97Sb0.99,MgAg0.97Sb0.99,519,0.000022682,,0.0021393,0.00022152,0.93637,1.181,44087.8229433031,0.0022846738
71,10.1016/j.actamat.2015.01.018,4580,3(a),5851,MgAg0.97Sb0.99,MgAg0.97Sb0.99,519.5,0.000022635,,0.0021402,0.00022139,0.93694,1.1819,44179.3682350342,0.0022842445
71,10.1016/j.actamat.2015.01.018,4580,3(a),5851,MgAg0.97Sb0.99,MgAg0.97Sb0.99,520,0.000022588,,0.0021411,0.00022126,0.93751,1.1828,44271.294492651,0.0022838156
71,10.1016/j.actamat.2015.01.018,4580,3(a),5851,MgAg0.97Sb0.99,MgAg0.97Sb0.99,520.5,0.00002254,,0.002142,0.00022112,0.93808,1.1837,44365.5723158829,0.0022833873
71,10.1016/j.actamat.2015.01.018,4580,3(a),5851,MgAg0.97Sb0.99,MgAg0.97Sb0.99,521,0.000022493,,0.0021429,0.00022099,0.93866,1.1846,44458.2759080603,0.0022829352
71,10.1016/j.actamat.2015.01.018,4580,3(a),5851,MgAg0.97Sb0.99,MgAg0.97Sb0.99,521.5,0.000022446,,0.0021437,0.00022086,0.93923,1.1855,44551.3677269892,0.0022824015
71,10.1016/j.actamat.2015.01.018,4580,3(a),5851,MgAg0.97Sb0.99,MgAg0.97Sb0.99,522,0.000022398,,0.0021446,0.00022073,0.9398,1.1864,44646.8434681668,0.0022819749
71,10.1016/j.actamat.2015.01.018,4580,3(a),5851,MgAg0.97Sb0.99,MgAg0.97Sb0.99,522.5,0.000022351,,0.0021455,0.0002206,0.94037,1.1873,44740.7274842289,0.0022815488
71,10.1016/j.actamat.2015.01.018,4580,3(a),5851,MgAg0.97Sb0.99,MgAg0.97Sb0.99,523,0.000022304,,0.0021464,0.00022046,0.94095,1.1882,44835.0071736012,0.0022810989
71,10.1016/j.actamat.2015.01.018,4580,3(a),5851,MgAg0.97Sb0.99,MgAg0.97Sb0.99,523.5,0.000022257,,0.0021472,0.00022033,0.94152,1.1891,44929.6850429078,0.0022805676
71,10.1016/j.actamat.2015.01.018,4580,3(a),5851,MgAg0.97Sb0.99,MgAg0.97Sb0.99,524,0.000022209,,0.0021481,0.0002202,0.94209,1.19,45026.7909406097,0.0022801431
71,10.1016/j.actamat.2015.01.018,4580,3(a),5851,MgAg0.97Sb0.99,MgAg0.97Sb0.99,524.5,0.000022162,,0.002149,0.00022007,0.94266,1.1909,45122.2813825467,0.0022797191
71,10.1016/j.actamat.2015.01.018,4580,3(a),5851,MgAg0.97Sb0.99,MgAg0.97Sb0.99,525,0.000022115,,0.0021499,0.00021994,0.94323,1.1918,45218.1777074384,0.0022792956
71,10.1016/j.actamat.2015.01.018,4580,3(a),5851,MgAg0.97Sb0.99,MgAg0.97Sb0.99,525.5,0.000022067,,0.0021508,0.0002198,0.94381,1.1927,45316.5360039879,0.0022788485
71,10.1016/j.actamat.2015.01.018,4580,3(a),5851,MgAg0.97Sb0.99,MgAg0.97Sb0.99,526,0.00002202,,0.0021516,0.00021967,0.94438,1.1936,45413.2606721163,0.0022783202
71,10.1016/j.actamat.2015.01.018,4580,3(a),5851,MgAg0.97Sb0.99,MgAg0.97Sb0.99,526.5,0.000021973,,0.0021525,0.00021954,0.94495,1.1945,45510.3991262003,0.0022778983
71,10.1016/j.actamat.2015.01.018,4580,3(a),5851,MgAg0.97Sb0.99,MgAg0.97Sb0.99,527,0.000021925,,0.0021534,0.00021941,0.94552,1.1954,45610.0342075257,0.0022774769
71,10.1016/j.actamat.2015.01.018,4580,3(a),5851,MgAg0.97Sb0.99,MgAg0.97Sb0.99,527.5,0.000021878,,0.0021543,0.00021928,0.9461,1.1963,45708.0171862145,0.002277032
71,10.1016/j.actamat.2015.01.018,4580,3(a),5851,MgAg0.97Sb0.99,MgAg0.97Sb0.99,528,0.000021831,,0.0021551,0.00021914,0.94667,1.1972,45806.4220603729,0.0022765061
71,10.1016/j.actamat.2015.01.018,4580,3(a),5851,MgAg0.97Sb0.99,MgAg0.97Sb0.99,528.5,0.000021783,,0.002156,0.00021901,0.94724,1.1981,45907.3589496396,0.0022760863
71,10.1016/j.actamat.2015.01.018,4580,3(a),5851,MgAg0.97Sb0.99,MgAg0.97Sb0.99,529,0.000021736,,0.0021569,0.00021888,0.94781,1.199,46006.6249539934,0.0022756671
71,10.1016/j.actamat.2015.01.018,4580,3(a),5851,MgAg0.97Sb0.99,MgAg0.97Sb0.99,529.5,0.000021689,,0.0021578,0.00021875,0.94838,1.1999,46106.3211766333,0.0022752483
71,10.1016/j.actamat.2015.01.018,4580,3(a),5851,MgAg0.97Sb0.99,MgAg0.97Sb0.99,530,0.000021642,,0.0021587,0.00021862,0.94896,1.2008,46206.4504204787,0.0022748061
71,10.1016/j.actamat.2015.01.018,4580,3(a),5851,MgAg0.97Sb0.99,MgAg0.97Sb0.99,530.5,0.000021594,,0.0021595,0.00021848,0.94953,1.2017,46309.1599518385,0.0022742831
71,10.1016/j.actamat.2015.01.018,4580,3(a),5851,MgAg0.97Sb0.99,MgAg0.97Sb0.99,531,0.000021547,,0.0021604,0.00021835,0.9501,1.2026,46410.1731099457,0.0022738659
71,10.1016/j.actamat.2015.01.018,4580,3(a),5851,MgAg0.97Sb0.99,MgAg0.97Sb0.99,531.5,0.0000215,,0.0021613,0.00021822,0.95067,1.2035,46511.6279069767,0.0022734493
71,10.1016/j.actamat.2015.01.018,4580,3(a),5851,MgAg0.97Sb0.99,MgAg0.97Sb0.99,532,0.000021452,,0.0021622,0.00021809,0.95125,1.2044,46615.7001678165,0.0022730092
71,10.1016/j.actamat.2015.01.018,4580,3(a),5851,MgAg0.97Sb0.99,MgAg0.97Sb0.99,532.5,0.000021405,,0.0021631,0.00021796,0.95182,1.2053,46718.0565288484,0.0022725936
71,10.1016/j.actamat.2015.01.018,4580,3(a),5851,MgAg0.97Sb0.99,MgAg0.97Sb0.99,533,0.000021358,,0.0021639,0.00021782,0.95239,1.2062,46820.8633767207,0.0022720734
71,10.1016/j.actamat.2015.01.018,4580,3(a),5851,MgAg0.97Sb0.99,MgAg0.97Sb0.99,533.5,0.00002131,,0.0021648,0.00021769,0.95296,1.2071,46926.3256687001,0.0022716588
71,10.1016/j.actamat.2015.01.018,4580,3(a),5851,MgAg0.97Sb0.99,MgAg0.97Sb0.99,534,0.000021263,,0.0021657,0.00021756,0.95354,1.208,47030.0522033579,0.0022712209
71,10.1016/j.actamat.2015.01.018,4580,3(a),5851,MgAg0.97Sb0.99,MgAg0.97Sb0.99,534.5,0.000021216,,0.0021666,0.00021743,0.95411,1.2089,47134.2383107089,0.0022708073
71,10.1016/j.actamat.2015.01.018,4580,3(a),5851,MgAg0.97Sb0.99,MgAg0.97Sb0.99,535,0.000021169,,0.0021675,0.0002173,0.95468,1.2098,47238.8870518211,0.0022703943
71,10.1016/j.actamat.2015.01.018,4580,3(a),5851,MgAg0.97Sb0.99,MgAg0.97Sb0.99,535.5,0.000021121,,0.0021683,0.00021717,0.95525,1.2107,47346.243075612,0.002269877
71,10.1016/j.actamat.2015.01.018,4580,3(a),5851,MgAg0.97Sb0.99,MgAg0.97Sb0.99,536,0.000021074,,0.0021692,0.00021703,0.95582,1.2116,47451.8363860681,0.002269465
71,10.1016/j.actamat.2015.01.018,4580,3(a),5851,MgAg0.97Sb0.99,MgAg0.97Sb0.99,536.5,0.000021027,,0.0021701,0.0002169,0.9564,1.2125,47557.901745375,0.0022690297
71,10.1016/j.actamat.2015.01.018,4580,3(a),5851,MgAg0.97Sb0.99,MgAg0.97Sb0.99,537,0.000020979,,0.002171,0.00021677,0.95697,1.2134,47666.714333381,0.0022686187
71,10.1016/j.actamat.2015.01.018,4580,3(a),5851,MgAg0.97Sb0.99,MgAg0.97Sb0.99,537.5,0.000020932,,0.0021719,0.00021664,0.95754,1.2143,47773.7435505446,0.0022682081
71,10.1016/j.actamat.2015.01.018,4580,3(a),5851,MgAg0.97Sb0.99,MgAg0.97Sb0.99,538,0.000020885,,0.0021727,0.00021651,0.95811,1.2152,47881.2544888676,0.0022676937
71,10.1016/j.actamat.2015.01.018,4580,3(a),5851,MgAg0.97Sb0.99,MgAg0.97Sb0.99,538.5,0.000020837,,0.0021736,0.00021637,0.95869,1.2161,47991.5534865864,0.0022672605
71,10.1016/j.actamat.2015.01.018,4580,3(a),5851,MgAg0.97Sb0.99,MgAg0.97Sb0.99,539,0.00002079,,0.0021745,0.00021624,0.95926,1.217,48100.0481000481,0.0022668515
71,10.1016/j.actamat.2015.01.018,4580,3(a),5851,MgAg0.97Sb0.99,MgAg0.97Sb0.99,539.5,0.000020743,,0.0021754,0.00021611,0.95983,1.2179,48209.0343730415,0.002266443
71,10.1016/j.actamat.2015.01.018,4580,3(a),5851,MgAg0.97Sb0.99,MgAg0.97Sb0.99,540,0.000020695,,0.0021763,0.00021598,0.9604,1.2188,48320.8504469679,0.002266035
71,10.1016/j.actamat.2015.01.018,4580,3(a),5851,MgAg0.97Sb0.99,MgAg0.97Sb0.99,540.5,0.000020648,,0.0021771,0.00021585,0.96097,1.2197,48430.8407593956,0.0022655234
71,10.1016/j.actamat.2015.01.018,4580,3(a),5851,MgAg0.97Sb0.99,MgAg0.97Sb0.99,541,0.000020601,,0.002178,0.00021571,0.96155,1.2206,48541.3329450027,0.0022650928
71,10.1016/j.actamat.2015.01.018,4580,3(a),5851,MgAg0.97Sb0.99,MgAg0.97Sb0.99,541.5,0.000020554,,0.0021789,0.00021558,0.96212,1.2215,48652.3304466284,0.0022646863
71,10.1016/j.actamat.2015.01.018,4580,3(a),5851,MgAg0.97Sb0.99,MgAg0.97Sb0.99,542,0.000020506,,0.0021798,0.00021545,0.96269,1.2224,48766.2147664098,0.0022642803
71,10.1016/j.actamat.2015.01.018,4580,3(a),5851,MgAg0.97Sb0.99,MgAg0.97Sb0.99,542.5,0.000020459,,0.0021807,0.00021532,0.96326,1.2233,48878.244293465,0.0022638748
71,10.1016/j.actamat.2015.01.018,4580,3(a),5851,MgAg0.97Sb0.99,MgAg0.97Sb0.99,543,0.000020412,,0.0021816,0.00021519,0.96384,1.2242,48990.7897315305,0.0022634462
71,10.1016/j.actamat.2015.01.018,4580,3(a),5851,MgAg0.97Sb0.99,MgAg0.97Sb0.99,543.5,0.000020364,,0.0021824,0.00021505,0.96441,1.2251,49106.2659595364,0.002262938