sid,DOI,figureid,fignum,sampleid,samplename,composition,Temperature,Carrier mobility,Electrical conductivity,Seebeck coefficient,Thermal conductivity,ZT,content,Electrical resistivity,Power factor,Figure of merit Z
27925,10.1002/advs.201600035,25414,1c,31636,FeNbSb,FeNbSb,300,,,,,0.02629,,,,
27925,10.1002/advs.201600035,25414,1c,31636,FeNbSb,FeNbSb,350,,,,,0.030787,,,,
27925,10.1002/advs.201600035,25414,1c,31636,FeNbSb,FeNbSb,400,,,,,0.035284,,,,
27925,10.1002/advs.201600035,25414,1c,31636,FeNbSb,FeNbSb,450,,,,,0.039781,,,,
27925,10.1002/advs.201600035,25414,1c,31636,FeNbSb,FeNbSb,500,,,,,0.044278,,,,
27925,10.1002/advs.201600035,25414,1c,31636,FeNbSb,FeNbSb,550,,,,,0.048776,,,,
27925,10.1002/advs.201600035,25414,1c,31636,FeNbSb,FeNbSb,600,,,,,0.053273,,,,
27925,10.1002/advs.201600035,25414,1c,31636,FeNbSb,FeNbSb,650,,,,,0.05777,,,,
27925,10.1002/advs.201600035,25414,1c,31636,FeNbSb,FeNbSb,700,,,,,0.062267,,,,
27925,10.1002/advs.201600035,25414,1c,31636,FeNbSb,FeNbSb,750,,,,,0.066764,,,,
27925,10.1002/advs.201600035,25414,1c,31636,FeNbSb,FeNbSb,800,,,,,0.071261,,,,
27925,10.1002/advs.201600035,25414,1c,31636,FeNbSb,FeNbSb,850,,,,,0.075758,,,,
27925,10.1002/advs.201600035,25414,1c,31636,FeNbSb,FeNbSb,900,,,,,0.080256,,,,
27925,10.1002/advs.201600035,25414,1c,31636,FeNbSb,FeNbSb,950,,,,,0.084753,,,,
27925,10.1002/advs.201600035,25414,1c,31636,FeNbSb,FeNbSb,1000,,,,,0.08925,,,,
27925,10.1002/advs.201600035,25414,1c,31636,FeNbSb,FeNbSb,1050,,,,,0.093747,,,,
27925,10.1002/advs.201600035,25414,1c,31636,FeNbSb,FeNbSb,1100,,,,,0.098244,,,,
27925,10.1002/advs.201600035,25414,1c,31636,FeNbSb,FeNbSb,1150,,,,,0.10274,,,,
27925,10.1002/advs.201600035,25414,1c,31637,FeNb0.8Ti0.2Sb,FeNb0.8Ti0.2Sb,300,,,,,0.080798,,,,
27925,10.1002/advs.201600035,25414,1c,31637,FeNb0.8Ti0.2Sb,FeNb0.8Ti0.2Sb,350,,,,,0.13388,,,,
27925,10.1002/advs.201600035,25414,1c,31637,FeNb0.8Ti0.2Sb,FeNb0.8Ti0.2Sb,400,,,,,0.18697,,,,
27925,10.1002/advs.201600035,25414,1c,31637,FeNb0.8Ti0.2Sb,FeNb0.8Ti0.2Sb,450,,,,,0.24005,,,,
27925,10.1002/advs.201600035,25414,1c,31637,FeNb0.8Ti0.2Sb,FeNb0.8Ti0.2Sb,500,,,,,0.29314,,,,
27925,10.1002/advs.201600035,25414,1c,31637,FeNb0.8Ti0.2Sb,FeNb0.8Ti0.2Sb,550,,,,,0.34622,,,,
27925,10.1002/advs.201600035,25414,1c,31637,FeNb0.8Ti0.2Sb,FeNb0.8Ti0.2Sb,600,,,,,0.39931,,,,
27925,10.1002/advs.201600035,25414,1c,31637,FeNb0.8Ti0.2Sb,FeNb0.8Ti0.2Sb,650,,,,,0.45239,,,,
27925,10.1002/advs.201600035,25414,1c,31637,FeNb0.8Ti0.2Sb,FeNb0.8Ti0.2Sb,700,,,,,0.50547,,,,
27925,10.1002/advs.201600035,25414,1c,31637,FeNb0.8Ti0.2Sb,FeNb0.8Ti0.2Sb,750,,,,,0.55856,,,,
27925,10.1002/advs.201600035,25414,1c,31637,FeNb0.8Ti0.2Sb,FeNb0.8Ti0.2Sb,800,,,,,0.61164,,,,
27925,10.1002/advs.201600035,25414,1c,31637,FeNb0.8Ti0.2Sb,FeNb0.8Ti0.2Sb,850,,,,,0.66473,,,,
27925,10.1002/advs.201600035,25414,1c,31637,FeNb0.8Ti0.2Sb,FeNb0.8Ti0.2Sb,900,,,,,0.71781,,,,
27925,10.1002/advs.201600035,25414,1c,31637,FeNb0.8Ti0.2Sb,FeNb0.8Ti0.2Sb,950,,,,,0.7709,,,,
27925,10.1002/advs.201600035,25414,1c,31637,FeNb0.8Ti0.2Sb,FeNb0.8Ti0.2Sb,1000,,,,,0.82398,,,,
27925,10.1002/advs.201600035,25414,1c,31637,FeNb0.8Ti0.2Sb,FeNb0.8Ti0.2Sb,1050,,,,,0.87707,,,,
27925,10.1002/advs.201600035,25414,1c,31637,FeNb0.8Ti0.2Sb,FeNb0.8Ti0.2Sb,1100,,,,,0.93015,,,,
27925,10.1002/advs.201600035,25414,1c,31638,FeNb0.8Ti0.2Sb-BM,FeNb0.8Ti0.2Sb-BM,300,,,,,0.1056,,,,
27925,10.1002/advs.201600035,25414,1c,31638,FeNb0.8Ti0.2Sb-BM,FeNb0.8Ti0.2Sb-BM,350,,,,,0.17322,,,,
27925,10.1002/advs.201600035,25414,1c,31638,FeNb0.8Ti0.2Sb-BM,FeNb0.8Ti0.2Sb-BM,400,,,,,0.24084,,,,
27925,10.1002/advs.201600035,25414,1c,31638,FeNb0.8Ti0.2Sb-BM,FeNb0.8Ti0.2Sb-BM,450,,,,,0.30846,,,,
27925,10.1002/advs.201600035,25414,1c,31638,FeNb0.8Ti0.2Sb-BM,FeNb0.8Ti0.2Sb-BM,500,,,,,0.37608,,,,
27925,10.1002/advs.201600035,25414,1c,31638,FeNb0.8Ti0.2Sb-BM,FeNb0.8Ti0.2Sb-BM,550,,,,,0.4437,,,,
27925,10.1002/advs.201600035,25414,1c,31638,FeNb0.8Ti0.2Sb-BM,FeNb0.8Ti0.2Sb-BM,600,,,,,0.51132,,,,
27925,10.1002/advs.201600035,25414,1c,31638,FeNb0.8Ti0.2Sb-BM,FeNb0.8Ti0.2Sb-BM,650,,,,,0.57894,,,,
27925,10.1002/advs.201600035,25414,1c,31638,FeNb0.8Ti0.2Sb-BM,FeNb0.8Ti0.2Sb-BM,700,,,,,0.64656,,,,
27925,10.1002/advs.201600035,25414,1c,31638,FeNb0.8Ti0.2Sb-BM,FeNb0.8Ti0.2Sb-BM,750,,,,,0.71418,,,,
27925,10.1002/advs.201600035,25414,1c,31638,FeNb0.8Ti0.2Sb-BM,FeNb0.8Ti0.2Sb-BM,800,,,,,0.7818,,,,
27925,10.1002/advs.201600035,25414,1c,31638,FeNb0.8Ti0.2Sb-BM,FeNb0.8Ti0.2Sb-BM,850,,,,,0.84942,,,,
27925,10.1002/advs.201600035,25414,1c,31638,FeNb0.8Ti0.2Sb-BM,FeNb0.8Ti0.2Sb-BM,900,,,,,0.91704,,,,
27925,10.1002/advs.201600035,25414,1c,31638,FeNb0.8Ti0.2Sb-BM,FeNb0.8Ti0.2Sb-BM,950,,,,,0.98466,,,,
27925,10.1002/advs.201600035,25414,1c,31638,FeNb0.8Ti0.2Sb-BM,FeNb0.8Ti0.2Sb-BM,1000,,,,,1.0523,,,,
27925,10.1002/advs.201600035,25414,1c,31638,FeNb0.8Ti0.2Sb-BM,FeNb0.8Ti0.2Sb-BM,1050,,,,,1.1199,,,,
27925,10.1002/advs.201600035,25414,1c,31638,FeNb0.8Ti0.2Sb-BM,FeNb0.8Ti0.2Sb-BM,1100,,,,,1.1875,,,,
27925,10.1002/advs.201600035,25414,1c,31639,Fe1.05Nb0.75Ti0.25Sb-BM,Fe1.05Nb0.75Ti0.25Sb-BM,350,,,,,0.17992,,,,
27925,10.1002/advs.201600035,25414,1c,31639,Fe1.05Nb0.75Ti0.25Sb-BM,Fe1.05Nb0.75Ti0.25Sb-BM,400,,,,,0.25651,,,,
27925,10.1002/advs.201600035,25414,1c,31639,Fe1.05Nb0.75Ti0.25Sb-BM,Fe1.05Nb0.75Ti0.25Sb-BM,450,,,,,0.3331,,,,
27925,10.1002/advs.201600035,25414,1c,31639,Fe1.05Nb0.75Ti0.25Sb-BM,Fe1.05Nb0.75Ti0.25Sb-BM,500,,,,,0.4097,,,,
27925,10.1002/advs.201600035,25414,1c,31639,Fe1.05Nb0.75Ti0.25Sb-BM,Fe1.05Nb0.75Ti0.25Sb-BM,550,,,,,0.48629,,,,
27925,10.1002/advs.201600035,25414,1c,31639,Fe1.05Nb0.75Ti0.25Sb-BM,Fe1.05Nb0.75Ti0.25Sb-BM,600,,,,,0.56288,,,,
27925,10.1002/advs.201600035,25414,1c,31639,Fe1.05Nb0.75Ti0.25Sb-BM,Fe1.05Nb0.75Ti0.25Sb-BM,650,,,,,0.63947,,,,
27925,10.1002/advs.201600035,25414,1c,31639,Fe1.05Nb0.75Ti0.25Sb-BM,Fe1.05Nb0.75Ti0.25Sb-BM,700,,,,,0.71606,,,,
27925,10.1002/advs.201600035,25414,1c,31639,Fe1.05Nb0.75Ti0.25Sb-BM,Fe1.05Nb0.75Ti0.25Sb-BM,750,,,,,0.79265,,,,
27925,10.1002/advs.201600035,25414,1c,31639,Fe1.05Nb0.75Ti0.25Sb-BM,Fe1.05Nb0.75Ti0.25Sb-BM,800,,,,,0.86924,,,,
27925,10.1002/advs.201600035,25414,1c,31639,Fe1.05Nb0.75Ti0.25Sb-BM,Fe1.05Nb0.75Ti0.25Sb-BM,850,,,,,0.94583,,,,
27925,10.1002/advs.201600035,25414,1c,31639,Fe1.05Nb0.75Ti0.25Sb-BM,Fe1.05Nb0.75Ti0.25Sb-BM,900,,,,,1.0224,,,,
27925,10.1002/advs.201600035,25414,1c,31639,Fe1.05Nb0.75Ti0.25Sb-BM,Fe1.05Nb0.75Ti0.25Sb-BM,950,,,,,1.099,,,,
27925,10.1002/advs.201600035,25414,1c,31639,Fe1.05Nb0.75Ti0.25Sb-BM,Fe1.05Nb0.75Ti0.25Sb-BM,1000,,,,,1.1756,,,,
27925,10.1002/advs.201600035,25414,1c,31639,Fe1.05Nb0.75Ti0.25Sb-BM,Fe1.05Nb0.75Ti0.25Sb-BM,1050,,,,,1.2522,,,,
27925,10.1002/advs.201600035,25414,1c,31639,Fe1.05Nb0.75Ti0.25Sb-BM,Fe1.05Nb0.75Ti0.25Sb-BM,1100,,,,,1.3288,,,,
27925,10.1002/advs.201600035,25414,1c,31639,Fe1.05Nb0.75Ti0.25Sb-BM,Fe1.05Nb0.75Ti0.25Sb-BM,1150,,,,,1.4054,,,,
27925,10.1002/advs.201600035,25415,3a,31640,Fe1+xNb0.75Ti0.25Sb_ x=0.00,FeNb0.75Ti0.25Sb,350,,466860,0.000080506,7.1311,0.17632,,0.000002142,0.0030258205,0.0004243133
27925,10.1002/advs.201600035,25415,3a,31640,Fe1+xNb0.75Ti0.25Sb_ x=0.00,FeNb0.75Ti0.25Sb,400,,441140,0.000088438,6.9538,0.24503,,0.0000022669,0.0034502794,0.0004961718
27925,10.1002/advs.201600035,25415,3a,31640,Fe1+xNb0.75Ti0.25Sb_ x=0.00,FeNb0.75Ti0.25Sb,450,,415420,0.000096371,6.7764,0.31375,,0.0000024072,0.0038581591,0.0005693523
27925,10.1002/advs.201600035,25415,3a,31640,Fe1+xNb0.75Ti0.25Sb_ x=0.00,FeNb0.75Ti0.25Sb,500,,389700,0.0001043,6.5991,0.38247,,0.0000025661,0.0042393476,0.000642413
27925,10.1002/advs.201600035,25415,3a,31640,Fe1+xNb0.75Ti0.25Sb_ x=0.00,FeNb0.75Ti0.25Sb,550,,363970,0.00011224,6.4217,0.45119,,0.0000027475,0.0045852277,0.0007140208
27925,10.1002/advs.201600035,25415,3a,31640,Fe1+xNb0.75Ti0.25Sb_ x=0.00,FeNb0.75Ti0.25Sb,600,,338250,0.00012017,6.2444,0.51991,,0.0000029564,0.0048846104,0.0007822385
27925,10.1002/advs.201600035,25415,3a,31640,Fe1+xNb0.75Ti0.25Sb_ x=0.00,FeNb0.75Ti0.25Sb,650,,312530,0.0001281,6.067,0.58862,,0.0000031997,0.0051284954,0.0008453099
27925,10.1002/advs.201600035,25415,3a,31640,Fe1+xNb0.75Ti0.25Sb_ x=0.00,FeNb0.75Ti0.25Sb,700,,286800,0.00013603,5.8897,0.65734,,0.0000034868,0.0053069933,0.0009010634
27925,10.1002/advs.201600035,25415,3a,31640,Fe1+xNb0.75Ti0.25Sb_ x=0.00,FeNb0.75Ti0.25Sb,750,,261080,0.00014397,5.7123,0.72606,,0.0000038302,0.0054114994,0.0009473416
27925,10.1002/advs.201600035,25415,3a,31640,Fe1+xNb0.75Ti0.25Sb_ x=0.00,FeNb0.75Ti0.25Sb,800,,235360,0.0001519,5.535,0.79478,,0.0000042488,0.0054306048,0.0009811391
27925,10.1002/advs.201600035,25415,3a,31640,Fe1+xNb0.75Ti0.25Sb_ x=0.00,FeNb0.75Ti0.25Sb,850,,209640,0.00015983,5.3576,0.8635,,0.0000047701,0.0053553856,0.0009995867
27925,10.1002/advs.201600035,25415,3a,31640,Fe1+xNb0.75Ti0.25Sb_ x=0.00,FeNb0.75Ti0.25Sb,900,,183910,0.00016776,5.1803,0.93221,,0.0000054374,0.0051758559,0.0009991421
27925,10.1002/advs.201600035,25415,3a,31640,Fe1+xNb0.75Ti0.25Sb_ x=0.00,FeNb0.75Ti0.25Sb,950,,158190,0.0001757,5.0029,1.0009,,0.0000063215,0.0048834028,0.0009761144
27925,10.1002/advs.201600035,25415,3a,31640,Fe1+xNb0.75Ti0.25Sb_ x=0.00,FeNb0.75Ti0.25Sb,1000,,132470,0.00018363,4.8256,1.0696,,0.0000075489,0.0044668853,0.0009256642
27925,10.1002/advs.201600035,25415,3a,31640,Fe1+xNb0.75Ti0.25Sb_ x=0.00,FeNb0.75Ti0.25Sb,1050,,106750,0.00019156,4.6482,1.1384,,0.0000093677,0.0039172162,0.0008427383
27925,10.1002/advs.201600035,25415,3a,31640,Fe1+xNb0.75Ti0.25Sb_ x=0.00,FeNb0.75Ti0.25Sb,1100,,81023,0.00019949,4.4709,1.2071,,0.0000123422,0.0032244124,0.0007211998
27925,10.1002/advs.201600035,25415,3a,31640,Fe1+xNb0.75Ti0.25Sb_ x=0.00,FeNb0.75Ti0.25Sb,1150,,55300,,,1.2758,,0.0000180832,,
27925,10.1002/advs.201600035,25416,3c,31640,Fe1+xNb0.75Ti0.25Sb_ x=0.00,FeNb0.75Ti0.25Sb,300,,,0.000072573,7.3085,0.1076,,,,
27925,10.1002/advs.201600035,25415,3a,31641,Fe1+xNb0.75Ti0.25Sb_ x=0.03,Fe1.03Nb0.75Ti0.25Sb,350,,376860,0.00008406,5.7945,0.15909,,0.0000026535,0.0026629243,0.0004595607
27925,10.1002/advs.201600035,25415,3a,31641,Fe1+xNb0.75Ti0.25Sb_ x=0.03,Fe1.03Nb0.75Ti0.25Sb,400,,357130,0.000094613,5.682,0.22858,,0.0000028001,0.003196892,0.000562635
27925,10.1002/advs.201600035,25415,3a,31641,Fe1+xNb0.75Ti0.25Sb_ x=0.03,Fe1.03Nb0.75Ti0.25Sb,450,,337400,0.00010502,5.5695,0.29807,,0.0000029638,0.0037212522,0.0006681483
27925,10.1002/advs.201600035,25415,3a,31641,Fe1+xNb0.75Ti0.25Sb_ x=0.03,Fe1.03Nb0.75Ti0.25Sb,500,,317670,0.00011522,5.457,0.36757,,0.0000031479,0.0042172752,0.0007728194
27925,10.1002/advs.201600035,25415,3a,31641,Fe1+xNb0.75Ti0.25Sb_ x=0.03,Fe1.03Nb0.75Ti0.25Sb,550,,297930,0.00012517,5.3444,0.43706,,0.0000033565,0.0046678269,0.0008734052
27925,10.1002/advs.201600035,25415,3a,31641,Fe1+xNb0.75Ti0.25Sb_ x=0.03,Fe1.03Nb0.75Ti0.25Sb,600,,278200,0.0001348,5.2319,0.50655,,0.0000035945,0.0050551833,0.0009662232
27925,10.1002/advs.201600035,25415,3a,31641,Fe1+xNb0.75Ti0.25Sb_ x=0.03,Fe1.03Nb0.75Ti0.25Sb,650,,258470,0.00014406,5.1194,0.57604,,0.0000038689,0.0053641012,0.0010477988
27925,10.1002/advs.201600035,25415,3a,31641,Fe1+xNb0.75Ti0.25Sb_ x=0.03,Fe1.03Nb0.75Ti0.25Sb,700,,238740,0.00015291,5.0069,0.64553,,0.0000041887,0.0055820917,0.0011148798
27925,10.1002/advs.201600035,25415,3a,31641,Fe1+xNb0.75Ti0.25Sb_ x=0.03,Fe1.03Nb0.75Ti0.25Sb,750,,219010,0.00016127,4.8944,0.71503,,0.000004566,0.0056960149,0.0011637821
27925,10.1002/advs.201600035,25415,3a,31641,Fe1+xNb0.75Ti0.25Sb_ x=0.03,Fe1.03Nb0.75Ti0.25Sb,800,,199270,0.00016911,4.7819,0.78452,,0.0000050183,0.0056987617,0.0011917359
27925,10.1002/advs.201600035,25415,3a,31641,Fe1+xNb0.75Ti0.25Sb_ x=0.03,Fe1.03Nb0.75Ti0.25Sb,850,,179540,0.00017637,4.6694,0.85401,,0.0000055698,0.0055848389,0.0011960507
27925,10.1002/advs.201600035,25415,3a,31641,Fe1+xNb0.75Ti0.25Sb_ x=0.03,Fe1.03Nb0.75Ti0.25Sb,900,,159810,0.00018299,4.5569,0.9235,,0.0000062574,0.0053512922,0.0011743273
27925,10.1002/advs.201600035,25415,3a,31641,Fe1+xNb0.75Ti0.25Sb_ x=0.03,Fe1.03Nb0.75Ti0.25Sb,950,,140080,0.00018892,4.4444,0.99299,,0.0000071388,0.0049995626,0.0011249128
27925,10.1002/advs.201600035,25415,3a,31641,Fe1+xNb0.75Ti0.25Sb_ x=0.03,Fe1.03Nb0.75Ti0.25Sb,1000,,120350,0.00019411,4.3319,1.0625,,0.0000083091,0.0045346306,0.0010467995
27925,10.1002/advs.201600035,25415,3a,31641,Fe1+xNb0.75Ti0.25Sb_ x=0.03,Fe1.03Nb0.75Ti0.25Sb,1050,,100610,0.0001985,4.2194,1.132,,0.0000099394,0.0039642604,0.0009395318
27925,10.1002/advs.201600035,25415,3a,31641,Fe1+xNb0.75Ti0.25Sb_ x=0.03,Fe1.03Nb0.75Ti0.25Sb,1100,,80882,0.00020204,4.1069,1.2015,,0.0000123637,0.0033016163,0.0008039193
27925,10.1002/advs.201600035,25416,3c,31641,Fe1+xNb0.75Ti0.25Sb_ x=0.03,Fe1.03Nb0.75Ti0.25Sb,1150,,,0.00020469,3.9944,1.271,,,,
27925,10.1002/advs.201600035,25415,3a,31642,Fe1+xNb0.75Ti0.25Sb_ x=0.05,Fe1.05Nb0.75Ti0.25Sb,350,,326120,0.000096053,5.1675,0.17446,,0.0000030664,0.0030088414,0.0005822625
27925,10.1002/advs.201600035,25415,3a,31642,Fe1+xNb0.75Ti0.25Sb_ x=0.05,Fe1.05Nb0.75Ti0.25Sb,400,,309770,0.00010376,5.0682,0.25121,,0.0000032282,0.0033350264,0.0006580298
27925,10.1002/advs.201600035,25415,3a,31642,Fe1+xNb0.75Ti0.25Sb_ x=0.05,Fe1.05Nb0.75Ti0.25Sb,450,,293430,0.00011147,4.9689,0.32796,,0.000003408,0.0036460323,0.0007337705
27925,10.1002/advs.201600035,25415,3a,31642,Fe1+xNb0.75Ti0.25Sb_ x=0.05,Fe1.05Nb0.75Ti0.25Sb,500,,277080,0.00011918,4.8695,0.40472,,0.0000036091,0.003935609,0.0008082162
27925,10.1002/advs.201600035,25415,3a,31642,Fe1+xNb0.75Ti0.25Sb_ x=0.05,Fe1.05Nb0.75Ti0.25Sb,550,,260740,0.00012688,4.7702,0.48147,,0.0000038352,0.0041975319,0.0008799488
27925,10.1002/advs.201600035,25415,3a,31642,Fe1+xNb0.75Ti0.25Sb_ x=0.05,Fe1.05Nb0.75Ti0.25Sb,600,,244390,0.00013459,4.6709,0.55823,,0.0000040918,0.0044269949,0.000947782
27925,10.1002/advs.201600035,25415,3a,31642,Fe1+xNb0.75Ti0.25Sb_ x=0.05,Fe1.05Nb0.75Ti0.25Sb,650,,228050,0.0001423,4.5716,0.63498,,0.000004385,0.0046178506,0.0010101169
27925,10.1002/advs.201600035,25415,3a,31642,Fe1+xNb0.75Ti0.25Sb_ x=0.05,Fe1.05Nb0.75Ti0.25Sb,700,,211700,0.00015001,4.4722,0.71173,,0.0000047237,0.0047638851,0.0010652218
27925,10.1002/advs.201600035,25415,3a,31642,Fe1+xNb0.75Ti0.25Sb_ x=0.05,Fe1.05Nb0.75Ti0.25Sb,750,,195360,0.00015772,4.3729,0.78849,,0.0000051188,0.0048596969,0.0011113213
27925,10.1002/advs.201600035,25415,3a,31642,Fe1+xNb0.75Ti0.25Sb_ x=0.05,Fe1.05Nb0.75Ti0.25Sb,800,,179010,0.00016542,4.2736,0.86524,,0.0000055863,0.0048983896,0.0011461975
27925,10.1002/advs.201600035,25415,3a,31642,Fe1+xNb0.75Ti0.25Sb_ x=0.05,Fe1.05Nb0.75Ti0.25Sb,850,,162670,0.00017313,4.1742,0.942,,0.0000061474,0.0048758701,0.0011680969
27925,10.1002/advs.201600035,25415,3a,31642,Fe1+xNb0.75Ti0.25Sb_ x=0.05,Fe1.05Nb0.75Ti0.25Sb,900,,146320,0.00018084,4.0749,1.0188,,0.0000068343,0.0047851184,0.001174291
27925,10.1002/advs.201600035,25415,3a,31642,Fe1+xNb0.75Ti0.25Sb_ x=0.05,Fe1.05Nb0.75Ti0.25Sb,950,,129980,0.00018855,3.9756,1.0955,,0.0000076935,0.0046209323,0.0011623232
27925,10.1002/advs.201600035,25415,3a,31642,Fe1+xNb0.75Ti0.25Sb_ x=0.05,Fe1.05Nb0.75Ti0.25Sb,1000,,113630,0.00019626,3.8763,1.1723,,0.0000088005,0.0043767989,0.0011291177
27925,10.1002/advs.201600035,25415,3a,31642,Fe1+xNb0.75Ti0.25Sb_ x=0.05,Fe1.05Nb0.75Ti0.25Sb,1050,,97289,0.00020396,3.7769,1.249,,0.0000102787,0.0040471914,0.0010715644
27925,10.1002/advs.201600035,25415,3a,31642,Fe1+xNb0.75Ti0.25Sb_ x=0.05,Fe1.05Nb0.75Ti0.25Sb,1100,,80944,0.00021167,3.6776,1.3258,,0.0000123542,0.0036266303,0.0009861405
27925,10.1002/advs.201600035,25415,3a,31642,Fe1+xNb0.75Ti0.25Sb_ x=0.05,Fe1.05Nb0.75Ti0.25Sb,1150,,64599,0.00021938,3.5783,1.4025,,0.0000154801,0.0031089938,0.0008688466
27925,10.1002/advs.201600035,25415,3a,31643,Fe1+xNb0.75Ti0.25Sb_ x=0.08,Fe1.08Nb0.75Ti0.25Sb,350,,285910,0.00010333,5.0091,0.18206,,0.0000034976,0.0030526865,0.0006094281
27925,10.1002/advs.201600035,25415,3a,31643,Fe1+xNb0.75Ti0.25Sb_ x=0.08,Fe1.08Nb0.75Ti0.25Sb,400,,272190,0.00011093,4.9194,0.25613,,0.0000036739,0.0033494245,0.0006808604
27925,10.1002/advs.201600035,25415,3a,31643,Fe1+xNb0.75Ti0.25Sb_ x=0.08,Fe1.08Nb0.75Ti0.25Sb,450,,258480,0.00011853,4.8296,0.33021,,0.0000038688,0.0036314788,0.0007519212
27925,10.1002/advs.201600035,25415,3a,31643,Fe1+xNb0.75Ti0.25Sb_ x=0.08,Fe1.08Nb0.75Ti0.25Sb,500,,244770,0.00012613,4.7399,0.40428,,0.0000040855,0.0038939913,0.0008215345
27925,10.1002/advs.201600035,25415,3a,31643,Fe1+xNb0.75Ti0.25Sb_ x=0.08,Fe1.08Nb0.75Ti0.25Sb,550,,231060,0.00013373,4.6501,0.47836,,0.0000043279,0.0041322107,0.0008886284
27925,10.1002/advs.201600035,25415,3a,31643,Fe1+xNb0.75Ti0.25Sb_ x=0.08,Fe1.08Nb0.75Ti0.25Sb,600,,217350,0.00014133,4.5604,0.55243,,0.0000046009,0.0043413856,0.0009519747
27925,10.1002/advs.201600035,25415,3a,31643,Fe1+xNb0.75Ti0.25Sb_ x=0.08,Fe1.08Nb0.75Ti0.25Sb,650,,203640,0.00014894,4.4706,0.62651,,0.0000049106,0.0045173713,0.001010462
27925,10.1002/advs.201600035,25415,3a,31643,Fe1+xNb0.75Ti0.25Sb_ x=0.08,Fe1.08Nb0.75Ti0.25Sb,700,,189930,0.00015654,4.3808,0.70058,,0.0000052651,0.0046541913,0.0010624067
27925,10.1002/advs.201600035,25415,3a,31643,Fe1+xNb0.75Ti0.25Sb_ x=0.08,Fe1.08Nb0.75Ti0.25Sb,750,,176220,0.00016414,4.2911,0.77465,,0.0000056747,0.0047477086,0.0011064083
27925,10.1002/advs.201600035,25415,3a,31643,Fe1+xNb0.75Ti0.25Sb_ x=0.08,Fe1.08Nb0.75Ti0.25Sb,800,,162510,0.00017174,4.2013,0.84873,,0.0000061535,0.0047931719,0.0011408783
27925,10.1002/advs.201600035,25415,3a,31643,Fe1+xNb0.75Ti0.25Sb_ x=0.08,Fe1.08Nb0.75Ti0.25Sb,850,,148800,0.00017934,4.1116,0.9228,,0.0000067204,0.0047858299,0.0011639824
27925,10.1002/advs.201600035,25415,3a,31643,Fe1+xNb0.75Ti0.25Sb_ x=0.08,Fe1.08Nb0.75Ti0.25Sb,900,,135090,0.00018694,4.0218,0.99688,,0.0000074025,0.0047209313,0.0011738354
27925,10.1002/advs.201600035,25415,3a,31643,Fe1+xNb0.75Ti0.25Sb_ x=0.08,Fe1.08Nb0.75Ti0.25Sb,950,,121380,0.00019454,3.9321,1.071,,0.0000082386,0.0045937246,0.0011682624
27925,10.1002/advs.201600035,25415,3a,31643,Fe1+xNb0.75Ti0.25Sb_ x=0.08,Fe1.08Nb0.75Ti0.25Sb,1000,,107670,0.00020214,3.8423,1.145,,0.0000092876,0.0043994586,0.0011450065
27925,10.1002/advs.201600035,25415,3a,31643,Fe1+xNb0.75Ti0.25Sb_ x=0.08,Fe1.08Nb0.75Ti0.25Sb,1050,,93958,0.00020974,3.7525,1.2191,,0.0000106431,0.0041332939,0.0011014774
27925,10.1002/advs.201600035,25415,3a,31643,Fe1+xNb0.75Ti0.25Sb_ x=0.08,Fe1.08Nb0.75Ti0.25Sb,1100,,80247,0.00021734,3.6628,1.2932,,0.0000124615,0.0037906015,0.0010348918
27925,10.1002/advs.201600035,25416,3c,31643,Fe1+xNb0.75Ti0.25Sb_ x=0.08,Fe1.08Nb0.75Ti0.25Sb,300,,,0.000095729,5.0989,0.10799,,,,
27925,10.1002/advs.201600035,25417,4a,31643,Fe1+xNb0.75Ti0.25Sb_ x=0.08,Fe1.08Nb0.75Ti0.25Sb,1150,,,,3.573,1.3672,,,,
27925,10.1002/advs.201600035,26678,3b,33458,Fe 1+x Nb 0.75 Ti 0.25 Sb_ 300k,undefined,,0.0013223,,,,,0.005,,,
27925,10.1002/advs.201600035,26678,3b,33458,Fe 1+x Nb 0.75 Ti 0.25 Sb_ 300k,undefined,,0.0013016,,,,,0.01,,,
27925,10.1002/advs.201600035,26678,3b,33458,Fe 1+x Nb 0.75 Ti 0.25 Sb_ 300k,undefined,,0.0012809,,,,,0.015,,,
27925,10.1002/advs.201600035,26678,3b,33458,Fe 1+x Nb 0.75 Ti 0.25 Sb_ 300k,undefined,,0.0012602,,,,,0.02,,,
27925,10.1002/advs.201600035,26678,3b,33458,Fe 1+x Nb 0.75 Ti 0.25 Sb_ 300k,undefined,,0.0012395,,,,,0.025,,,
27925,10.1002/advs.201600035,26678,3b,33458,Fe 1+x Nb 0.75 Ti 0.25 Sb_ 300k,undefined,,0.0012188,,,,,0.03,,,
27925,10.1002/advs.201600035,26678,3b,33458,Fe 1+x Nb 0.75 Ti 0.25 Sb_ 300k,undefined,,0.0011981,,,,,0.035,,,
27925,10.1002/advs.201600035,26678,3b,33458,Fe 1+x Nb 0.75 Ti 0.25 Sb_ 300k,undefined,,0.0011774,,,,,0.04,,,
27925,10.1002/advs.201600035,26678,3b,33458,Fe 1+x Nb 0.75 Ti 0.25 Sb_ 300k,undefined,,0.0011567,,,,,0.045,,,
27925,10.1002/advs.201600035,26678,3b,33458,Fe 1+x Nb 0.75 Ti 0.25 Sb_ 300k,undefined,,0.001136,,,,,0.05,,,
27925,10.1002/advs.201600035,26678,3b,33458,Fe 1+x Nb 0.75 Ti 0.25 Sb_ 300k,undefined,,0.0011152,,,,,0.055,,,
27925,10.1002/advs.201600035,26678,3b,33458,Fe 1+x Nb 0.75 Ti 0.25 Sb_ 300k,undefined,,0.0010945,,,,,0.06,,,
27925,10.1002/advs.201600035,26678,3b,33458,Fe 1+x Nb 0.75 Ti 0.25 Sb_ 300k,undefined,,0.0010738,,,,,0.065,,,