sid,DOI,figureid,fignum,sampleid,samplename,composition,Temperature,Carrier concentration,Carrier mobility,Electrical conductivity,Electrical resistivity,Lattice thermal conductivity,Power factor,Seebeck coefficient,Thermal conductivity,ZT,content,total thermal conductivity,Figure of merit Z
769,10.1039/b916346h,10694,2(a),12884,x=0,EuZn2Sb2,300,,,119750,0.0000083505,,,,2.3668,0.18236,,,
769,10.1039/b916346h,10694,2(a),12884,x=0,EuZn2Sb2,350,,,104620,0.0000095588,,0.0018469,0.00013028,2.2228,0.28322,,,0.000830889
769,10.1039/b916346h,10694,2(a),12884,x=0,EuZn2Sb2,400,,,92876,0.000010767,,0.0018697,0.00013851,2.0787,0.38409,,,0.0008994564
769,10.1039/b916346h,10694,2(a),12884,x=0,EuZn2Sb2,450,,,83507,0.000011975,,0.0018925,0.00014674,1.9347,0.48496,,,0.0009781878
769,10.1039/b916346h,10694,2(a),12884,x=0,EuZn2Sb2,500,,,75850,0.000013184,,0.0019153,0.00015497,1.7907,0.58583,,,0.0010695817
769,10.1039/b916346h,10694,2(a),12884,x=0,EuZn2Sb2,550,,,69483,0.000014392,,0.0019382,0.00016321,1.6467,0.6867,,,0.0011770207
769,10.1039/b916346h,10694,2(a),12884,x=0,EuZn2Sb2,600,,,64103,0.0000156,,0.001961,0.00017144,1.5026,0.78756,,,0.0013050712
769,10.1039/b916346h,10694,2(a),12884,x=0,EuZn2Sb2,650,,,59492,0.000016809,,0.0019838,0.00017967,1.3586,0.88843,,,0.0014601796
769,10.1039/b916346h,10695,2(b),12884,x=0,EuZn2Sb2,700,,,,,,0.0020066,0.0001879,,,,,
769,10.1039/b916346h,10694,2(a),12885,x=0.1,EuZn1.8Cd0.2Sb2,350,,,105460,0.0000094824,,0.0018433,0.00013694,2.0695,0.29333,,,0.0008906982
769,10.1039/b916346h,10694,2(a),12885,x=0.1,EuZn1.8Cd0.2Sb2,400,,,93084,0.000010743,,0.0019378,0.00014718,1.9409,0.42181,,,0.0009984028
769,10.1039/b916346h,10694,2(a),12885,x=0.1,EuZn1.8Cd0.2Sb2,450,,,83306,0.000012004,,0.0020323,0.00015742,1.8123,0.5503,,,0.0011213927
769,10.1039/b916346h,10694,2(a),12885,x=0.1,EuZn1.8Cd0.2Sb2,500,,,75386,0.000013265,,0.0021268,0.00016766,1.6838,0.67878,,,0.0012630954
769,10.1039/b916346h,10694,2(a),12885,x=0.1,EuZn1.8Cd0.2Sb2,550,,,68842,0.000014526,,0.0022213,0.0001779,1.5552,0.80727,,,0.001428305
769,10.1039/b916346h,10694,2(a),12885,x=0.1,EuZn1.8Cd0.2Sb2,600,,,63343,0.000015787,,0.0023158,0.00018814,1.4266,0.93575,,,0.0016233002
769,10.1039/b916346h,10694,2(a),12885,x=0.1,EuZn1.8Cd0.2Sb2,650,,,58658,0.000017048,,0.0024103,,1.2981,1.2069,,,0.0018567907
769,10.1039/b916346h,10694,2(a),12886,x=0.3,EuZn1.4Cd0.6Sb2,300,,,62956,0.000015884,,0.0013845,,,,,,
769,10.1039/b916346h,10694,2(a),12886,x=0.3,EuZn1.4Cd0.6Sb2,350,,,54942,0.000018201,,0.001416,0.00016025,1.6566,0.29322,,,0.0008547628
769,10.1039/b916346h,10694,2(a),12886,x=0.3,EuZn1.4Cd0.6Sb2,400,,,48738,0.000020518,,0.0014474,0.00017384,1.5547,0.39255,,,0.0009309835
769,10.1039/b916346h,10694,2(a),12886,x=0.3,EuZn1.4Cd0.6Sb2,450,,,43792,0.000022835,,0.0014788,0.00018576,1.4528,0.49187,,,0.0010178965
769,10.1039/b916346h,10694,2(a),12886,x=0.3,EuZn1.4Cd0.6Sb2,500,,,39758,0.000025152,,0.0015103,0.00019612,1.3509,0.5912,,,0.0011179954
769,10.1039/b916346h,10694,2(a),12886,x=0.3,EuZn1.4Cd0.6Sb2,550,,,36406,0.000027468,,0.0015417,0.00020503,1.249,0.69053,,,0.0012343475
769,10.1039/b916346h,10694,2(a),12886,x=0.3,EuZn1.4Cd0.6Sb2,600,,,33574,0.000029785,,0.0015732,0.0002126,1.1471,0.78986,,,0.0013714585
769,10.1039/b916346h,10695,2(b),12886,x=0.3,EuZn1.4Cd0.6Sb2,650,,,,,,,0.00021896,,,,,
769,10.1039/b916346h,10694,2(a),12887,x=1,EuCd2Sb2,350,,,9638.6,0.00010375,,0.00062162,0.0002534,1.2121,0.169,,,0.0005128455
769,10.1039/b916346h,10694,2(a),12887,x=1,EuCd2Sb2,400,,,9273.9,0.00010783,,0.00064377,0.00026248,1.1186,0.24825,,,0.000575514
769,10.1039/b916346h,10694,2(a),12887,x=1,EuCd2Sb2,450,,,8935,0.00011192,,0.00066592,0.00027156,1.025,0.3275,,,0.000649678
769,10.1039/b916346h,10694,2(a),12887,x=1,EuCd2Sb2,500,,,8619.9,0.00011601,,0.00068808,0.00028064,0.93137,0.40675,,,0.0007387827
769,10.1039/b916346h,10694,2(a),12887,x=1,EuCd2Sb2,550,,,8326.4,0.0001201,,0.00071023,0.00028972,0.83778,0.486,,,0.0008477524
769,10.1039/b916346h,10694,2(a),12887,x=1,EuCd2Sb2,600,,,8052.8,0.00012418,,0.00073238,0.0002988,0.74419,0.56525,,,0.0009841304
769,10.1039/b916346h,10694,2(a),12887,x=1,EuCd2Sb2,650,,,7796.1,0.00012827,,,,,,,,
769,10.1039/b916346h,10695,2(b),12888,x=0.5,EuZnCdSb2,350,,,,,,0.0010368,0.00018945,1.4192,0.25094,,,0.0007305524
769,10.1039/b916346h,10695,2(b),12888,x=0.5,EuZnCdSb2,400,,,,,,0.0010669,0.00020031,1.3299,0.3407,,,0.0008022408
769,10.1039/b916346h,10695,2(b),12888,x=0.5,EuZnCdSb2,450,,,,,,0.001097,0.00021117,1.2406,0.43046,,,0.0008842496
769,10.1039/b916346h,10695,2(b),12888,x=0.5,EuZnCdSb2,500,,,,,,0.001127,0.00022203,1.1512,0.52022,,,0.0009789785
769,10.1039/b916346h,10695,2(b),12888,x=0.5,EuZnCdSb2,550,,,,,,0.0011571,0.00023289,1.0619,0.60998,,,0.0010896506
769,10.1039/b916346h,10695,2(b),12888,x=0.5,EuZnCdSb2,600,,,,,,0.0011872,0.00024374,0.97261,0.69974,,,0.0012206331
769,10.1039/b916346h,10696,2(c),12888,x=0.5,EuZnCdSb2,650,,,,,,0.0012173,,,,,,
10954,10.1007/s11664-015-4303-6,5134,3(a),6467,x=0,Ca1Zn2Sb2,300,,,32487,0.000030782,,0.00049954,0.0001243,,,,,
10954,10.1007/s11664-015-4303-6,5134,3(a),6467,x=0,Ca1Zn2Sb2,350,,,30373,0.000032924,,0.00053777,0.00013346,3.3773,0.049988,,,0.0001592307
10954,10.1007/s11664-015-4303-6,5134,3(a),6467,x=0,Ca1Zn2Sb2,400,,,28518,0.000035066,,0.000576,0.00014263,3.1857,0.07735,,,0.000180808
10954,10.1007/s11664-015-4303-6,5134,3(a),6467,x=0,Ca1Zn2Sb2,450,,,26876,0.000037208,,0.00061424,0.00015179,2.9941,0.10471,,,0.0002051501
10954,10.1007/s11664-015-4303-6,5134,3(a),6467,x=0,Ca1Zn2Sb2,500,,,25413,0.00003935,,0.00065247,0.00016096,2.8024,0.13207,,,0.0002328254
10954,10.1007/s11664-015-4303-6,5134,3(a),6467,x=0,Ca1Zn2Sb2,550,,,24100,0.000041493,,0.00069071,0.00017012,2.6108,0.15943,,,0.0002645588
10954,10.1007/s11664-015-4303-6,5134,3(a),6467,x=0,Ca1Zn2Sb2,600,,,22917,0.000043635,,0.00072894,0.00017929,2.4191,0.1868,,,0.0003013269
10954,10.1007/s11664-015-4303-6,5134,3(a),6467,x=0,Ca1Zn2Sb2,650,,,21845,0.000045777,,0.00076717,0.00018845,2.2275,0.21416,,,0.0003444085
10954,10.1007/s11664-015-4303-6,5134,3(a),6467,x=0,Ca1Zn2Sb2,700,,,20869,0.000047919,,0.00080541,0.00019761,2.0359,0.24152,,,0.0003956039
10954,10.1007/s11664-015-4303-6,5134,3(a),6468,x=0.1,Ca0.9Eu0.1Zn2Sb2,350,,,61043,0.000016382,,0.00085688,0.00011919,3.0119,0.083096,,,0.0002844982
10954,10.1007/s11664-015-4303-6,5134,3(a),6468,x=0.1,Ca0.9Eu0.1Zn2Sb2,400,,,55885,0.000017894,,0.00091368,0.00012838,2.8167,0.13586,,,0.0003243796
10954,10.1007/s11664-015-4303-6,5134,3(a),6468,x=0.1,Ca0.9Eu0.1Zn2Sb2,450,,,51530,0.000019406,,0.00097049,0.00013757,2.6214,0.18863,,,0.0003702182
10954,10.1007/s11664-015-4303-6,5134,3(a),6468,x=0.1,Ca0.9Eu0.1Zn2Sb2,500,,,47806,0.000020918,,0.0010273,0.00014676,2.4262,0.24139,,,0.0004234193
10954,10.1007/s11664-015-4303-6,5134,3(a),6468,x=0.1,Ca0.9Eu0.1Zn2Sb2,550,,,44583,0.00002243,,0.0010841,0.00015596,2.2309,0.29416,,,0.0004859474
10954,10.1007/s11664-015-4303-6,5134,3(a),6468,x=0.1,Ca0.9Eu0.1Zn2Sb2,600,,,41768,0.000023942,,0.0011409,0.00016515,2.0357,0.34692,,,0.000560446
10954,10.1007/s11664-015-4303-6,5134,3(a),6468,x=0.1,Ca0.9Eu0.1Zn2Sb2,650,,,39287,0.000025454,,0.0011977,0.00017434,1.8404,0.39969,,,0.0006507824
10954,10.1007/s11664-015-4303-6,5134,3(a),6468,x=0.1,Ca0.9Eu0.1Zn2Sb2,700,,,37085,0.000026965,,0.0012545,0.00018353,1.6452,0.45245,,,0.0007625213
10954,10.1007/s11664-015-4303-6,5137,3(c),6468,x=0.1,Ca0.9Eu0.1Zn2Sb2,300,,,,,,0.00080007,,3.2072,0.03033,,,0.0002494606
10954,10.1007/s11664-015-4303-6,5134,3(a),6469,x=0.3,Ca0.7Eu0.3Zn2Sb2,300,,,71372,0.000014011,,,,,,,,
10954,10.1007/s11664-015-4303-6,5134,3(a),6469,x=0.3,Ca0.7Eu0.3Zn2Sb2,350,,,65164,0.000015346,,0.00096965,0.00012217,3.1593,0.090077,,,0.0003069193
10954,10.1007/s11664-015-4303-6,5134,3(a),6469,x=0.3,Ca0.7Eu0.3Zn2Sb2,400,,,59952,0.00001668,,0.0010377,0.0001314,2.9706,0.14294,,,0.0003493234
10954,10.1007/s11664-015-4303-6,5134,3(a),6469,x=0.3,Ca0.7Eu0.3Zn2Sb2,450,,,55509,0.000018015,,0.0011057,0.00014063,2.7818,0.1958,,,0.0003974765
10954,10.1007/s11664-015-4303-6,5134,3(a),6469,x=0.3,Ca0.7Eu0.3Zn2Sb2,500,,,51682,0.000019349,,0.0011737,0.00014986,2.5931,0.24866,,,0.0004526243
10954,10.1007/s11664-015-4303-6,5134,3(a),6469,x=0.3,Ca0.7Eu0.3Zn2Sb2,550,,,48347,0.000020684,,0.0012417,0.0001591,2.4043,0.30152,,,0.0005164497
10954,10.1007/s11664-015-4303-6,5134,3(a),6469,x=0.3,Ca0.7Eu0.3Zn2Sb2,600,,,45415,0.000022019,,0.0013098,0.00016833,2.2156,0.35438,,,0.0005911717
10954,10.1007/s11664-015-4303-6,5134,3(a),6469,x=0.3,Ca0.7Eu0.3Zn2Sb2,650,,,42821,0.000023353,,0.0013778,0.00017756,2.0268,0.40724,,,0.0006797908
10954,10.1007/s11664-015-4303-6,5134,3(a),6469,x=0.3,Ca0.7Eu0.3Zn2Sb2,700,,,40506,0.000024688,,0.0014458,0.00018679,1.8381,0.4601,,,0.0007865731
10954,10.1007/s11664-015-4303-6,5134,3(a),6470,x=0.7,Ca0.3Eu0.7Zn2Sb2,350,,,70781,0.000014128,,0.0010817,0.00012267,2.7466,0.11762,,,0.0003938324
10954,10.1007/s11664-015-4303-6,5134,3(a),6470,x=0.7,Ca0.3Eu0.7Zn2Sb2,400,,,64885,0.000015412,,0.0011499,0.00013216,2.5879,0.184,,,0.0004443371
10954,10.1007/s11664-015-4303-6,5134,3(a),6470,x=0.7,Ca0.3Eu0.7Zn2Sb2,450,,,59895,0.000016696,,0.0012182,0.00014164,2.4292,0.25037,,,0.000501482
10954,10.1007/s11664-015-4303-6,5134,3(a),6470,x=0.7,Ca0.3Eu0.7Zn2Sb2,500,,,55617,0.00001798,,0.0012864,0.00015113,2.2704,0.31675,,,0.0005665962
10954,10.1007/s11664-015-4303-6,5134,3(a),6470,x=0.7,Ca0.3Eu0.7Zn2Sb2,550,,,51910,0.000019264,,0.0013546,0.00016062,2.1117,0.38313,,,0.0006414737
10954,10.1007/s11664-015-4303-6,5134,3(a),6470,x=0.7,Ca0.3Eu0.7Zn2Sb2,600,,,48667,0.000020548,,0.0014228,0.0001701,1.953,0.4495,,,0.0007285202
10954,10.1007/s11664-015-4303-6,5134,3(a),6470,x=0.7,Ca0.3Eu0.7Zn2Sb2,650,,,45802,0.000021833,,0.0014911,0.00017959,1.7943,0.51588,,,0.0008310205
10954,10.1007/s11664-015-4303-6,5134,3(a),6470,x=0.7,Ca0.3Eu0.7Zn2Sb2,700,,,43258,0.000023117,,0.0015593,0.00018908,1.6356,0.58225,,,0.0009533505
10954,10.1007/s11664-015-4303-6,5139,4,6470,x=0.7,Ca0.3Eu0.7Zn2Sb2,300,,,,,,,,,0.051246,,,
10954,10.1007/s11664-015-4303-6,5134,3(a),6471,x=0.9,Ca0.1Eu0.9Zn2Sb2,350,,,81031,0.000012341,,0.001217,0.00012259,2.5496,0.13773,,,0.0004773298
10954,10.1007/s11664-015-4303-6,5134,3(a),6471,x=0.9,Ca0.1Eu0.9Zn2Sb2,400,,,74123,0.000013491,,0.0012876,0.00013246,2.3917,0.22014,,,0.0005383618
10954,10.1007/s11664-015-4303-6,5134,3(a),6471,x=0.9,Ca0.1Eu0.9Zn2Sb2,450,,,67935,0.00001472,,0.0013582,0.00014234,2.2339,0.30255,,,0.000607995
10954,10.1007/s11664-015-4303-6,5134,3(a),6471,x=0.9,Ca0.1Eu0.9Zn2Sb2,500,,,62395,0.000016027,,0.0014288,0.00015221,2.076,0.38496,,,0.0006882466
10954,10.1007/s11664-015-4303-6,5134,3(a),6471,x=0.9,Ca0.1Eu0.9Zn2Sb2,550,,,57428,0.000017413,,0.0014994,0.00016209,1.9181,0.46737,,,0.0007817111
10954,10.1007/s11664-015-4303-6,5134,3(a),6471,x=0.9,Ca0.1Eu0.9Zn2Sb2,600,,,52972,0.000018878,,0.00157,0.00017196,1.7602,0.54978,,,0.0008919441
10954,10.1007/s11664-015-4303-6,5134,3(a),6471,x=0.9,Ca0.1Eu0.9Zn2Sb2,650,,,48969,0.000020421,,0.0016406,0.00018184,1.6023,0.63219,,,0.0010239031
10954,10.1007/s11664-015-4303-6,5134,3(a),6471,x=0.9,Ca0.1Eu0.9Zn2Sb2,700,,,45366,0.000022043,,0.0017112,0.00019171,1.4444,0.71459,,,0.0011847134
10954,10.1007/s11664-015-4303-6,5136,3(b),6471,x=0.9,Ca0.1Eu0.9Zn2Sb2,300,,,,,,,0.00011271,,0.055322,,,
10954,10.1007/s11664-015-4303-6,5134,3(a),6472,x=1,Eu1Zn2Sb2,350,,,82974,0.000012052,,0.0013573,0.00012593,2.2828,0.18575,,,0.0005945768
10954,10.1007/s11664-015-4303-6,5134,3(a),6472,x=1,Eu1Zn2Sb2,400,,,77791,0.000012855,,0.0014604,0.00013786,2.141,0.29372,,,0.0006821112
10954,10.1007/s11664-015-4303-6,5134,3(a),6472,x=1,Eu1Zn2Sb2,450,,,73212,0.000013659,,0.0015635,0.00014848,1.9992,0.40169,,,0.0007820628
10954,10.1007/s11664-015-4303-6,5134,3(a),6472,x=1,Eu1Zn2Sb2,500,,,69147,0.000014462,,0.0016665,0.00015861,1.8574,0.50966,,,0.0008972219
10954,10.1007/s11664-015-4303-6,5134,3(a),6472,x=1,Eu1Zn2Sb2,550,,,65509,0.000015265,,0.0017696,0.00016835,1.7156,0.61764,,,0.0010314759
10954,10.1007/s11664-015-4303-6,5134,3(a),6472,x=1,Eu1Zn2Sb2,600,,,62232,0.000016069,,0.0018727,0.00017712,1.5737,0.72561,,,0.0011899981
10954,10.1007/s11664-015-4303-6,5134,3(a),6472,x=1,Eu1Zn2Sb2,650,,,59270,0.000016872,,0.0019758,0.00018363,1.4319,0.83358,,,0.001379845
10954,10.1007/s11664-015-4303-6,5134,3(a),6472,x=1,Eu1Zn2Sb2,700,,,56577,0.000017675,,0.0020788,0.00018586,1.2901,0.94155,,,0.001611348
10954,10.1007/s11664-015-4303-6,5136,3(b),6472,x=1,Eu1Zn2Sb2,300,,,,,,,0.00011115,2.4247,,,,
24838,10.1016/s1002-0721(12)60398-6,22062,7 (a),27478,Electrical Conductivity,,350,,,10777000,9.28e-8,,,,,,,,
24838,10.1016/s1002-0721(12)60398-6,22062,7 (a),27478,Electrical Conductivity,,400,,,11240000,8.9e-8,,,,,,,,
24838,10.1016/s1002-0721(12)60398-6,22062,7 (a),27478,Electrical Conductivity,,450,,,11703000,8.54e-8,,,,,,,,
24838,10.1016/s1002-0721(12)60398-6,22062,7 (a),27478,Electrical Conductivity,,500,,,12167000,8.22e-8,,,,,,,,
24838,10.1016/s1002-0721(12)60398-6,22062,7 (a),27478,Electrical Conductivity,,550,,,12630000,7.92e-8,,,,,,,,
24838,10.1016/s1002-0721(12)60398-6,22062,7 (a),27478,Electrical Conductivity,,600,,,13094000,7.64e-8,,,,,,,,
24838,10.1016/s1002-0721(12)60398-6,22062,7 (a),27479,As power factor,YbMg2Sb2,350,,,10777000,9.28e-8,,,,,,,,
24838,10.1016/s1002-0721(12)60398-6,22062,7 (a),27479,As power factor,YbMg2Sb2,400,,,11240000,8.9e-8,,,,,,,,
24838,10.1016/s1002-0721(12)60398-6,22062,7 (a),27479,As power factor,YbMg2Sb2,450,,,11703000,8.54e-8,,,,,,,,
24838,10.1016/s1002-0721(12)60398-6,22062,7 (a),27479,As power factor,YbMg2Sb2,500,,,12167000,8.22e-8,,,,,,,,
24838,10.1016/s1002-0721(12)60398-6,22062,7 (a),27479,As power factor,YbMg2Sb2,550,,,12630000,7.92e-8,,,,,,,,
24838,10.1016/s1002-0721(12)60398-6,22062,7 (a),27479,As power factor,YbMg2Sb2,600,,,13094000,7.64e-8,,,,,,,,
24838,10.1016/s1002-0721(12)60398-6,22062,7 (a),27480,a,YbMg2Sb2,350,,,13165000,7.6e-8,,,,,,,,
24838,10.1016/s1002-0721(12)60398-6,22062,7 (a),27480,a,YbMg2Sb2,400,,,12710000,7.87e-8,,,,,,,,
24838,10.1016/s1002-0721(12)60398-6,22062,7 (a),27480,a,YbMg2Sb2,450,,,12255000,8.16e-8,,,,,,,,
24838,10.1016/s1002-0721(12)60398-6,22062,7 (a),27480,a,YbMg2Sb2,500,,,11800000,8.47e-8,,,,,,,,
24838,10.1016/s1002-0721(12)60398-6,22062,7 (a),27480,a,YbMg2Sb2,550,,,11345000,8.81e-8,,,,,,,,
24838,10.1016/s1002-0721(12)60398-6,22062,7 (a),27480,a,YbMg2Sb2,600,,,10889000,9.18e-8,,,,,,,,
24838,10.1016/s1002-0721(12)60398-6,22063,7 (b),27482,YbZn2Sb2,undefined,300,,,,,,0.00035056,,,,,,
24838,10.1016/s1002-0721(12)60398-6,22063,7 (b),27482,YbZn2Sb2,undefined,350,,,,,,0.00046925,,,,,,
24838,10.1016/s1002-0721(12)60398-6,22063,7 (b),27482,YbZn2Sb2,undefined,400,,,,,,0.00058795,,,,,,
24838,10.1016/s1002-0721(12)60398-6,22063,7 (b),27482,YbZn2Sb2,undefined,450,,,,,,0.00070664,,,,,,
24838,10.1016/s1002-0721(12)60398-6,22063,7 (b),27482,YbZn2Sb2,undefined,500,,,,,,0.00082533,,,,,,
24838,10.1016/s1002-0721(12)60398-6,22063,7 (b),27482,YbZn2Sb2,undefined,550,,,,,,0.00094402,,,,,,
24838,10.1016/s1002-0721(12)60398-6,22063,7 (b),27482,YbZn2Sb2,undefined,600,,,,,,0.0010627,,,,,,
24838,10.1016/s1002-0721(12)60398-6,22063,7 (b),27483,YbCd2Sb2,undefined,300,,,,,,0.00072853,,,,,,
24838,10.1016/s1002-0721(12)60398-6,22063,7 (b),27483,YbCd2Sb2,undefined,350,,,,,,0.00081949,,,,,,
24838,10.1016/s1002-0721(12)60398-6,22063,7 (b),27483,YbCd2Sb2,undefined,400,,,,,,0.00091045,,,,,,
24838,10.1016/s1002-0721(12)60398-6,22063,7 (b),27483,YbCd2Sb2,undefined,450,,,,,,0.0010014,,,,,,
24838,10.1016/s1002-0721(12)60398-6,22063,7 (b),27483,YbCd2Sb2,undefined,500,,,,,,0.0010924,,,,,,
24838,10.1016/s1002-0721(12)60398-6,22063,7 (b),27483,YbCd2Sb2,undefined,550,,,,,,0.0011833,,,,,,
24838,10.1016/s1002-0721(12)60398-6,22063,7 (b),27483,YbCd2Sb2,undefined,600,,,,,,0.0012743,,,,,,
24838,10.1016/s1002-0721(12)60398-6,22063,7 (b),27481,YbMg2Sb2,undefined,350,,,,,,1.171,,,,,,
24838,10.1016/s1002-0721(12)60398-6,22063,7 (b),27481,YbMg2Sb2,undefined,400,,,,,,1.2395,,,,,,
24838,10.1016/s1002-0721(12)60398-6,22063,7 (b),27481,YbMg2Sb2,undefined,450,,,,,,1.308,,,,,,
24838,10.1016/s1002-0721(12)60398-6,22063,7 (b),27481,YbMg2Sb2,undefined,500,,,,,,1.3765,,,,,,
24838,10.1016/s1002-0721(12)60398-6,22063,7 (b),27481,YbMg2Sb2,undefined,550,,,,,,1.445,,,,,,
24838,10.1016/s1002-0721(12)60398-6,22063,7 (b),27481,YbMg2Sb2,undefined,600,,,,,,1.5135,,,,,,
24838,10.1016/s1002-0721(12)60398-6,25085,4a,31231,Eu(Zn1–xCdx)2Sb2_ x=0,EuZn2Sb2,300,,,125710,0.0000079548,,,,,,,,
24838,10.1016/s1002-0721(12)60398-6,25085,4a,31231,Eu(Zn1–xCdx)2Sb2_ x=0,EuZn2Sb2,350,,,116200,0.0000086059,,0.0020287,0.00013213,2.2711,0.27527,,,0.0008932676
24838,10.1016/s1002-0721(12)60398-6,25085,4a,31231,Eu(Zn1–xCdx)2Sb2_ x=0,EuZn2Sb2,400,,,106700,0.0000093721,,0.0021165,0.00014084,2.1144,0.37919,,,0.0010009932
24838,10.1016/s1002-0721(12)60398-6,25085,4a,31231,Eu(Zn1–xCdx)2Sb2_ x=0,EuZn2Sb2,450,,,97189,0.000010289,,0.0021734,0.00014954,1.9577,0.48311,,,0.0011101803
24838,10.1016/s1002-0721(12)60398-6,25085,4a,31231,Eu(Zn1–xCdx)2Sb2_ x=0,EuZn2Sb2,500,,,87683,0.000011405,,0.0021959,0.00015825,1.8011,0.58703,,,0.0012191994
24838,10.1016/s1002-0721(12)60398-6,25085,4a,31231,Eu(Zn1–xCdx)2Sb2_ x=0,EuZn2Sb2,550,,,78176,0.000012792,,0.0021789,0.00016695,1.6444,0.69095,,,0.0013250426
24838,10.1016/s1002-0721(12)60398-6,25085,4a,31231,Eu(Zn1–xCdx)2Sb2_ x=0,EuZn2Sb2,600,,,68669,0.000014563,,0.0021189,0.00017566,1.4877,0.79487,,,0.0014242791
24838,10.1016/s1002-0721(12)60398-6,25085,4a,31231,Eu(Zn1–xCdx)2Sb2_ x=0,EuZn2Sb2,650,,,59162,0.000016903,,,,1.3311,0.89879,,,
24838,10.1016/s1002-0721(12)60398-6,25085,4a,31232,Eu(Zn1–xCdx)2Sb2_ x=0.1,Eu(Zn0.9Cd0.1)2Sb2,300,,,97205,0.000010288,,0.0016113,0.00012875,,0.17882,,,
24838,10.1016/s1002-0721(12)60398-6,25085,4a,31232,Eu(Zn1–xCdx)2Sb2_ x=0.1,Eu(Zn0.9Cd0.1)2Sb2,350,,,90956,0.000010994,,0.0017475,0.00013861,2.0769,0.30239,,,0.0008413982
24838,10.1016/s1002-0721(12)60398-6,25085,4a,31232,Eu(Zn1–xCdx)2Sb2_ x=0.1,Eu(Zn0.9Cd0.1)2Sb2,400,,,84706,0.000011806,,0.001867,0.00014846,1.954,0.42596,,,0.0009554759
24838,10.1016/s1002-0721(12)60398-6,25085,4a,31232,Eu(Zn1–xCdx)2Sb2_ x=0.1,Eu(Zn0.9Cd0.1)2Sb2,450,,,78457,0.000012746,,0.0019665,0.00015832,1.8312,0.54953,,,0.001073886
24838,10.1016/s1002-0721(12)60398-6,25085,4a,31232,Eu(Zn1–xCdx)2Sb2_ x=0.1,Eu(Zn0.9Cd0.1)2Sb2,500,,,72208,0.000013849,,0.0020424,0.00016818,1.7083,0.6731,,,0.0011955745
24838,10.1016/s1002-0721(12)60398-6,25085,4a,31232,Eu(Zn1–xCdx)2Sb2_ x=0.1,Eu(Zn0.9Cd0.1)2Sb2,550,,,65958,0.000015161,,0.0020908,0.00017804,1.5855,0.79667,,,0.0013187007
24838,10.1016/s1002-0721(12)60398-6,25085,4a,31232,Eu(Zn1–xCdx)2Sb2_ x=0.1,Eu(Zn0.9Cd0.1)2Sb2,600,,,59709,0.000016748,,0.0021081,0.0001879,1.4626,0.92024,,,0.0014413373
24838,10.1016/s1002-0721(12)60398-6,25087,4c,31232,Eu(Zn1–xCdx)2Sb2_ x=0.1,Eu(Zn0.9Cd0.1)2Sb2,650,,,,,,,,1.3398,1.0438,,,
24838,10.1016/s1002-0721(12)60398-6,25085,4a,31233,Eu(Zn1–xCdx)2Sb2_ x=0.3,Eu(Zn0.7Cd0.3)2Sb2,300,,,55743,0.000017939,,,,1.7482,,,,
24838,10.1016/s1002-0721(12)60398-6,25085,4a,31233,Eu(Zn1–xCdx)2Sb2_ x=0.3,Eu(Zn0.7Cd0.3)2Sb2,350,,,52227,0.000019147,,0.0013556,0.00016111,1.653,0.295,,,0.0008200847
24838,10.1016/s1002-0721(12)60398-6,25085,4a,31233,Eu(Zn1–xCdx)2Sb2_ x=0.3,Eu(Zn0.7Cd0.3)2Sb2,400,,,48710,0.00002053,,0.0014348,0.00017163,1.5578,0.39173,,,0.0009210425
24838,10.1016/s1002-0721(12)60398-6,25085,4a,31233,Eu(Zn1–xCdx)2Sb2_ x=0.3,Eu(Zn0.7Cd0.3)2Sb2,450,,,45193,0.000022127,,0.0014994,0.00018215,1.4625,0.48845,,,0.0010252308
24838,10.1016/s1002-0721(12)60398-6,25085,4a,31233,Eu(Zn1–xCdx)2Sb2_ x=0.3,Eu(Zn0.7Cd0.3)2Sb2,500,,,41676,0.000023995,,0.0015469,0.00019266,1.3673,0.58517,,,0.0011313538
24838,10.1016/s1002-0721(12)60398-6,25085,4a,31233,Eu(Zn1–xCdx)2Sb2_ x=0.3,Eu(Zn0.7Cd0.3)2Sb2,550,,,38159,0.000026206,,0.0015753,0.00020318,1.272,0.68189,,,0.0012384434
24838,10.1016/s1002-0721(12)60398-6,25085,4a,31233,Eu(Zn1–xCdx)2Sb2_ x=0.3,Eu(Zn0.7Cd0.3)2Sb2,600,,,34642,0.000028867,,0.001582,0.0002137,1.1768,0.77862,,,0.0013443236
24838,10.1016/s1002-0721(12)60398-6,25085,4a,31233,Eu(Zn1–xCdx)2Sb2_ x=0.3,Eu(Zn0.7Cd0.3)2Sb2,650,,,31126,0.000032127,,,,,,,,