sid,DOI,figureid,fignum,sampleid,samplename,composition,Temperature,Electrical resistivity,Lattice thermal conductivity,Power factor,Seebeck coefficient,Thermal conductivity,ZT,Electrical conductivity,Figure of merit Z
23591,10.1016/j.joule.2018.04.025,20505,2a,25322,Pb0.980Na0.020Te_1.2e20_Zhao,Pb0.980Na0.020Te,300,0.0000047881,,0.0021699,0.00010193,3.6452,0.17858,208851.1100436499,0.000595276
23591,10.1016/j.joule.2018.04.025,20505,2a,25322,Pb0.980Na0.020Te_1.2e20_Zhao,Pb0.980Na0.020Te,350,0.0000067453,,0.0000021445,0.00011701,3.4588,0.000217,148251.3750315034,6.2e-7
23591,10.1016/j.joule.2018.04.025,20505,2a,25322,Pb0.980Na0.020Te_1.2e20_Zhao,Pb0.980Na0.020Te,400,0.0000087026,,0.0000021883,0.0001321,3.2724,0.00026749,114908.1883575024,6.687e-7
23591,10.1016/j.joule.2018.04.025,20505,2a,25322,Pb0.980Na0.020Te_1.2e20_Zhao,Pb0.980Na0.020Te,450,0.00001066,,0.0000022321,0.00014718,3.086,0.48365,93808.6303939963,7.233e-7
23591,10.1016/j.joule.2018.04.025,20505,2a,25322,Pb0.980Na0.020Te_1.2e20_Zhao,Pb0.980Na0.020Te,500,0.000012617,,0.000002276,0.00016226,2.8996,0.55638,79258.1437742728,7.849e-7
23591,10.1016/j.joule.2018.04.025,20505,2a,25322,Pb0.980Na0.020Te_1.2e20_Zhao,Pb0.980Na0.020Te,550,0.000014574,,0.0000023198,0.00017734,2.7132,0.62911,68615.3423905585,8.55e-7
23591,10.1016/j.joule.2018.04.025,20505,2a,25322,Pb0.980Na0.020Te_1.2e20_Zhao,Pb0.980Na0.020Te,600,0.000016531,,0.0000023636,0.00019242,2.5269,0.70184,60492.4082027705,9.354e-7
23591,10.1016/j.joule.2018.04.025,20505,2a,25322,Pb0.980Na0.020Te_1.2e20_Zhao,Pb0.980Na0.020Te,650,0.000018489,,0.0000024074,0.0002075,2.3405,0.77457,54086.2134241982,0.0000010286
23591,10.1016/j.joule.2018.04.025,20505,2a,25322,Pb0.980Na0.020Te_1.2e20_Zhao,Pb0.980Na0.020Te,700,0.000020446,,0.0000024513,0.00022258,2.1541,0.8473,48909.3221167955,0.000001138
23591,10.1016/j.joule.2018.04.025,20505,2a,25322,Pb0.980Na0.020Te_1.2e20_Zhao,Pb0.980Na0.020Te,750,0.000022403,,0.0000024951,0.00023766,1.9677,0.92003,44636.8789894211,0.000001268
23591,10.1016/j.joule.2018.04.025,20505,2a,25322,Pb0.980Na0.020Te_1.2e20_Zhao,Pb0.980Na0.020Te,800,0.00002436,,0.0000025389,0.00025274,1.7813,0.99277,41050.9031198686,0.0000014253
23591,10.1016/j.joule.2018.04.025,20505,2a,25322,Pb0.980Na0.020Te_1.2e20_Zhao,Pb0.980Na0.020Te,850,0.000026318,,0.0000025828,0.00026782,1.5949,1.0655,37996.8082681055,0.0000016194
23591,10.1016/j.joule.2018.04.025,20505,2a,25322,Pb0.980Na0.020Te_1.2e20_Zhao,Pb0.980Na0.020Te,900,,,,0.0002829,1.4085,1.1382,,
23591,10.1016/j.joule.2018.04.025,20505,2a,25323,Pb0.980Na0.020Te_1.4e20_Tan,Pb0.980Na0.020Te ,300,0.0000013317,,0.0000019214,0.000083141,3.4805,0.00016561,750919.8768491402,5.52e-7
23591,10.1016/j.joule.2018.04.025,20505,2a,25323,Pb0.980Na0.020Te_1.4e20_Tan,Pb0.980Na0.020Te ,350,0.0000043477,,0.0000019781,0.00010204,3.2473,0.24347,230006.6701934356,6.092e-7
23591,10.1016/j.joule.2018.04.025,20505,2a,25323,Pb0.980Na0.020Te_1.4e20_Tan,Pb0.980Na0.020Te ,400,0.0000073637,,0.0000020348,0.00012095,3.0141,0.37311,135801.2955443595,6.751e-7
23591,10.1016/j.joule.2018.04.025,20505,2a,25323,Pb0.980Na0.020Te_1.4e20_Tan,Pb0.980Na0.020Te ,450,0.00001038,,0.0000020915,0.00013985,2.7809,0.50274,96339.1136801541,7.521e-7
23591,10.1016/j.joule.2018.04.025,20505,2a,25323,Pb0.980Na0.020Te_1.4e20_Tan,Pb0.980Na0.020Te ,500,0.000013396,,0.0000021482,0.00015875,2.5477,0.63238,74649.1489997014,8.432e-7
23591,10.1016/j.joule.2018.04.025,20505,2a,25323,Pb0.980Na0.020Te_1.4e20_Tan,Pb0.980Na0.020Te ,550,0.000016412,,0.0000022049,0.00017765,2.3145,0.76201,60931.0260784792,9.526e-7
23591,10.1016/j.joule.2018.04.025,20505,2a,25323,Pb0.980Na0.020Te_1.4e20_Tan,Pb0.980Na0.020Te ,600,0.000019428,,0.0000022617,0.00019655,2.0813,0.89165,51472.1021206506,0.0000010867
23591,10.1016/j.joule.2018.04.025,20505,2a,25323,Pb0.980Na0.020Te_1.4e20_Tan,Pb0.980Na0.020Te ,650,0.000022444,,0.0000023184,0.00021546,1.848,1.0213,44555.33772946,0.0000012545
23591,10.1016/j.joule.2018.04.025,20505,2a,25323,Pb0.980Na0.020Te_1.4e20_Tan,Pb0.980Na0.020Te ,700,0.00002546,,0.0000023751,0.00023436,1.6148,1.1509,39277.2977219167,0.0000014708
23591,10.1016/j.joule.2018.04.025,20505,2a,25323,Pb0.980Na0.020Te_1.4e20_Tan,Pb0.980Na0.020Te ,750,0.000028476,,0.0000024318,0.00025326,1.3816,1.2806,35117.2917544599,0.0000017601
23591,10.1016/j.joule.2018.04.025,20505,2a,25323,Pb0.980Na0.020Te_1.4e20_Tan,Pb0.980Na0.020Te ,800,0.000031492,,0.0000024885,0.00027216,1.1484,1.4102,31754.0962784199,0.0000021669
23591,10.1016/j.joule.2018.04.025,20505,2a,25323,Pb0.980Na0.020Te_1.4e20_Tan,Pb0.980Na0.020Te ,850,0.000034508,,0.0000025453,0.00029107,0.91519,1.5398,28978.7875275298,0.0000027812
23591,10.1016/j.joule.2018.04.025,20505,2a,25323,Pb0.980Na0.020Te_1.4e20_Tan,Pb0.980Na0.020Te ,900,0.000037524,,0.000002602,0.00030997,0.68198,1.6695,26649.6109156806,0.0000038154
23591,10.1016/j.joule.2018.04.025,20505,2a,25325,Pb0.960Na0.040Te_1.6e20_this work_yellow,Pb0.960Na0.040Te ,350,0.0000036909,,0.0000017874,0.000098918,3.4543,0.17081,270936.6279227289,5.174e-7
23591,10.1016/j.joule.2018.04.025,20505,2a,25325,Pb0.960Na0.040Te_1.6e20_this work_yellow,Pb0.960Na0.040Te ,400,0.0000055685,,0.0000021164,0.00011441,3.1959,0.32207,179581.5749304121,6.622e-7
23591,10.1016/j.joule.2018.04.025,20505,2a,25325,Pb0.960Na0.040Te_1.6e20_this work_yellow,Pb0.960Na0.040Te ,450,0.0000074462,,0.0000023894,0.0001299,2.9375,0.47333,134296.6882436679,8.134e-7
23591,10.1016/j.joule.2018.04.025,20505,2a,25325,Pb0.960Na0.040Te_1.6e20_this work_yellow,Pb0.960Na0.040Te ,500,0.0000093238,,0.0000026065,0.00014539,2.6791,0.62459,107252.4078165555,9.729e-7
23591,10.1016/j.joule.2018.04.025,20505,2a,25325,Pb0.960Na0.040Te_1.6e20_this work_yellow,Pb0.960Na0.040Te ,550,0.000011201,,0.0000027676,0.00016088,2.4208,0.77585,89277.7430586555,0.0000011433
23591,10.1016/j.joule.2018.04.025,20505,2a,25325,Pb0.960Na0.040Te_1.6e20_this work_yellow,Pb0.960Na0.040Te ,600,0.000013079,,0.0000028729,0.00017637,2.1624,0.92711,76458.444835232,0.0000013286
23591,10.1016/j.joule.2018.04.025,20505,2a,25325,Pb0.960Na0.040Te_1.6e20_this work_yellow,Pb0.960Na0.040Te ,650,0.000014957,,0.0000029222,0.00019186,1.904,1.0784,66858.3272046533,0.0000015348
23591,10.1016/j.joule.2018.04.025,20505,2a,25325,Pb0.960Na0.040Te_1.6e20_this work_yellow,Pb0.960Na0.040Te ,700,0.000016834,,0.0000029155,0.00020735,1.6456,1.2296,59403.5879767138,0.0000017717
23591,10.1016/j.joule.2018.04.025,20505,2a,25325,Pb0.960Na0.040Te_1.6e20_this work_yellow,Pb0.960Na0.040Te ,750,0.000018712,,0.000002853,0.00022284,1.3873,1.3809,53441.6417272339,0.0000020565
23591,10.1016/j.joule.2018.04.025,20505,2a,25325,Pb0.960Na0.040Te_1.6e20_this work_yellow,Pb0.960Na0.040Te ,800,0.00002059,,0.0000027345,0.00023833,1.1289,1.5321,48567.2656629432,0.0000024223
23591,10.1016/j.joule.2018.04.025,20505,2a,25325,Pb0.960Na0.040Te_1.6e20_this work_yellow,Pb0.960Na0.040Te ,850,0.000022467,,0.0000025601,0.00025382,0.87051,1.6834,44509.7253749944,0.0000029409
23591,10.1016/j.joule.2018.04.025,20505,2a,25325,Pb0.960Na0.040Te_1.6e20_this work_yellow,Pb0.960Na0.040Te ,900,0.000024345,,0.0000023297,0.00026931,,,41076.1963442185,
23591,10.1016/j.joule.2018.04.025,20505,2a,25324,Pb0.960Na0.040Te_1.6e20_this work_red,Pb0.960Na0.040Te ,350,0.0000042641,,0.00000188,0.00010617,,,234516.0760770151,
23591,10.1016/j.joule.2018.04.025,20505,2a,25324,Pb0.960Na0.040Te_1.6e20_this work_red,Pb0.960Na0.040Te ,400,0.0000057095,,0.0000022036,0.00012234,,,175146.6853489798,
23591,10.1016/j.joule.2018.04.025,20505,2a,25324,Pb0.960Na0.040Te_1.6e20_this work_red,Pb0.960Na0.040Te ,450,0.0000075707,,0.000002472,0.00013851,,,132088.1820703502,
23591,10.1016/j.joule.2018.04.025,20505,2a,25324,Pb0.960Na0.040Te_1.6e20_this work_red,Pb0.960Na0.040Te ,500,0.0000097322,,0.0000026853,0.00015467,,,102751.6902653049,
23591,10.1016/j.joule.2018.04.025,20505,2a,25324,Pb0.960Na0.040Te_1.6e20_this work_red,Pb0.960Na0.040Te ,550,0.000012079,,0.0000028434,0.00017084,,,82788.310290587,
23591,10.1016/j.joule.2018.04.025,20505,2a,25324,Pb0.960Na0.040Te_1.6e20_this work_red,Pb0.960Na0.040Te ,600,0.000014494,,0.0000029464,0.00018701,,,68994.0665102801,
23591,10.1016/j.joule.2018.04.025,20505,2a,25324,Pb0.960Na0.040Te_1.6e20_this work_red,Pb0.960Na0.040Te ,650,0.000016864,,0.0000029942,0.00020317,,,59297.9127134725,
23591,10.1016/j.joule.2018.04.025,20505,2a,25324,Pb0.960Na0.040Te_1.6e20_this work_red,Pb0.960Na0.040Te ,700,0.000019072,,0.0000029869,0.00021934,,,52432.8859060403,
23591,10.1016/j.joule.2018.04.025,20505,2a,25324,Pb0.960Na0.040Te_1.6e20_this work_red,Pb0.960Na0.040Te ,750,0.000021004,,0.0000029244,0.0002355,,,47609.9790516092,
23591,10.1016/j.joule.2018.04.025,20505,2a,25324,Pb0.960Na0.040Te_1.6e20_this work_red,Pb0.960Na0.040Te ,800,0.000022543,,0.0000028067,0.00025167,,,44359.6681896819,
23591,10.1016/j.joule.2018.04.025,20505,2a,25324,Pb0.960Na0.040Te_1.6e20_this work_red,Pb0.960Na0.040Te ,850,0.000023574,,0.0000026339,0.00026784,,,42419.6148298973,
23591,10.1016/j.joule.2018.04.025,20505,2a,25324,Pb0.960Na0.040Te_1.6e20_this work_red,Pb0.960Na0.040Te ,900,,,,0.000284,,,,
23591,10.1016/j.joule.2018.04.025,20505,2a,25326,Pb0.980Na0.020Te_1.4e20_Pei,Pb0.980Na0.020Te ,300,0.000002642,,0.0017656,0.000068299,3.3917,0.15617,378501.1355034065,0.0005205649
23591,10.1016/j.joule.2018.04.025,20505,2a,25326,Pb0.980Na0.020Te_1.4e20_Pei,Pb0.980Na0.020Te ,350,0.0000045211,,0.0000016457,0.00008704,3.1209,0.18523,221185.109818407,5.273e-7
23591,10.1016/j.joule.2018.04.025,20505,2a,25326,Pb0.980Na0.020Te_1.4e20_Pei,Pb0.980Na0.020Te ,400,0.0000064002,,0.0000018008,0.00010578,2.8501,0.34493,156245.1173400831,6.318e-7
23591,10.1016/j.joule.2018.04.025,20505,2a,25326,Pb0.980Na0.020Te_1.4e20_Pei,Pb0.980Na0.020Te ,450,0.0000082793,,0.0000019558,0.00012452,2.5794,0.50463,120783.157996449,7.582e-7
23591,10.1016/j.joule.2018.04.025,20505,2a,25326,Pb0.980Na0.020Te_1.4e20_Pei,Pb0.980Na0.020Te ,500,0.000010158,,0.0000021109,0.00014327,2.3086,0.66432,98444.5757038787,9.144e-7
23591,10.1016/j.joule.2018.04.025,20505,2a,25326,Pb0.980Na0.020Te_1.4e20_Pei,Pb0.980Na0.020Te ,550,0.000012037,,0.0000022659,0.00016201,2.0379,0.82402,83077.1786990114,0.0000011119
23591,10.1016/j.joule.2018.04.025,20505,2a,25326,Pb0.980Na0.020Te_1.4e20_Pei,Pb0.980Na0.020Te ,600,0.000013917,,0.000002421,0.00018075,1.7671,0.98372,71854.566357692,0.00000137
23591,10.1016/j.joule.2018.04.025,20505,2a,25326,Pb0.980Na0.020Te_1.4e20_Pei,Pb0.980Na0.020Te ,650,0.000015796,,0.000002576,0.00019949,1.4963,1.1434,63307.1663712332,0.0000017216
23591,10.1016/j.joule.2018.04.025,20505,2a,25326,Pb0.980Na0.020Te_1.4e20_Pei,Pb0.980Na0.020Te ,700,0.000017675,,0.0000027311,0.00021823,1.2256,1.3031,56577.0862800566,0.0000022284
23591,10.1016/j.joule.2018.04.025,20505,2a,25326,Pb0.980Na0.020Te_1.4e20_Pei,Pb0.980Na0.020Te ,750,,,,0.00023697,,1.4628,,
23591,10.1016/j.joule.2018.04.025,20512,ZEM_Power factor,25330,(Pb0.95Ge0.01Na0.04)Te_ZEM_5Y24,,50,,,0.0020488,,,,,
23591,10.1016/j.joule.2018.04.025,20512,ZEM_Power factor,25330,(Pb0.95Ge0.01Na0.04)Te_ZEM_5Y24,,100,,,0.0021223,,,,,
23591,10.1016/j.joule.2018.04.025,20512,ZEM_Power factor,25330,(Pb0.95Ge0.01Na0.04)Te_ZEM_5Y24,,150,,,0.0021958,,,,,
23591,10.1016/j.joule.2018.04.025,20512,ZEM_Power factor,25330,(Pb0.95Ge0.01Na0.04)Te_ZEM_5Y24,,200,,,0.0022693,,,,,
23591,10.1016/j.joule.2018.04.025,20512,ZEM_Power factor,25330,(Pb0.95Ge0.01Na0.04)Te_ZEM_5Y24,,250,,,0.0023428,,,,,
23591,10.1016/j.joule.2018.04.025,20512,ZEM_Power factor,25330,(Pb0.95Ge0.01Na0.04)Te_ZEM_5Y24,,300,,,0.0024163,,,,,
23591,10.1016/j.joule.2018.04.025,20512,ZEM_Power factor,25330,(Pb0.95Ge0.01Na0.04)Te_ZEM_5Y24,,350,0.0000069958,,0.0024898,,,,142942.9086023042,
23591,10.1016/j.joule.2018.04.025,20512,ZEM_Power factor,25330,(Pb0.95Ge0.01Na0.04)Te_ZEM_5Y24,,400,0.0000091642,,0.0025633,,,,109120.2723641998,
23591,10.1016/j.joule.2018.04.025,20512,ZEM_Power factor,25330,(Pb0.95Ge0.01Na0.04)Te_ZEM_5Y24,,450,0.000011333,,0.0026368,,,,88237.8893496868,
23591,10.1016/j.joule.2018.04.025,20512,ZEM_Power factor,25330,(Pb0.95Ge0.01Na0.04)Te_ZEM_5Y24,,500,0.000013501,,0.0027103,,,,74068.5875120361,
23591,10.1016/j.joule.2018.04.025,20512,ZEM_Power factor,25330,(Pb0.95Ge0.01Na0.04)Te_ZEM_5Y24,,550,0.000015669,,0.0027838,,,,63820.2820856468,
23591,10.1016/j.joule.2018.04.025,20512,ZEM_Power factor,25330,(Pb0.95Ge0.01Na0.04)Te_ZEM_5Y24,,600,0.000017838,,0.0028573,,,,56060.0964233658,
23591,10.1016/j.joule.2018.04.025,20513,ZEM_Resistivity,25330,(Pb0.95Ge0.01Na0.04)Te_ZEM_5Y24,,650,0.000020006,,,,,,49985.0044986504,
23591,10.1016/j.joule.2018.04.025,20513,ZEM_Resistivity,25330,(Pb0.95Ge0.01Na0.04)Te_ZEM_5Y24,,700,0.000022175,,,,,,45095.8286358512,
23591,10.1016/j.joule.2018.04.025,20513,ZEM_Resistivity,25330,(Pb0.95Ge0.01Na0.04)Te_ZEM_5Y24,,750,0.000024343,,,,,,41079.5711292774,
23591,10.1016/j.joule.2018.04.025,20513,ZEM_Resistivity,25330,(Pb0.95Ge0.01Na0.04)Te_ZEM_5Y24,,800,0.000026512,,,,,,37718.7688593844,
23591,10.1016/j.joule.2018.04.025,20513,ZEM_Resistivity,25330,(Pb0.95Ge0.01Na0.04)Te_ZEM_5Y24,,850,0.00002868,,,,,,34867.5034867503,
23591,10.1016/j.joule.2018.04.025,20513,ZEM_Resistivity,25330,(Pb0.95Ge0.01Na0.04)Te_ZEM_5Y24,,900,0.000030848,,,,,,32417.0124481328,
23591,10.1016/j.joule.2018.04.025,20512,ZEM_Power factor,25329,(Pb0.953Ge0.007Na0.04)Te_ZEM_6105,,50,,,0.0020013,,,,,
23591,10.1016/j.joule.2018.04.025,20512,ZEM_Power factor,25329,(Pb0.953Ge0.007Na0.04)Te_ZEM_6105,,100,,,0.0020765,,,,,
23591,10.1016/j.joule.2018.04.025,20512,ZEM_Power factor,25329,(Pb0.953Ge0.007Na0.04)Te_ZEM_6105,,150,,,0.0021518,,,,,
23591,10.1016/j.joule.2018.04.025,20512,ZEM_Power factor,25329,(Pb0.953Ge0.007Na0.04)Te_ZEM_6105,,200,,,0.002227,,,,,
23591,10.1016/j.joule.2018.04.025,20512,ZEM_Power factor,25329,(Pb0.953Ge0.007Na0.04)Te_ZEM_6105,,250,,,0.0023022,,,,,
23591,10.1016/j.joule.2018.04.025,20512,ZEM_Power factor,25329,(Pb0.953Ge0.007Na0.04)Te_ZEM_6105,,300,,,0.0023774,,,,,
23591,10.1016/j.joule.2018.04.025,20512,ZEM_Power factor,25329,(Pb0.953Ge0.007Na0.04)Te_ZEM_6105,,350,0.0000054023,,0.0024526,,,,185106.343594395,
23591,10.1016/j.joule.2018.04.025,20512,ZEM_Power factor,25329,(Pb0.953Ge0.007Na0.04)Te_ZEM_6105,,400,0.0000071113,,0.0025278,,,,140621.2647476551,
23591,10.1016/j.joule.2018.04.025,20512,ZEM_Power factor,25329,(Pb0.953Ge0.007Na0.04)Te_ZEM_6105,,450,0.0000093375,,0.002603,,,,107095.046854083,
23591,10.1016/j.joule.2018.04.025,20512,ZEM_Power factor,25329,(Pb0.953Ge0.007Na0.04)Te_ZEM_6105,,500,0.000011924,,0.0026783,,,,83864.4750083864,
23591,10.1016/j.joule.2018.04.025,20512,ZEM_Power factor,25329,(Pb0.953Ge0.007Na0.04)Te_ZEM_6105,,550,0.000014712,,0.0027535,,,,67971.7237629146,
23591,10.1016/j.joule.2018.04.025,20512,ZEM_Power factor,25329,(Pb0.953Ge0.007Na0.04)Te_ZEM_6105,,600,0.000017546,,0.0028287,,,,56993.0468482845,
23591,10.1016/j.joule.2018.04.025,20513,ZEM_Resistivity,25329,(Pb0.953Ge0.007Na0.04)Te_ZEM_6105,,650,0.000020268,,,,,,49338.8592855733,
23591,10.1016/j.joule.2018.04.025,20513,ZEM_Resistivity,25329,(Pb0.953Ge0.007Na0.04)Te_ZEM_6105,,700,0.00002272,,,,,,44014.0845070423,
23591,10.1016/j.joule.2018.04.025,20513,ZEM_Resistivity,25329,(Pb0.953Ge0.007Na0.04)Te_ZEM_6105,,750,0.000024745,,,,,,40412.2044857547,
23591,10.1016/j.joule.2018.04.025,20513,ZEM_Resistivity,25329,(Pb0.953Ge0.007Na0.04)Te_ZEM_6105,,800,0.000026185,,,,,,38189.8033225129,
23591,10.1016/j.joule.2018.04.025,20513,ZEM_Resistivity,25329,(Pb0.953Ge0.007Na0.04)Te_ZEM_6105,,850,0.000026884,,,,,,37196.845707484,
23591,10.1016/j.joule.2018.04.025,20513,ZEM_Resistivity,25329,(Pb0.953Ge0.007Na0.04)Te_ZEM_6105,,900,0.000026684,,,,,,37475.6408334583,
23591,10.1016/j.joule.2018.04.025,20512,ZEM_Power factor,25331,(Pb0.953Ge0.007Na0.04)Te_ZEM_7419,,50,,,0.0023013,,,,,
23591,10.1016/j.joule.2018.04.025,20512,ZEM_Power factor,25331,(Pb0.953Ge0.007Na0.04)Te_ZEM_7419,,100,,,0.0023647,,,,,
23591,10.1016/j.joule.2018.04.025,20512,ZEM_Power factor,25331,(Pb0.953Ge0.007Na0.04)Te_ZEM_7419,,150,,,0.0024281,,,,,
23591,10.1016/j.joule.2018.04.025,20512,ZEM_Power factor,25331,(Pb0.953Ge0.007Na0.04)Te_ZEM_7419,,200,,,0.0024915,,,,,
23591,10.1016/j.joule.2018.04.025,20512,ZEM_Power factor,25331,(Pb0.953Ge0.007Na0.04)Te_ZEM_7419,,250,,,0.0025549,,,,,
23591,10.1016/j.joule.2018.04.025,20512,ZEM_Power factor,25331,(Pb0.953Ge0.007Na0.04)Te_ZEM_7419,,300,,,0.0026183,,,,,
23591,10.1016/j.joule.2018.04.025,20512,ZEM_Power factor,25331,(Pb0.953Ge0.007Na0.04)Te_ZEM_7419,,350,0.0000045668,,0.0026817,,,,218971.7088552159,
23591,10.1016/j.joule.2018.04.025,20512,ZEM_Power factor,25331,(Pb0.953Ge0.007Na0.04)Te_ZEM_7419,,400,0.0000071661,,0.0027451,,,,139545.9175841811,
23591,10.1016/j.joule.2018.04.025,20512,ZEM_Power factor,25331,(Pb0.953Ge0.007Na0.04)Te_ZEM_7419,,450,0.0000097655,,0.0028085,,,,102401.3107367774,
23591,10.1016/j.joule.2018.04.025,20512,ZEM_Power factor,25331,(Pb0.953Ge0.007Na0.04)Te_ZEM_7419,,500,0.000012365,,0.0028719,,,,80873.4330772341,
23591,10.1016/j.joule.2018.04.025,20512,ZEM_Power factor,25331,(Pb0.953Ge0.007Na0.04)Te_ZEM_7419,,550,0.000014964,,0.0029353,,,,66827.0515904838,
23591,10.1016/j.joule.2018.04.025,20513,ZEM_Resistivity,25331,(Pb0.953Ge0.007Na0.04)Te_ZEM_7419,,600,0.000017564,,,,,,56934.6390343885,
23591,10.1016/j.joule.2018.04.025,20513,ZEM_Resistivity,25331,(Pb0.953Ge0.007Na0.04)Te_ZEM_7419,,650,0.000020163,,,,,,49595.7942766453,
23591,10.1016/j.joule.2018.04.025,20513,ZEM_Resistivity,25331,(Pb0.953Ge0.007Na0.04)Te_ZEM_7419,,700,0.000022762,,,,,,43932.8705737633,
23591,10.1016/j.joule.2018.04.025,20513,ZEM_Resistivity,25331,(Pb0.953Ge0.007Na0.04)Te_ZEM_7419,,750,0.000025362,,,,,,39429.0671082722,
23591,10.1016/j.joule.2018.04.025,20513,ZEM_Resistivity,25331,(Pb0.953Ge0.007Na0.04)Te_ZEM_7419,,800,0.000027961,,,,,,35764.0999964236,
23591,10.1016/j.joule.2018.04.025,20513,ZEM_Resistivity,25331,(Pb0.953Ge0.007Na0.04)Te_ZEM_7419,,850,0.00003056,,,,,,32722.5130890052,
23591,10.1016/j.joule.2018.04.025,28396,6a,36030,x=0,Pb0.960Na0.040Te,350,0.000004069,1.9361,0.0021114,0.000099631,3.5563,0.18573,245760.6291472106,0.0005937069
23591,10.1016/j.joule.2018.04.025,28396,6a,36030,x=0,Pb0.960Na0.040Te,400,0.0000059242,1.7956,0.0021819,0.00011475,3.2911,0.3401,168799.1627561527,0.0006629698
23591,10.1016/j.joule.2018.04.025,28396,6a,36030,x=0,Pb0.960Na0.040Te,450,0.0000077795,1.6552,0.0022524,0.00012986,3.0259,0.49448,128542.9654862138,0.0007443736
23591,10.1016/j.joule.2018.04.025,28396,6a,36030,x=0,Pb0.960Na0.040Te,500,0.0000096347,1.5148,0.002323,0.00014498,2.7608,0.64885,103791.5036275131,0.0008414228
23591,10.1016/j.joule.2018.04.025,28396,6a,36030,x=0,Pb0.960Na0.040Te,550,0.00001149,1.3743,0.0023935,0.00016009,2.4956,0.80323,87032.2019147084,0.000959088
23591,10.1016/j.joule.2018.04.025,28396,6a,36030,x=0,Pb0.960Na0.040Te,600,0.000013345,1.2339,0.0024641,0.00017521,2.2304,0.9576,74934.4323716748,0.0011047794
23591,10.1016/j.joule.2018.04.025,28396,6a,36030,x=0,Pb0.960Na0.040Te,650,0.0000152,1.0935,0.0025346,0.00019032,1.9652,1.112,65789.4736842105,0.0012897415
23591,10.1016/j.joule.2018.04.025,28396,6a,36030,x=0,Pb0.960Na0.040Te,700,0.000017056,0.95303,0.0026052,0.00020544,1.7001,1.2663,58630.3939962477,0.0015323804
23591,10.1016/j.joule.2018.04.025,28396,6a,36030,x=0,Pb0.960Na0.040Te,750,0.000018911,0.8126,0.0026757,0.00022055,1.4349,1.4207,52879.276611496,0.0018647292
23591,10.1016/j.joule.2018.04.025,28396,6a,36030,x=0,Pb0.960Na0.040Te,800,0.000020766,0.67217,0.0027462,0.00023567,1.1697,1.5751,48155.6390253299,0.0023477815
23591,10.1016/j.joule.2018.04.025,28396,6a,36030,x=0,Pb0.960Na0.040Te,850,0.000022621,0.53173,0.0028168,0.00025078,0.90456,1.7295,44206.7105786658,0.0031140002
23591,10.1016/j.joule.2018.04.025,28396,6a,36030,x=0,Pb0.960Na0.040Te,900,0.000024476,0.3913,0.0028873,0.0002659,,,40856.3490766465,
23591,10.1016/j.joule.2018.04.025,28396,6a,36031,x=0.007(Sample 1),Pb0.953Na0.040Ge0.007Te,350,0.0000062648,1.6427,0.0019343,0.00011505,2.6578,0.25641,159622.0150683182,0.0007277824