sid,DOI,figureid,fignum,sampleid,samplename,composition,Temperature,Electrical resistivity,Lattice thermal conductivity,Power factor,Seebeck coefficient,Thermal conductivity,ZT,Electrical conductivity,Figure of merit Z
23591,10.1016/j.joule.2018.04.025,28396,6a,36031,x=0.007(Sample 1),Pb0.953Na0.040Ge0.007Te,400,0.0000084713,1.5345,0.0020241,0.00013178,2.4895,0.4252,118045.6364430489,0.0008130548
23591,10.1016/j.joule.2018.04.025,28396,6a,36031,x=0.007(Sample 1),Pb0.953Na0.040Ge0.007Te,450,0.000010678,1.4264,0.0021138,0.0001485,2.3211,0.59399,93650.4963476306,0.0009106889
23591,10.1016/j.joule.2018.04.025,28396,6a,36031,x=0.007(Sample 1),Pb0.953Na0.040Ge0.007Te,500,0.000012884,1.3182,0.0022036,0.00016522,2.1528,0.76278,77615.6473144986,0.0010235972
23591,10.1016/j.joule.2018.04.025,28396,6a,36031,x=0.007(Sample 1),Pb0.953Na0.040Ge0.007Te,550,0.000015091,1.2101,0.0022933,0.00018195,1.9844,0.93157,66264.6610562587,0.0011556642
23591,10.1016/j.joule.2018.04.025,28396,6a,36031,x=0.007(Sample 1),Pb0.953Na0.040Ge0.007Te,600,0.000017297,1.1019,0.0023831,0.00019867,1.8161,1.1004,57813.4936694224,0.0013122075
23591,10.1016/j.joule.2018.04.025,28396,6a,36031,x=0.007(Sample 1),Pb0.953Na0.040Ge0.007Te,650,0.000019504,0.99375,0.0024728,0.0002154,1.6477,1.2691,51271.5340442986,0.0015007586
23591,10.1016/j.joule.2018.04.025,28396,6a,36031,x=0.007(Sample 1),Pb0.953Na0.040Ge0.007Te,700,0.00002171,0.88559,0.0025626,0.00023212,1.4794,1.4379,46061.7227084293,0.0017321887
23591,10.1016/j.joule.2018.04.025,28396,6a,36031,x=0.007(Sample 1),Pb0.953Na0.040Ge0.007Te,750,0.000023917,0.77743,0.0026523,0.00024884,1.311,1.6067,41811.2639545093,0.0020231121
23591,10.1016/j.joule.2018.04.025,28396,6a,36031,x=0.007(Sample 1),Pb0.953Na0.040Ge0.007Te,800,0.000026123,0.66927,0.0027421,0.00026557,1.1427,1.7755,38280.4425219156,0.0023996675
23591,10.1016/j.joule.2018.04.025,28396,6a,36031,x=0.007(Sample 1),Pb0.953Na0.040Ge0.007Te,850,0.00002833,0.56112,0.0028318,0.00028229,0.97432,1.9443,35298.2703847511,0.0029064373
23591,10.1016/j.joule.2018.04.025,28461,6e Total thermal conductivity,36031,x=0.007(Sample 1),Pb0.953Na0.040Ge0.007Te,900,,0.45296,,,0.80597,,,
23591,10.1016/j.joule.2018.04.025,28396,6a,36032,x=0.007(Sample 2),Pb0.953Na0.040Ge0.007Te,350,0.0000065823,,0.0020699,0.00012047,2.5918,0.26248,151922.580253103,0.0007986342
23591,10.1016/j.joule.2018.04.025,28396,6a,36032,x=0.007(Sample 2),Pb0.953Na0.040Ge0.007Te,400,0.0000080469,1.2686,0.0021471,0.00013623,2.4309,0.4241,124271.4585741093,0.0008832531
23591,10.1016/j.joule.2018.04.025,28396,6a,36032,x=0.007(Sample 2),Pb0.953Na0.040Ge0.007Te,450,0.000010199,1.1998,0.0022244,0.000152,2.2701,0.58571,98048.8283165016,0.0009798687
23591,10.1016/j.joule.2018.04.025,28396,6a,36032,x=0.007(Sample 2),Pb0.953Na0.040Ge0.007Te,500,0.000012811,1.1311,0.0023016,0.00016776,2.1092,0.74733,78057.9189758801,0.0010912194
23591,10.1016/j.joule.2018.04.025,28396,6a,36032,x=0.007(Sample 2),Pb0.953Na0.040Ge0.007Te,550,0.000015657,1.0624,0.0023789,0.00018353,1.9483,0.90895,63869.1958868238,0.0012210132
23591,10.1016/j.joule.2018.04.025,28396,6a,36032,x=0.007(Sample 2),Pb0.953Na0.040Ge0.007Te,600,0.000018509,0.99367,0.0024561,0.00019929,1.7875,1.0706,54027.7702739208,0.001374042
23591,10.1016/j.joule.2018.04.025,28396,6a,36032,x=0.007(Sample 2),Pb0.953Na0.040Ge0.007Te,650,0.000021142,0.92495,0.0025334,0.00021506,1.6266,1.2322,47299.2148330338,0.0015574819
23591,10.1016/j.joule.2018.04.025,28396,6a,36032,x=0.007(Sample 2),Pb0.953Na0.040Ge0.007Te,700,0.000023328,0.85622,0.0026106,0.00023082,1.4658,1.3938,42866.9410150892,0.001781007
23591,10.1016/j.joule.2018.04.025,28396,6a,36032,x=0.007(Sample 2),Pb0.953Na0.040Ge0.007Te,750,0.000024841,0.7875,0.0026879,0.00024659,1.3049,1.5554,40256.0283402439,0.0020598513
23591,10.1016/j.joule.2018.04.025,28396,6a,36032,x=0.007(Sample 2),Pb0.953Na0.040Ge0.007Te,800,0.000025453,0.71878,0.0027651,0.00026235,1.144,1.717,39288.0996346207,0.0024170455
23591,10.1016/j.joule.2018.04.025,28396,6a,36032,x=0.007(Sample 2),Pb0.953Na0.040Ge0.007Te,850,0.000024938,0.65005,0.0028424,0.00027812,0.98318,1.8786,40099.4466276365,0.0028910271
23591,10.1016/j.joule.2018.04.025,28396,6a,36032,x=0.007(Sample 2),Pb0.953Na0.040Ge0.007Te,900,,,0.0029196,0.00029388,0.82231,2.0403,,0.0035504858
23591,10.1016/j.joule.2018.04.025,28396,6a,36033,x=0.010,Pb0.950Na0.040Ge0.010Te,350,0.0000075201,1.5257,0.0020109,0.00012739,2.4795,0.28996,132976.9550936822,0.0008110103
23591,10.1016/j.joule.2018.04.025,28396,6a,36033,x=0.010,Pb0.950Na0.040Ge0.010Te,400,0.0000097038,1.4401,0.0021027,0.00014358,2.3294,0.46033,103052.4124569756,0.0009026788
23591,10.1016/j.joule.2018.04.025,28396,6a,36033,x=0.010,Pb0.950Na0.040Ge0.010Te,450,0.000011887,1.3545,0.0021944,0.00015977,2.1793,0.63069,84125.515268781,0.0010069288
23591,10.1016/j.joule.2018.04.025,28396,6a,36033,x=0.010,Pb0.950Na0.040Ge0.010Te,500,0.000014071,1.2689,0.0022861,0.00017596,2.0293,0.80105,71068.1543600313,0.0011265461
23591,10.1016/j.joule.2018.04.025,28396,6a,36033,x=0.010,Pb0.950Na0.040Ge0.010Te,550,0.000016255,1.1834,0.0023778,0.00019215,1.8792,0.97142,61519.5324515534,0.0012653257
23591,10.1016/j.joule.2018.04.025,28396,6a,36033,x=0.010,Pb0.950Na0.040Ge0.010Te,600,0.000018438,1.0978,0.0024695,0.00020834,1.7291,1.1418,54235.8173337672,0.0014281996
23591,10.1016/j.joule.2018.04.025,28396,6a,36033,x=0.010,Pb0.950Na0.040Ge0.010Te,650,0.000020622,1.0122,0.0025613,0.00022453,1.579,1.3121,48491.9018523906,0.0016221026
23591,10.1016/j.joule.2018.04.025,28396,6a,36033,x=0.010,Pb0.950Na0.040Ge0.010Te,700,0.000022806,0.92663,0.002653,0.00024072,1.4289,1.4825,43848.1101464527,0.001856673
23591,10.1016/j.joule.2018.04.025,28396,6a,36033,x=0.010,Pb0.950Na0.040Ge0.010Te,750,0.000024989,0.84105,0.0027447,0.00025691,1.2788,1.6529,40017.6077474089,0.002146309
23591,10.1016/j.joule.2018.04.025,28396,6a,36033,x=0.010,Pb0.950Na0.040Ge0.010Te,800,0.000027173,0.75547,0.0028364,0.0002731,1.1287,1.8232,36801.2365215471,0.0025129795
23591,10.1016/j.joule.2018.04.025,28396,6a,36033,x=0.010,Pb0.950Na0.040Ge0.010Te,850,0.000029357,0.66989,0.0029281,0.00028929,0.97864,1.9936,34063.4260993971,0.0029920093
23591,10.1016/j.joule.2018.04.025,28462,6e Lattice thermal conductivity,36033,x=0.010,Pb0.950Na0.040Ge0.010Te,900,,0.58431,,,,,,