sid,DOI,figureid,fignum,sampleid,samplename,composition,Temperature,Carrier mobility,Electrical conductivity,Electrical resistivity,Lattice thermal conductivity,Power factor,Seebeck coefficient,Thermal conductivity,ZT,Figure of merit Z
872,10.1039/c4ee03042g,8684,1(d),10601,x=0.04,FeNb0.96Ti0.04Sb,350,,117410,0.0000085172,,0.0035176,0.00017309,12.681,0.12723,0.0002773914
872,10.1039/c4ee03042g,8684,1(d),10601,x=0.04,FeNb0.96Ti0.04Sb,400,,111580,0.0000089622,,0.0037428,0.00018315,12.093,0.1593,0.0003095014
872,10.1039/c4ee03042g,8684,1(d),10601,x=0.04,FeNb0.96Ti0.04Sb,450,,105750,0.0000094563,,0.0039472,0.0001932,11.504,0.19138,0.0003431154
872,10.1039/c4ee03042g,8684,1(d),10601,x=0.04,FeNb0.96Ti0.04Sb,500,,99919,0.000010008,,0.0041277,0.00020325,10.916,0.22346,0.000378133
872,10.1039/c4ee03042g,8684,1(d),10601,x=0.04,FeNb0.96Ti0.04Sb,550,,94089,0.000010628,,0.0042808,0.0002133,10.328,0.25553,0.0004144849
872,10.1039/c4ee03042g,8684,1(d),10601,x=0.04,FeNb0.96Ti0.04Sb,600,,88260,0.00001133,,0.0044029,0.00022335,9.7398,0.28761,0.0004520524
872,10.1039/c4ee03042g,8684,1(d),10601,x=0.04,FeNb0.96Ti0.04Sb,650,,82430,0.000012132,,0.0044908,0.00023341,9.1516,0.31969,0.000490712
872,10.1039/c4ee03042g,8684,1(d),10601,x=0.04,FeNb0.96Ti0.04Sb,700,,76600,0.000013055,,0.0045403,0.00024346,8.5634,0.35176,0.0005301983
872,10.1039/c4ee03042g,8684,1(d),10601,x=0.04,FeNb0.96Ti0.04Sb,750,,70770,0.00001413,,0.0045482,0.00025351,7.9752,0.38384,0.0005702929
872,10.1039/c4ee03042g,8684,1(d),10601,x=0.04,FeNb0.96Ti0.04Sb,800,,64941,0.000015399,,0.0045111,0.00026356,7.387,0.41592,0.0006106809
872,10.1039/c4ee03042g,8684,1(d),10601,x=0.04,FeNb0.96Ti0.04Sb,850,,59111,0.000016917,,0.0044252,0.00027361,6.7988,0.44799,0.0006508796
872,10.1039/c4ee03042g,8684,1(d),10601,x=0.04,FeNb0.96Ti0.04Sb,900,,53281,0.000018768,,0.0042871,0.00028366,6.2106,0.48007,0.0006902876
872,10.1039/c4ee03042g,8684,1(d),10601,x=0.04,FeNb0.96Ti0.04Sb,950,,47451,0.000021074,,0.0040937,0.00029372,5.6224,0.51215,0.0007281054
872,10.1039/c4ee03042g,8685,3(a),10601,x=0.04,FeNb0.96Ti0.04Sb,300,,123240,0.0000081142,,,,13.269,,
872,10.1039/c4ee03042g,8879,2(a),10601,x=0.04,FeNb0.96Ti0.04Sb,50,,152390,0.0000065621,,,,,,
872,10.1039/c4ee03042g,8879,2(a),10601,x=0.04,FeNb0.96Ti0.04Sb,100,,146560,0.0000068231,,,,,,
872,10.1039/c4ee03042g,8879,2(a),10601,x=0.04,FeNb0.96Ti0.04Sb,150,,140730,0.0000071058,,,,,,
872,10.1039/c4ee03042g,8879,2(a),10601,x=0.04,FeNb0.96Ti0.04Sb,200,,134900,0.0000074129,,,,,,
872,10.1039/c4ee03042g,8879,2(a),10601,x=0.04,FeNb0.96Ti0.04Sb,250,,129070,0.0000077477,,,,,,
872,10.1039/c4ee03042g,8879,2(a),10601,x=0.04,FeNb0.96Ti0.04Sb,1000,,41622,0.000024026,,,,,,
872,10.1039/c4ee03042g,8684,1(d),10602,x=0.06,FeNb0.94Ti0.06Sb,350,,239290,0.000004179,,0.0053962,0.00015017,12.266,0.14902,0.0004399315
872,10.1039/c4ee03042g,8684,1(d),10602,x=0.06,FeNb0.94Ti0.06Sb,400,,221630,0.000004512,,0.0056773,0.00016005,11.772,0.1833,0.0004822715
872,10.1039/c4ee03042g,8684,1(d),10602,x=0.06,FeNb0.94Ti0.06Sb,450,,203960,0.0000049029,,0.0058896,0.00016993,11.277,0.21759,0.0005222666
872,10.1039/c4ee03042g,8684,1(d),10602,x=0.06,FeNb0.94Ti0.06Sb,500,,186290,0.000005368,,0.0060237,0.00017982,10.783,0.25187,0.0005586293
872,10.1039/c4ee03042g,8684,1(d),10602,x=0.06,FeNb0.94Ti0.06Sb,550,,168620,0.0000059305,,0.006068,0.0001897,10.288,0.28615,0.0005898134
872,10.1039/c4ee03042g,8684,1(d),10602,x=0.06,FeNb0.94Ti0.06Sb,600,,150950,0.0000066247,,0.0060127,0.00019958,9.7937,0.32043,0.0006139355
872,10.1039/c4ee03042g,8684,1(d),10602,x=0.06,FeNb0.94Ti0.06Sb,650,,133290,0.0000075024,,0.0058479,0.00020946,9.2992,0.35471,0.0006288605
872,10.1039/c4ee03042g,8684,1(d),10602,x=0.06,FeNb0.94Ti0.06Sb,700,,115620,0.000008649,,0.005563,0.00021935,8.8047,0.389,0.0006318216
872,10.1039/c4ee03042g,8684,1(d),10602,x=0.06,FeNb0.94Ti0.06Sb,750,,97950,0.000010209,,0.0051469,0.00022923,8.3102,0.42328,0.0006193473
872,10.1039/c4ee03042g,8684,1(d),10602,x=0.06,FeNb0.94Ti0.06Sb,800,,80282,0.000012456,,0.00459,0.00023911,7.8157,0.45756,0.0005872795
872,10.1039/c4ee03042g,8684,1(d),10602,x=0.06,FeNb0.94Ti0.06Sb,850,,62614,0.000015971,,0.0038818,0.00024899,7.3211,0.49184,0.0005302209
872,10.1039/c4ee03042g,8684,1(d),10602,x=0.06,FeNb0.94Ti0.06Sb,900,,44946,0.000022249,,0.0030122,0.00025888,6.8266,0.52612,0.0004412445
872,10.1039/c4ee03042g,8684,1(d),10602,x=0.06,FeNb0.94Ti0.06Sb,950,,27278,0.00003666,,0.0019703,0.00026876,6.3321,0.56041,0.0003111606
872,10.1039/c4ee03042g,8684,1(d),10602,x=0.06,FeNb0.94Ti0.06Sb,1000,,9610,0.00010406,,,,5.8376,0.59469,
872,10.1039/c4ee03042g,8685,3(a),10602,x=0.06,FeNb0.94Ti0.06Sb,300,,256960,0.0000038917,,,,12.761,,
872,10.1039/c4ee03042g,8685,3(a),10602,x=0.06,FeNb0.94Ti0.06Sb,1050,,-8058,-0.0001241,,,,5.3431,,
872,10.1039/c4ee03042g,8879,2(a),10602,x=0.06,FeNb0.94Ti0.06Sb,50,,345300,0.000002896,,,,,,
872,10.1039/c4ee03042g,8879,2(a),10602,x=0.06,FeNb0.94Ti0.06Sb,100,,327630,0.0000030522,,,,,,
872,10.1039/c4ee03042g,8879,2(a),10602,x=0.06,FeNb0.94Ti0.06Sb,150,,309970,0.0000032261,,,,,,
872,10.1039/c4ee03042g,8879,2(a),10602,x=0.06,FeNb0.94Ti0.06Sb,200,,292300,0.0000034211,,,,,,
872,10.1039/c4ee03042g,8879,2(a),10602,x=0.06,FeNb0.94Ti0.06Sb,250,,274630,0.0000036413,,,,,,
872,10.1039/c4ee03042g,8684,1(d),10603,x=0.08,FeNb0.92Ti0.08Sb,350,,445610,0.0000022441,,0.0085293,0.00013835,11.11,0.19688,0.0007677138
872,10.1039/c4ee03042g,8684,1(d),10603,x=0.08,FeNb0.92Ti0.08Sb,400,,407020,0.0000024569,,0.0087654,0.00014675,10.672,0.233,0.0008213456
872,10.1039/c4ee03042g,8684,1(d),10603,x=0.08,FeNb0.92Ti0.08Sb,450,,368420,0.0000027143,,0.0088684,0.00015515,10.235,0.26912,0.0008664778
872,10.1039/c4ee03042g,8684,1(d),10603,x=0.08,FeNb0.92Ti0.08Sb,500,,329830,0.0000030319,,0.0088236,0.00016356,9.7978,0.30525,0.0009005695
872,10.1039/c4ee03042g,8684,1(d),10603,x=0.08,FeNb0.92Ti0.08Sb,550,,291230,0.0000034337,,0.0086117,0.00017196,9.3604,0.34137,0.0009200141
872,10.1039/c4ee03042g,8684,1(d),10603,x=0.08,FeNb0.92Ti0.08Sb,600,,252640,0.0000039582,,0.0082192,0.00018037,8.9231,0.37749,0.0009211149
872,10.1039/c4ee03042g,8684,1(d),10603,x=0.08,FeNb0.92Ti0.08Sb,650,,214040,0.000004672,,0.0076271,0.00018877,8.4857,0.41362,0.000898818
872,10.1039/c4ee03042g,8684,1(d),10603,x=0.08,FeNb0.92Ti0.08Sb,700,,175450,0.0000056996,,0.0068215,0.00019718,8.0484,0.44974,0.0008475598
872,10.1039/c4ee03042g,8684,1(d),10603,x=0.08,FeNb0.92Ti0.08Sb,750,,136850,0.0000073073,,0.0057837,0.00020558,7.611,0.48586,0.0007599133
872,10.1039/c4ee03042g,8684,1(d),10603,x=0.08,FeNb0.92Ti0.08Sb,800,,98258,0.000010177,,0.0044994,0.00021399,7.1736,0.52198,0.0006272165
872,10.1039/c4ee03042g,8684,1(d),10603,x=0.08,FeNb0.92Ti0.08Sb,850,,59664,0.000016761,,0.0029508,0.00022239,6.7363,0.55811,0.0004380446
872,10.1039/c4ee03042g,8684,1(d),10603,x=0.08,FeNb0.92Ti0.08Sb,900,,21069,0.000047463,,0.0011223,0.0002308,6.2989,0.59423,0.000178174
872,10.1039/c4ee03042g,8684,1(d),10603,x=0.08,FeNb0.92Ti0.08Sb,950,,-17525,-0.000057061,,-0.0010027,0.0002392,5.8616,0.63035,-0.0001710625
872,10.1039/c4ee03042g,8684,1(d),10603,x=0.08,FeNb0.92Ti0.08Sb,1000,,-56120,-0.000017819,,-0.0034408,0.00024761,5.4242,0.66647,-0.0006343424
872,10.1039/c4ee03042g,8684,1(d),10603,x=0.08,FeNb0.92Ti0.08Sb,1050,,-94715,-0.000010558,,-0.0062077,0.00025601,4.9869,0.7026,-0.0012448014
872,10.1039/c4ee03042g,8685,3(a),10603,x=0.08,FeNb0.92Ti0.08Sb,300,,484200,0.0000020653,,,,11.547,,
872,10.1039/c4ee03042g,8879,2(a),10603,x=0.08,FeNb0.92Ti0.08Sb,50,,677180,0.0000014767,,,,,,
872,10.1039/c4ee03042g,8879,2(a),10603,x=0.08,FeNb0.92Ti0.08Sb,100,,638580,0.000001566,,,,,,
872,10.1039/c4ee03042g,8879,2(a),10603,x=0.08,FeNb0.92Ti0.08Sb,150,,599990,0.0000016667,,,,,,
872,10.1039/c4ee03042g,8879,2(a),10603,x=0.08,FeNb0.92Ti0.08Sb,200,,561390,0.0000017813,,,,,,
872,10.1039/c4ee03042g,8879,2(a),10603,x=0.08,FeNb0.92Ti0.08Sb,250,,522800,0.0000019128,,,,,,
872,10.1039/c4ee03042g,8879,2(a),10603,x=0.08,FeNb0.92Ti0.08Sb,1100,,-133310,-0.0000075013,,,,,,
872,10.1039/c4ee03042g,8684,1(d),10604,x=0.12,FeNb0.88Ti0.12Sb,350,,606590,0.0000016486,,0.0082384,0.00011654,9.7083,0.16356,0.0008485935
872,10.1039/c4ee03042g,8684,1(d),10604,x=0.12,FeNb0.88Ti0.12Sb,400,,551460,0.0000018134,,0.008567,0.00012464,9.329,0.20723,0.0009183192
872,10.1039/c4ee03042g,8684,1(d),10604,x=0.12,FeNb0.88Ti0.12Sb,450,,496340,0.0000020147,,0.0087455,0.00013274,8.9497,0.25089,0.0009771836
872,10.1039/c4ee03042g,8684,1(d),10604,x=0.12,FeNb0.88Ti0.12Sb,500,,441220,0.0000022664,,0.008752,0.00014084,8.5704,0.29456,0.0010211892
872,10.1039/c4ee03042g,8684,1(d),10604,x=0.12,FeNb0.88Ti0.12Sb,550,,386100,0.00000259,,0.0085661,0.00014895,8.1911,0.33823,0.0010457814
872,10.1039/c4ee03042g,8684,1(d),10604,x=0.12,FeNb0.88Ti0.12Sb,600,,330970,0.0000030214,,0.0081633,0.00015705,7.8118,0.38189,0.001044996
872,10.1039/c4ee03042g,8684,1(d),10604,x=0.12,FeNb0.88Ti0.12Sb,650,,275850,0.0000036252,,0.0075237,0.00016515,7.4325,0.42556,0.0010122704
872,10.1039/c4ee03042g,8684,1(d),10604,x=0.12,FeNb0.88Ti0.12Sb,700,,220730,0.0000045304,,0.0066253,0.00017325,7.0532,0.46923,0.0009393325
872,10.1039/c4ee03042g,8684,1(d),10604,x=0.12,FeNb0.88Ti0.12Sb,750,,165600,0.0000060386,,0.0054468,0.00018136,6.6739,0.51289,0.0008161345
872,10.1039/c4ee03042g,8684,1(d),10604,x=0.12,FeNb0.88Ti0.12Sb,800,,110480,0.0000090514,,0.0039657,0.00018946,6.2946,0.55656,0.0006300162
872,10.1039/c4ee03042g,8684,1(d),10604,x=0.12,FeNb0.88Ti0.12Sb,850,,55359,0.000018064,,0.0021607,0.00019756,5.9153,0.60022,0.0003652731
872,10.1039/c4ee03042g,8684,1(d),10604,x=0.12,FeNb0.88Ti0.12Sb,900,,236.27,0.0042324,,0.0000099933,0.00020566,5.536,0.64389,0.0000018051
872,10.1039/c4ee03042g,8684,1(d),10604,x=0.12,FeNb0.88Ti0.12Sb,950,,-54887,-0.000018219,,-0.0025082,0.00021377,5.1567,0.68756,-0.0004863963
872,10.1039/c4ee03042g,8684,1(d),10604,x=0.12,FeNb0.88Ti0.12Sb,1000,,-110010,-0.0000090901,,-0.0054154,0.00022187,4.7774,0.73122,-0.0011335454
872,10.1039/c4ee03042g,8684,1(d),10604,x=0.12,FeNb0.88Ti0.12Sb,1050,,-165130,-0.0000060558,,-0.0087331,0.00022997,4.3981,0.77489,-0.0019856529
872,10.1039/c4ee03042g,8685,3(a),10604,x=0.12,FeNb0.88Ti0.12Sb,300,,661710,0.0000015112,,0.0077798,0.00010843,10.088,0.23136,0.0007711935
872,10.1039/c4ee03042g,8879,2(a),10604,x=0.12,FeNb0.88Ti0.12Sb,50,,937320,0.0000010669,,,,,,
872,10.1039/c4ee03042g,8879,2(a),10604,x=0.12,FeNb0.88Ti0.12Sb,100,,882200,0.0000011335,,,,,,
872,10.1039/c4ee03042g,8879,2(a),10604,x=0.12,FeNb0.88Ti0.12Sb,150,,827080,0.0000012091,,,,,,
872,10.1039/c4ee03042g,8879,2(a),10604,x=0.12,FeNb0.88Ti0.12Sb,200,,771960,0.0000012954,,,,,,
872,10.1039/c4ee03042g,8879,2(a),10604,x=0.12,FeNb0.88Ti0.12Sb,250,,716830,0.000001395,,,,,,
872,10.1039/c4ee03042g,8879,2(a),10604,x=0.12,FeNb0.88Ti0.12Sb,1100,,-220250,-0.0000045403,,,,,,
872,10.1039/c4ee03042g,8684,1(d),10605,x=0.16,FeNb0.84Ti0.16Sb,350,,526320,0.0000019,,0.0044488,0.000091938,7.7902,0.13673,0.0005710765
872,10.1039/c4ee03042g,8684,1(d),10605,x=0.16,FeNb0.84Ti0.16Sb,400,,481670,0.0000020761,,0.0049789,0.00010167,7.5366,0.19548,0.0006606295
872,10.1039/c4ee03042g,8684,1(d),10605,x=0.16,FeNb0.84Ti0.16Sb,450,,437020,0.0000022882,,0.0054712,0.00011189,7.283,0.25424,0.0007512289
872,10.1039/c4ee03042g,8684,1(d),10605,x=0.16,FeNb0.84Ti0.16Sb,500,,392370,0.0000025486,,0.0058678,0.00012229,7.0294,0.31299,0.0008347512
872,10.1039/c4ee03042g,8684,1(d),10605,x=0.16,FeNb0.84Ti0.16Sb,550,,347720,0.0000028759,,0.0061176,0.00013264,6.7758,0.37175,0.0009028602
872,10.1039/c4ee03042g,8684,1(d),10605,x=0.16,FeNb0.84Ti0.16Sb,600,,303070,0.0000032996,,0.0061776,0.00014277,6.5222,0.4305,0.0009471651
872,10.1039/c4ee03042g,8684,1(d),10605,x=0.16,FeNb0.84Ti0.16Sb,650,,258420,0.0000038697,,0.0060154,0.00015257,6.2686,0.48926,0.0009596082
872,10.1039/c4ee03042g,8684,1(d),10605,x=0.16,FeNb0.84Ti0.16Sb,700,,213770,0.0000046779,,0.0056081,0.00016197,6.015,0.54802,0.0009323525
872,10.1039/c4ee03042g,8684,1(d),10605,x=0.16,FeNb0.84Ti0.16Sb,750,,169120,0.000005913,,0.0049406,0.00017092,5.7614,0.60677,0.0008575346
872,10.1039/c4ee03042g,8684,1(d),10605,x=0.16,FeNb0.84Ti0.16Sb,800,,124470,0.0000080341,,0.0040055,0.00017939,5.5078,0.66553,0.0007272414
872,10.1039/c4ee03042g,8684,1(d),10605,x=0.16,FeNb0.84Ti0.16Sb,850,,79824,0.000012528,,0.0028021,0.00018736,5.2542,0.72428,0.0005333067
872,10.1039/c4ee03042g,8684,1(d),10605,x=0.16,FeNb0.84Ti0.16Sb,900,,35174,0.00002843,,0.0013343,0.00019477,5.0006,0.78304,0.000266828
872,10.1039/c4ee03042g,8684,1(d),10605,x=0.16,FeNb0.84Ti0.16Sb,950,,-9475.5,-0.00010554,,-0.00038496,0.00020156,4.747,0.84179,-0.0000810954
872,10.1039/c4ee03042g,8684,1(d),10605,x=0.16,FeNb0.84Ti0.16Sb,1000,,-54125,-0.000018476,,-0.0023336,0.00020764,4.4934,0.90055,-0.0005193395
872,10.1039/c4ee03042g,8684,1(d),10605,x=0.16,FeNb0.84Ti0.16Sb,1050,,-98775,-0.000010124,,-0.0044754,0.00021286,4.2398,0.9593,-0.0010555687
872,10.1039/c4ee03042g,8685,3(a),10605,x=0.16,FeNb0.84Ti0.16Sb,300,,570970,0.0000017514,,0.0039425,0.000083096,8.0438,0.14704,0.000490129
872,10.1039/c4ee03042g,8685,3(a),10605,x=0.16,FeNb0.84Ti0.16Sb,1100,,,,,,,3.9862,,
872,10.1039/c4ee03042g,8879,2(a),10605,x=0.16,FeNb0.84Ti0.16Sb,50,,794220,0.0000012591,,,,,,
872,10.1039/c4ee03042g,8879,2(a),10605,x=0.16,FeNb0.84Ti0.16Sb,100,,749570,0.0000013341,,,,,,
872,10.1039/c4ee03042g,8879,2(a),10605,x=0.16,FeNb0.84Ti0.16Sb,150,,704920,0.0000014186,,,,,,
872,10.1039/c4ee03042g,8879,2(a),10605,x=0.16,FeNb0.84Ti0.16Sb,200,,660270,0.0000015145,,,,,,
872,10.1039/c4ee03042g,8879,2(a),10605,x=0.16,FeNb0.84Ti0.16Sb,250,,615620,0.0000016244,,,,,,
872,10.1039/c4ee03042g,8684,1(d),10606,x=0.20,FeNb0.8Ti0.2Sb,350,,528280,0.0000018929,,0.0032303,0.000078197,6.6535,0.10065,0.0004855039
872,10.1039/c4ee03042g,8684,1(d),10606,x=0.20,FeNb0.8Ti0.2Sb,400,,485460,0.0000020599,,0.0037958,0.000088425,6.4757,0.1553,0.0005861606
872,10.1039/c4ee03042g,8684,1(d),10606,x=0.20,FeNb0.8Ti0.2Sb,450,,442630,0.0000022592,,0.0043176,0.000098765,6.2979,0.22333,0.0006855619
872,10.1039/c4ee03042g,8684,1(d),10606,x=0.20,FeNb0.8Ti0.2Sb,500,,399810,0.0000025012,,0.0047589,0.0001091,6.1201,0.29136,0.0007775853
872,10.1039/c4ee03042g,8684,1(d),10606,x=0.20,FeNb0.8Ti0.2Sb,550,,356980,0.0000028013,,0.0050807,0.0001193,5.9424,0.35939,0.0008549912
872,10.1039/c4ee03042g,8684,1(d),10606,x=0.20,FeNb0.8Ti0.2Sb,600,,314160,0.0000031831,,0.0052507,0.00012928,5.7646,0.42742,0.0009108524
872,10.1039/c4ee03042g,8684,1(d),10606,x=0.20,FeNb0.8Ti0.2Sb,650,,271330,0.0000036855,,0.0052378,0.00013894,5.5868,0.49545,0.0009375313
872,10.1039/c4ee03042g,8684,1(d),10606,x=0.20,FeNb0.8Ti0.2Sb,700,,228510,0.0000043762,,0.0050188,0.0001482,5.409,0.56348,0.000927861
872,10.1039/c4ee03042g,8684,1(d),10606,x=0.20,FeNb0.8Ti0.2Sb,750,,185680,0.0000053856,,0.0045762,0.00015699,5.2312,0.63151,0.0008747897
872,10.1039/c4ee03042g,8684,1(d),10606,x=0.20,FeNb0.8Ti0.2Sb,800,,142860,0.0000069999,,0.0039012,0.00016525,5.0535,0.69954,0.0007719798
872,10.1039/c4ee03042g,8684,1(d),10606,x=0.20,FeNb0.8Ti0.2Sb,850,,100030,0.000009997,,0.0029924,0.00017296,4.8757,0.76756,0.0006137375
872,10.1039/c4ee03042g,8684,1(d),10606,x=0.20,FeNb0.8Ti0.2Sb,900,,57206,0.000017481,,0.0018553,0.00018009,4.6979,0.83559,0.0003949211
872,10.1039/c4ee03042g,8684,1(d),10606,x=0.20,FeNb0.8Ti0.2Sb,950,,14381,0.000069536,,0.00050101,0.00018665,4.5201,0.90362,0.0001108405
872,10.1039/c4ee03042g,8684,1(d),10606,x=0.20,FeNb0.8Ti0.2Sb,1000,,-28444,-0.000035157,,-0.0010558,0.00019266,4.3423,0.97165,-0.000243143
872,10.1039/c4ee03042g,8684,1(d),10606,x=0.20,FeNb0.8Ti0.2Sb,1050,,-71270,-0.000014031,,-0.0027983,0.00019815,4.1646,1.0397,-0.0006719253
872,10.1039/c4ee03042g,8685,3(a),10606,x=0.20,FeNb0.8Ti0.2Sb,300,,571110,0.000001751,,,,6.8313,,
872,10.1039/c4ee03042g,8879,2(a),10606,x=0.20,FeNb0.8Ti0.2Sb,50,,785230,0.0000012735,,,,,,
872,10.1039/c4ee03042g,8879,2(a),10606,x=0.20,FeNb0.8Ti0.2Sb,100,,742410,0.000001347,,,,,,
872,10.1039/c4ee03042g,8879,2(a),10606,x=0.20,FeNb0.8Ti0.2Sb,150,,699580,0.0000014294,,,,,,
872,10.1039/c4ee03042g,8879,2(a),10606,x=0.20,FeNb0.8Ti0.2Sb,200,,656760,0.0000015226,,,,,,
872,10.1039/c4ee03042g,8879,2(a),10606,x=0.20,FeNb0.8Ti0.2Sb,250,,613930,0.0000016289,,,,,,
872,10.1039/c4ee03042g,8684,1(d),10607,x=0.24,FeNb0.76Ti0.24Sb,350,,597280,0.0000016743,,0.0042826,0.000084677,6.7929,0.13991,0.0006304524
872,10.1039/c4ee03042g,8684,1(d),10607,x=0.24,FeNb0.76Ti0.24Sb,400,,547080,0.0000018279,,0.0047149,0.000092835,6.6148,0.20387,0.0007127804
872,10.1039/c4ee03042g,8684,1(d),10607,x=0.24,FeNb0.76Ti0.24Sb,450,,496870,0.0000020126,,0.0050676,0.00010099,6.4367,0.26782,0.0007872978
872,10.1039/c4ee03042g,8684,1(d),10607,x=0.24,FeNb0.76Ti0.24Sb,500,,446670,0.0000022388,,0.0053215,0.00010915,6.2586,0.33178,0.00085027
872,10.1039/c4ee03042g,8684,1(d),10607,x=0.24,FeNb0.76Ti0.24Sb,550,,396470,0.0000025223,,0.0054561,0.00011731,6.0806,0.39574,0.0008972963
872,10.1039/c4ee03042g,8684,1(d),10607,x=0.24,FeNb0.76Ti0.24Sb,600,,346270,0.0000028879,,0.0054512,0.00012547,5.9025,0.45969,0.0009235409
872,10.1039/c4ee03042g,8684,1(d),10607,x=0.24,FeNb0.76Ti0.24Sb,650,,296070,0.0000033776,,0.0052869,0.00013363,5.7244,0.52365,0.0009235728
872,10.1039/c4ee03042g,8684,1(d),10607,x=0.24,FeNb0.76Ti0.24Sb,700,,245870,0.0000040672,,0.0049424,0.00014178,5.5464,0.5876,0.0008911005
872,10.1039/c4ee03042g,8684,1(d),10607,x=0.24,FeNb0.76Ti0.24Sb,750,,195670,0.0000051106,,0.0043991,0.00014994,5.3683,0.65156,0.0008194587
872,10.1039/c4ee03042g,8684,1(d),10607,x=0.24,FeNb0.76Ti0.24Sb,800,,145470,0.0000068743,,0.0036361,0.0001581,5.1902,0.71552,0.0007005703
872,10.1039/c4ee03042g,8684,1(d),10607,x=0.24,FeNb0.76Ti0.24Sb,850,,95267,0.000010497,,0.0026334,0.00016626,5.0121,0.77947,0.0005254085
872,10.1039/c4ee03042g,8684,1(d),10607,x=0.24,FeNb0.76Ti0.24Sb,900,,45066,0.00002219,,0.001371,0.00017442,4.8341,0.84343,0.0002836102
872,10.1039/c4ee03042g,8684,1(d),10607,x=0.24,FeNb0.76Ti0.24Sb,950,,-5134.6,-0.00019476,,-0.00017115,0.00018257,4.656,0.90739,-0.000036759
872,10.1039/c4ee03042g,8684,1(d),10607,x=0.24,FeNb0.76Ti0.24Sb,1000,,-55336,-0.000018071,,-0.002013,0.00019073,4.4779,0.97134,-0.0004495411
872,10.1039/c4ee03042g,8684,1(d),10607,x=0.24,FeNb0.76Ti0.24Sb,1050,,-105540,-0.0000094751,,-0.0041749,0.00019889,4.2999,1.0353,-0.0009709296
872,10.1039/c4ee03042g,8879,2(a),10607,x=0.24,FeNb0.76Ti0.24Sb,50,,898480,0.000001113,,,,,,
872,10.1039/c4ee03042g,8879,2(a),10607,x=0.24,FeNb0.76Ti0.24Sb,100,,848280,0.0000011789,,,,,,
872,10.1039/c4ee03042g,8879,2(a),10607,x=0.24,FeNb0.76Ti0.24Sb,150,,798080,0.000001253,,,,,,
872,10.1039/c4ee03042g,8879,2(a),10607,x=0.24,FeNb0.76Ti0.24Sb,200,,747880,0.0000013371,,,,,,
872,10.1039/c4ee03042g,8879,2(a),10607,x=0.24,FeNb0.76Ti0.24Sb,250,,697680,0.0000014333,,,,,,
872,10.1039/c4ee03042g,8879,2(a),10607,x=0.24,FeNb0.76Ti0.24Sb,300,,647480,0.0000015444,,,,,,
872,10.1039/c4ee03042g,8879,2(a),10607,x=0.24,FeNb0.76Ti0.24Sb,1100,,-155740,-0.000006421,,-0.0066765,0.00020705,,,
2429,10.1007/s11664-012-2253-9,2859,2,4101,YbFe4Sb12,YbFe4Sb12,350,,265080,0.0000037724,1.6843,0.0015421,0.000075943,3.9866,0.13585,0.0003868208
2429,10.1007/s11664-012-2253-9,2859,2,4101,YbFe4Sb12,YbFe4Sb12,400,,255800,0.0000039093,1.6034,0.0016137,0.000079596,4.0532,0.162,0.0003981299
2429,10.1007/s11664-012-2253-9,2859,2,4101,YbFe4Sb12,YbFe4Sb12,450,,246510,0.0000040566,1.5226,0.0016853,0.000083249,4.1199,0.18815,0.0004090633
2429,10.1007/s11664-012-2253-9,2859,2,4101,YbFe4Sb12,YbFe4Sb12,500,,237230,0.0000042153,1.4417,0.0017569,0.000086902,4.1866,0.2143,0.0004196484
2429,10.1007/s11664-012-2253-9,2859,2,4101,YbFe4Sb12,YbFe4Sb12,550,,227950,0.0000043869,1.3608,0.0018285,0.000090555,4.2532,0.24045,0.0004299116
2429,10.1007/s11664-012-2253-9,2859,2,4101,YbFe4Sb12,YbFe4Sb12,600,,218660,0.0000045733,1.2799,0.0019002,0.000094208,4.3199,0.2666,0.0004398713
2429,10.1007/s11664-012-2253-9,2859,2,4101,YbFe4Sb12,YbFe4Sb12,650,,209380,0.000004776,1.199,0.0019718,0.000097862,4.3866,0.29275,0.0004495053
2429,10.1007/s11664-012-2253-9,2859,2,4101,YbFe4Sb12,YbFe4Sb12,700,,200100,0.0000049975,1.1181,0.0020434,0.00010151,4.4533,0.3189,0.0004588507