sid,DOI,figureid,fignum,sampleid,samplename,composition,Temperature,Carrier mobility,Electrical conductivity,Electrical resistivity,Lattice thermal conductivity,Power factor,Seebeck coefficient,Thermal conductivity,ZT,Figure of merit Z
5936,10.1002/aenm.201400600,25509,2b,31762,Fe(V0.6Nb0.4)1−xTixSb_ x=0.20,Fe(V0.6Nb0.4)0.80Ti0.20Sb,300,0.00064429,111670,0.000008955,,,,3.6148,,
5936,10.1002/aenm.201400600,25510,2C,31762,Fe(V0.6Nb0.4)1−xTixSb_ x=0.20,Fe(V0.6Nb0.4)0.80Ti0.20Sb,50,0.00093534,,,,,,,,
5936,10.1002/aenm.201400600,25510,2C,31762,Fe(V0.6Nb0.4)1−xTixSb_ x=0.20,Fe(V0.6Nb0.4)0.80Ti0.20Sb,100,0.00087713,,,,,,,,
5936,10.1002/aenm.201400600,25510,2C,31762,Fe(V0.6Nb0.4)1−xTixSb_ x=0.20,Fe(V0.6Nb0.4)0.80Ti0.20Sb,150,0.00081892,,,,,,,,
5936,10.1002/aenm.201400600,25510,2C,31762,Fe(V0.6Nb0.4)1−xTixSb_ x=0.20,Fe(V0.6Nb0.4)0.80Ti0.20Sb,200,0.00076071,,,,,,,,
5936,10.1002/aenm.201400600,25510,2C,31762,Fe(V0.6Nb0.4)1−xTixSb_ x=0.20,Fe(V0.6Nb0.4)0.80Ti0.20Sb,250,0.0007025,,,,,,,,
5936,10.1002/aenm.201400600,25508,2a,31763,Fe(V0.6Nb0.4)1−xTixSb x=0.24,Fe(V0.6Nb0.4)0.76Ti0.24Sb,350,0.00043666,86710,0.000011533,,0.0020894,0.00015523,3.5331,0.2066,0.0005913787
5936,10.1002/aenm.201400600,25508,2a,31763,Fe(V0.6Nb0.4)1−xTixSb x=0.24,Fe(V0.6Nb0.4)0.76Ti0.24Sb,400,0.00041228,84109,0.000011889,,0.0021772,0.00016089,3.5004,0.2579,0.0006219861
5936,10.1002/aenm.201400600,25508,2a,31763,Fe(V0.6Nb0.4)1−xTixSb x=0.24,Fe(V0.6Nb0.4)0.76Ti0.24Sb,450,0.0003879,81508,0.000012269,,0.0022609,0.00016655,3.4677,0.3092,0.0006519883
5936,10.1002/aenm.201400600,25508,2a,31763,Fe(V0.6Nb0.4)1−xTixSb x=0.24,Fe(V0.6Nb0.4)0.76Ti0.24Sb,500,0.00036352,78907,0.000012673,,0.0023401,0.00017221,3.435,0.3605,0.0006812518
5936,10.1002/aenm.201400600,25508,2a,31763,Fe(V0.6Nb0.4)1−xTixSb x=0.24,Fe(V0.6Nb0.4)0.76Ti0.24Sb,550,0.00033914,76305,0.000013105,,0.0024141,0.00017787,3.4022,0.4118,0.0007095703
5936,10.1002/aenm.201400600,25508,2a,31763,Fe(V0.6Nb0.4)1−xTixSb x=0.24,Fe(V0.6Nb0.4)0.76Ti0.24Sb,600,0.00031475,73704,0.000013568,,0.0024826,0.00018353,3.3695,0.4631,0.0007367859
5936,10.1002/aenm.201400600,25508,2a,31763,Fe(V0.6Nb0.4)1−xTixSb x=0.24,Fe(V0.6Nb0.4)0.76Ti0.24Sb,650,0.00029037,71103,0.000014064,,0.002545,0.00018919,3.3368,0.5144,0.0007627068
5936,10.1002/aenm.201400600,25508,2a,31763,Fe(V0.6Nb0.4)1−xTixSb x=0.24,Fe(V0.6Nb0.4)0.76Ti0.24Sb,700,0.00026599,68502,0.000014598,,0.0026008,0.00019485,3.304,0.56571,0.0007871671
5936,10.1002/aenm.201400600,25508,2a,31763,Fe(V0.6Nb0.4)1−xTixSb x=0.24,Fe(V0.6Nb0.4)0.76Ti0.24Sb,750,0.00024161,65901,0.000015174,,0.0026495,0.00020051,3.2713,0.61701,0.0008099227
5936,10.1002/aenm.201400600,25508,2a,31763,Fe(V0.6Nb0.4)1−xTixSb x=0.24,Fe(V0.6Nb0.4)0.76Ti0.24Sb,800,0.00021723,63299,0.000015798,,0.0026906,0.00020617,3.2386,0.66831,0.0008307911
5936,10.1002/aenm.201400600,25508,2a,31763,Fe(V0.6Nb0.4)1−xTixSb x=0.24,Fe(V0.6Nb0.4)0.76Ti0.24Sb,850,,60698,0.000016475,,0.0027236,0.00021183,3.2059,0.71961,0.0008495586
5936,10.1002/aenm.201400600,25510,2C,31763,Fe(V0.6Nb0.4)1−xTixSb x=0.24,Fe(V0.6Nb0.4)0.76Ti0.24Sb,50,0.00058295,,,,,,,,
5936,10.1002/aenm.201400600,25510,2C,31763,Fe(V0.6Nb0.4)1−xTixSb x=0.24,Fe(V0.6Nb0.4)0.76Ti0.24Sb,100,0.00055857,,,,,,,,
5936,10.1002/aenm.201400600,25510,2C,31763,Fe(V0.6Nb0.4)1−xTixSb x=0.24,Fe(V0.6Nb0.4)0.76Ti0.24Sb,150,0.00053419,,,,,,,,
5936,10.1002/aenm.201400600,25510,2C,31763,Fe(V0.6Nb0.4)1−xTixSb x=0.24,Fe(V0.6Nb0.4)0.76Ti0.24Sb,200,0.0005098,,,,,,,,
5936,10.1002/aenm.201400600,25510,2C,31763,Fe(V0.6Nb0.4)1−xTixSb x=0.24,Fe(V0.6Nb0.4)0.76Ti0.24Sb,250,0.00048542,,,,,,,,
5936,10.1002/aenm.201400600,25510,2C,31763,Fe(V0.6Nb0.4)1−xTixSb x=0.24,Fe(V0.6Nb0.4)0.76Ti0.24Sb,300,0.00046104,,,,,,3.5659,,
5936,10.1002/aenm.201400600,25524,4a,31763,Fe(V0.6Nb0.4)1−xTixSb x=0.24,Fe(V0.6Nb0.4)0.76Ti0.24Sb,900,,,,,,,3.1731,,
5936,10.1002/aenm.201400600,25508,2a,31761,Fe(V0.6Nb0.4)1−xTixSb_ x=0.18,Fe(V0.6Nb0.4)0.82Ti0.18Sb,350,0.00061084,113360,0.0000088215,,0.0028659,0.000159,3.6242,0.30094,0.0007907676
5936,10.1002/aenm.201400600,25508,2a,31761,Fe(V0.6Nb0.4)1−xTixSb_ x=0.18,Fe(V0.6Nb0.4)0.82Ti0.18Sb,400,0.00055696,107760,0.0000092799,,0.0029509,0.00016548,3.5941,0.34861,0.00082104
5936,10.1002/aenm.201400600,25508,2a,31761,Fe(V0.6Nb0.4)1−xTixSb_ x=0.18,Fe(V0.6Nb0.4)0.82Ti0.18Sb,450,0.00050308,102160,0.0000097886,,0.0030212,0.00017197,3.564,0.39629,0.0008476992
5936,10.1002/aenm.201400600,25508,2a,31761,Fe(V0.6Nb0.4)1−xTixSb_ x=0.18,Fe(V0.6Nb0.4)0.82Ti0.18Sb,500,0.0004492,96556,0.000010357,,0.0030748,0.00017845,3.534,0.44396,0.0008700623
5936,10.1002/aenm.201400600,25508,2a,31761,Fe(V0.6Nb0.4)1−xTixSb_ x=0.18,Fe(V0.6Nb0.4)0.82Ti0.18Sb,550,0.00039532,90954,0.000010995,,0.0031109,0.00018494,3.5039,0.49164,0.0008878393
5936,10.1002/aenm.201400600,25508,2a,31761,Fe(V0.6Nb0.4)1−xTixSb_ x=0.18,Fe(V0.6Nb0.4)0.82Ti0.18Sb,600,0.00034144,85353,0.000011716,,0.0031275,0.00019142,3.4739,0.53931,0.000900285
5936,10.1002/aenm.201400600,25508,2a,31761,Fe(V0.6Nb0.4)1−xTixSb_ x=0.18,Fe(V0.6Nb0.4)0.82Ti0.18Sb,650,0.00028756,79751,0.000012539,,0.0031237,0.00019791,3.4438,0.58698,0.0009070504
5936,10.1002/aenm.201400600,25508,2a,31761,Fe(V0.6Nb0.4)1−xTixSb_ x=0.18,Fe(V0.6Nb0.4)0.82Ti0.18Sb,700,0.00023368,74150,0.000013486,,0.0030976,0.00020439,3.4137,0.63466,0.0009074025
5936,10.1002/aenm.201400600,25508,2a,31761,Fe(V0.6Nb0.4)1−xTixSb_ x=0.18,Fe(V0.6Nb0.4)0.82Ti0.18Sb,750,0.0001798,68549,0.000014588,,0.0030484,0.00021088,3.3837,0.68233,0.0009009073
5936,10.1002/aenm.201400600,25508,2a,31761,Fe(V0.6Nb0.4)1−xTixSb_ x=0.18,Fe(V0.6Nb0.4)0.82Ti0.18Sb,800,0.00012592,62947,0.000015886,,0.002974,0.00021736,3.3536,0.73,0.0008868082
5936,10.1002/aenm.201400600,25508,2a,31761,Fe(V0.6Nb0.4)1−xTixSb_ x=0.18,Fe(V0.6Nb0.4)0.82Ti0.18Sb,850,,57346,0.000017438,,0.0028735,0.00022385,3.3235,0.77768,0.0008646006
5936,10.1002/aenm.201400600,25508,2a,31761,Fe(V0.6Nb0.4)1−xTixSb_ x=0.18,Fe(V0.6Nb0.4)0.82Ti0.18Sb,900,,,,,,0.00023033,,0.82535,
5936,10.1002/aenm.201400600,25509,2b,31761,Fe(V0.6Nb0.4)1−xTixSb_ x=0.18,Fe(V0.6Nb0.4)0.82Ti0.18Sb,300,0.00066472,118960,0.0000084062,,,,3.6542,,
5936,10.1002/aenm.201400600,25510,2C,31761,Fe(V0.6Nb0.4)1−xTixSb_ x=0.18,Fe(V0.6Nb0.4)0.82Ti0.18Sb,50,0.00093412,,,,,,,,
5936,10.1002/aenm.201400600,25510,2C,31761,Fe(V0.6Nb0.4)1−xTixSb_ x=0.18,Fe(V0.6Nb0.4)0.82Ti0.18Sb,100,0.00088024,,,,,,,,
5936,10.1002/aenm.201400600,25510,2C,31761,Fe(V0.6Nb0.4)1−xTixSb_ x=0.18,Fe(V0.6Nb0.4)0.82Ti0.18Sb,150,0.00082636,,,,,,,,
5936,10.1002/aenm.201400600,25510,2C,31761,Fe(V0.6Nb0.4)1−xTixSb_ x=0.18,Fe(V0.6Nb0.4)0.82Ti0.18Sb,200,0.00077248,,,,,,,,
5936,10.1002/aenm.201400600,25510,2C,31761,Fe(V0.6Nb0.4)1−xTixSb_ x=0.18,Fe(V0.6Nb0.4)0.82Ti0.18Sb,250,0.0007186,,,,,,,,
8671,10.1016/j.intermet.2010.12.001,25123,2,31276,BayFe4Sb12_ y=0.87 BM,undefined,300,,260630,0.0000038368,,0.0015959,0.00007825,,,
8671,10.1016/j.intermet.2010.12.001,25123,2,31276,BayFe4Sb12_ y=0.87 BM,undefined,350,,246720,0.0000040532,,0.0017828,0.000085006,,,
8671,10.1016/j.intermet.2010.12.001,25123,2,31276,BayFe4Sb12_ y=0.87 BM,undefined,400,,234210,0.0000042696,,0.0019721,0.000091762,,,
8671,10.1016/j.intermet.2010.12.001,25123,2,31276,BayFe4Sb12_ y=0.87 BM,undefined,450,,222920,0.000004486,,0.0021636,0.000098518,,,
8671,10.1016/j.intermet.2010.12.001,25123,2,31276,BayFe4Sb12_ y=0.87 BM,undefined,500,,212660,0.0000047024,,0.0023566,0.00010527,3.1173,0.41609,0.0007559747
8671,10.1016/j.intermet.2010.12.001,25123,2,31276,BayFe4Sb12_ y=0.87 BM,undefined,550,,203300,0.0000049188,,0.0025516,0.00011203,3.2048,0.48114,0.0007961807
8671,10.1016/j.intermet.2010.12.001,25123,2,31276,BayFe4Sb12_ y=0.87 BM,undefined,600,,194730,0.0000051352,,0.0027478,0.00011879,3.2922,0.5462,0.0008346395
8671,10.1016/j.intermet.2010.12.001,25123,2,31276,BayFe4Sb12_ y=0.87 BM,undefined,650,,186860,0.0000053516,,0.002945,0.00012554,3.3797,0.61125,0.0008713791
8671,10.1016/j.intermet.2010.12.001,25123,2,31276,BayFe4Sb12_ y=0.87 BM,undefined,700,,179600,0.000005568,,0.0031436,0.0001323,3.4672,0.6763,0.0009066682
8671,10.1016/j.intermet.2010.12.001,25123,2,31276,BayFe4Sb12_ y=0.87 BM,undefined,750,,172880,0.0000057844,,0.0033426,0.00013905,3.5546,0.74135,0.000940359
8671,10.1016/j.intermet.2010.12.001,25123,2,31276,BayFe4Sb12_ y=0.87 BM,undefined,800,,166640,0.0000060008,,0.0035429,0.00014581,3.6421,0.8064,0.000972763
8671,10.1016/j.intermet.2010.12.001,25123,2,31277,BayFe4Sb12_ y=0.83 BM,undefined,300,,288560,0.0000034655,,0.001732,0.000077474,,,
8671,10.1016/j.intermet.2010.12.001,25123,2,31277,BayFe4Sb12_ y=0.83 BM,undefined,350,,272090,0.0000036753,,0.0019055,0.000083685,,,
8671,10.1016/j.intermet.2010.12.001,25123,2,31277,BayFe4Sb12_ y=0.83 BM,undefined,400,,257390,0.0000038852,,0.00208,0.000089895,,,
8671,10.1016/j.intermet.2010.12.001,25123,2,31277,BayFe4Sb12_ y=0.83 BM,undefined,450,,244200,0.000004095,,0.0022555,0.000096106,,,
8671,10.1016/j.intermet.2010.12.001,25123,2,31277,BayFe4Sb12_ y=0.83 BM,undefined,500,,232290,0.0000043049,,0.0024319,0.00010232,2.9149,0.38955,0.0008342996
8671,10.1016/j.intermet.2010.12.001,25123,2,31277,BayFe4Sb12_ y=0.83 BM,undefined,550,,221500,0.0000045147,,0.002609,0.00010853,3.0369,0.43932,0.0008590997
8671,10.1016/j.intermet.2010.12.001,25123,2,31277,BayFe4Sb12_ y=0.83 BM,undefined,600,,211660,0.0000047246,,0.0027866,0.00011474,3.1588,0.48908,0.0008821704
8671,10.1016/j.intermet.2010.12.001,25123,2,31277,BayFe4Sb12_ y=0.83 BM,undefined,650,,202660,0.0000049344,,0.0029647,0.00012095,3.2807,0.53884,0.0009036791
8671,10.1016/j.intermet.2010.12.001,25123,2,31277,BayFe4Sb12_ y=0.83 BM,undefined,700,,194390,0.0000051443,,0.0031432,0.00012716,3.4026,0.58861,0.0009237642
8671,10.1016/j.intermet.2010.12.001,25123,2,31277,BayFe4Sb12_ y=0.83 BM,undefined,750,,186770,0.0000053541,,0.0033222,0.00013337,3.5246,0.63837,0.000942575
8671,10.1016/j.intermet.2010.12.001,25123,2,31277,BayFe4Sb12_ y=0.83 BM,undefined,800,,179730,0.000005564,,0.0035016,0.00013958,3.6465,0.68814,0.0009602633
8671,10.1016/j.intermet.2010.12.001,25123,2,31278,BayFe4Sb12_ y=0.83 HM,undefined,300,,334070,0.0000029934,,0.0013007,0.000062399,,,
8671,10.1016/j.intermet.2010.12.001,25123,2,31278,BayFe4Sb12_ y=0.83 HM,undefined,350,,311370,0.0000032116,,0.0013962,0.000066964,,,
8671,10.1016/j.intermet.2010.12.001,25123,2,31278,BayFe4Sb12_ y=0.83 HM,undefined,400,,291570,0.0000034297,,0.0014917,0.000071528,,,
8671,10.1016/j.intermet.2010.12.001,25123,2,31278,BayFe4Sb12_ y=0.83 HM,undefined,450,,274140,0.0000036478,,0.0015873,0.000076093,,,
8671,10.1016/j.intermet.2010.12.001,25123,2,31278,BayFe4Sb12_ y=0.83 HM,undefined,500,,258670,0.0000038659,,0.0016828,0.000080657,3.9092,0.24265,0.0004304717
8671,10.1016/j.intermet.2010.12.001,25123,2,31278,BayFe4Sb12_ y=0.83 HM,undefined,550,,244860,0.000004084,,0.0017783,0.000085221,4.0538,0.26118,0.0004386748
8671,10.1016/j.intermet.2010.12.001,25123,2,31278,BayFe4Sb12_ y=0.83 HM,undefined,600,,232440,0.0000043022,,0.0018738,0.000089786,4.1983,0.2797,0.0004463235
8671,10.1016/j.intermet.2010.12.001,25123,2,31278,BayFe4Sb12_ y=0.83 HM,undefined,650,,221220,0.0000045203,,0.0019693,0.00009435,4.3429,0.29822,0.0004534528
8671,10.1016/j.intermet.2010.12.001,25123,2,31278,BayFe4Sb12_ y=0.83 HM,undefined,700,,211040,0.0000047384,,0.0020649,0.000098915,4.4874,0.31675,0.0004601551
8671,10.1016/j.intermet.2010.12.001,25123,2,31278,BayFe4Sb12_ y=0.83 HM,undefined,750,,201760,0.0000049565,,0.0021605,0.00010348,4.6319,0.33527,0.0004664393
8671,10.1016/j.intermet.2010.12.001,25123,2,31278,BayFe4Sb12_ y=0.83 HM,undefined,800,,193250,0.0000051747,,0.0022557,0.00010804,4.7765,0.35379,0.0004722496
8671,10.1016/j.intermet.2010.12.001,25123,2,31279,DDyFe4Sb12_ y=0.88 BM,undefined,300,,249250,0.000004012,,0.0020654,0.00009103,,,
8671,10.1016/j.intermet.2010.12.001,25123,2,31279,DDyFe4Sb12_ y=0.88 BM,undefined,350,,236120,0.0000042351,,0.0022852,0.000098378,,,
8671,10.1016/j.intermet.2010.12.001,25123,2,31279,DDyFe4Sb12_ y=0.88 BM,undefined,400,,224310,0.0000044582,,0.0025075,0.00010573,,,
8671,10.1016/j.intermet.2010.12.001,25123,2,31279,DDyFe4Sb12_ y=0.88 BM,undefined,450,,213620,0.0000046813,,0.0027311,0.00011307,,,
8671,10.1016/j.intermet.2010.12.001,25123,2,31279,DDyFe4Sb12_ y=0.88 BM,undefined,500,,203900,0.0000049044,,0.0029567,0.00012042,2.5067,0.61644,0.0011795189
8671,10.1016/j.intermet.2010.12.001,25123,2,31279,DDyFe4Sb12_ y=0.88 BM,undefined,550,,195020,0.0000051276,,0.0031837,0.00012777,2.6192,0.69104,0.0012155238
8671,10.1016/j.intermet.2010.12.001,25123,2,31279,DDyFe4Sb12_ y=0.88 BM,undefined,600,,186890,0.0000053507,,0.0034121,0.00013512,2.7318,0.76564,0.0012490299
8671,10.1016/j.intermet.2010.12.001,25123,2,31279,DDyFe4Sb12_ y=0.88 BM,undefined,650,,179410,0.0000055738,,0.0036416,0.00014247,2.8443,0.84024,0.001280315
8671,10.1016/j.intermet.2010.12.001,25123,2,31279,DDyFe4Sb12_ y=0.88 BM,undefined,700,,172510,0.0000057969,,0.0038716,0.00014981,2.9568,0.91484,0.0013093885
8671,10.1016/j.intermet.2010.12.001,25123,2,31279,DDyFe4Sb12_ y=0.88 BM,undefined,750,,166110,0.00000602,,0.0041028,0.00015716,3.0693,0.98943,0.0013367217
8671,10.1016/j.intermet.2010.12.001,25123,2,31279,DDyFe4Sb12_ y=0.88 BM,undefined,800,,160180,0.0000062431,,0.004335,0.00016451,3.1818,1.064,0.0013624364
8671,10.1016/j.intermet.2010.12.001,25123,2,31280,DDyFe4Sb12_ y=0.85 HM,undefined,350,,192060,0.0000052068,,0.0016164,0.000091739,,,
8671,10.1016/j.intermet.2010.12.001,25123,2,31280,DDyFe4Sb12_ y=0.85 HM,undefined,400,,183460,0.0000054507,,0.0017421,0.000097447,,,
8671,10.1016/j.intermet.2010.12.001,25123,2,31280,DDyFe4Sb12_ y=0.85 HM,undefined,450,,175600,0.0000056946,,0.0018684,0.00010315,,,
8671,10.1016/j.intermet.2010.12.001,25123,2,31280,DDyFe4Sb12_ y=0.85 HM,undefined,500,,168390,0.0000059385,,0.0019955,0.00010886,2.1146,0.5205,0.0009436773
8671,10.1016/j.intermet.2010.12.001,25123,2,31280,DDyFe4Sb12_ y=0.85 HM,undefined,550,,161750,0.0000061824,,0.0021232,0.00011457,2.2135,0.56215,0.0009592049
8671,10.1016/j.intermet.2010.12.001,25123,2,31280,DDyFe4Sb12_ y=0.85 HM,undefined,600,,155610,0.0000064263,,0.0022513,0.00012028,2.3125,0.6038,0.0009735351
8671,10.1016/j.intermet.2010.12.001,25123,2,31280,DDyFe4Sb12_ y=0.85 HM,undefined,650,,149920,0.0000066702,,0.0023794,0.00012598,2.4115,0.64545,0.0009866888
8671,10.1016/j.intermet.2010.12.001,25123,2,31280,DDyFe4Sb12_ y=0.85 HM,undefined,700,,144630,0.0000069141,,0.0025082,0.00013169,2.5104,0.6871,0.0009991236
8671,10.1016/j.intermet.2010.12.001,25123,2,31280,DDyFe4Sb12_ y=0.85 HM,undefined,750,,139700,0.000007158,,0.0026374,0.0001374,2.6094,0.72874,0.0010107304
8671,10.1016/j.intermet.2010.12.001,25123,2,31280,DDyFe4Sb12_ y=0.85 HM,undefined,800,,135100,0.0000074019,,0.0027665,0.0001431,2.7084,0.77039,0.0010214518
8671,10.1016/j.intermet.2010.12.001,25123,2,31281,DDyFe4Sb12_ y=0.86 BM,undefined,300,,267690,0.0000037356,,0.002238,0.000091435,,,
8671,10.1016/j.intermet.2010.12.001,25123,2,31281,DDyFe4Sb12_ y=0.86 BM,undefined,350,,246230,0.0000040612,,0.0024193,0.000099123,,,
8671,10.1016/j.intermet.2010.12.001,25123,2,31281,DDyFe4Sb12_ y=0.86 BM,undefined,400,,227960,0.0000043868,,0.0026007,0.00010681,,,
8671,10.1016/j.intermet.2010.12.001,25123,2,31281,DDyFe4Sb12_ y=0.86 BM,undefined,450,,212210,0.0000047124,,0.0027821,0.0001145,,,
8671,10.1016/j.intermet.2010.12.001,25123,2,31281,DDyFe4Sb12_ y=0.86 BM,undefined,500,,198490,0.000005038,,0.0029635,0.00012219,2.3854,0.65546,0.0012423493
8671,10.1016/j.intermet.2010.12.001,25123,2,31281,DDyFe4Sb12_ y=0.86 BM,undefined,550,,186440,0.0000053636,,0.003145,0.00012988,2.476,0.72508,0.0012701939
8671,10.1016/j.intermet.2010.12.001,25123,2,31281,DDyFe4Sb12_ y=0.86 BM,undefined,600,,175770,0.0000056893,,0.0033261,0.00013756,2.5665,0.7947,0.0012959673
8671,10.1016/j.intermet.2010.12.001,25123,2,31281,DDyFe4Sb12_ y=0.86 BM,undefined,650,,166250,0.0000060149,,0.0035075,0.00014525,2.6571,0.86432,0.0013200482
8671,10.1016/j.intermet.2010.12.001,25123,2,31281,DDyFe4Sb12_ y=0.86 BM,undefined,700,,157720,0.0000063405,,0.0036892,0.00015294,2.7476,0.93394,0.0013426991
8671,10.1016/j.intermet.2010.12.001,25123,2,31281,DDyFe4Sb12_ y=0.86 BM,undefined,750,,150010,0.0000066661,,0.0038706,0.00016063,2.8382,1.0036,0.0013637517
8671,10.1016/j.intermet.2010.12.001,25123,2,31281,DDyFe4Sb12_ y=0.86 BM,undefined,800,,143030,0.0000069917,,0.0040523,0.00016832,2.9288,1.0732,0.0013836042
8671,10.1016/j.intermet.2010.12.001,25123,2,31282,CayFe4Sb12_ y=0.93 BM,undefined,300,,264280,0.0000037839,,0.0022554,0.00009238,,,
8671,10.1016/j.intermet.2010.12.001,25123,2,31282,CayFe4Sb12_ y=0.93 BM,undefined,350,,255700,0.0000039109,,0.0024286,0.000097456,,,
8671,10.1016/j.intermet.2010.12.001,25123,2,31282,CayFe4Sb12_ y=0.93 BM,undefined,400,,247650,0.0000040379,,0.0026034,0.00010253,,,
8671,10.1016/j.intermet.2010.12.001,25123,2,31282,CayFe4Sb12_ y=0.93 BM,undefined,450,,240100,0.0000041649,,0.0027803,0.00010761,,,
8671,10.1016/j.intermet.2010.12.001,25123,2,31282,CayFe4Sb12_ y=0.93 BM,undefined,500,,233000,0.0000042919,,0.0029584,0.00011268,2.847,0.53761,0.0010391289
8671,10.1016/j.intermet.2010.12.001,25123,2,31282,CayFe4Sb12_ y=0.93 BM,undefined,550,,226310,0.0000044188,,0.0031383,0.00011776,3.0644,0.58411,0.0010241157
8671,10.1016/j.intermet.2010.12.001,25123,2,31282,CayFe4Sb12_ y=0.93 BM,undefined,600,,219980,0.0000045458,,0.0033194,0.00012284,3.2817,0.63062,0.0010114879
8671,10.1016/j.intermet.2010.12.001,25123,2,31282,CayFe4Sb12_ y=0.93 BM,undefined,650,,214000,0.0000046728,,0.0035012,0.00012791,3.4991,0.67712,0.0010006002
8671,10.1016/j.intermet.2010.12.001,25123,2,31282,CayFe4Sb12_ y=0.93 BM,undefined,700,,208340,0.0000047998,,0.0036848,0.00013299,3.7165,0.72363,0.0009914705
8671,10.1016/j.intermet.2010.12.001,25123,2,31282,CayFe4Sb12_ y=0.93 BM,undefined,750,,202970,0.0000049268,,0.0038687,0.00013806,3.9339,0.77013,0.0009834261
8671,10.1016/j.intermet.2010.12.001,25123,2,31282,CayFe4Sb12_ y=0.93 BM,undefined,800,,197870,0.0000050538,,0.0040542,0.00014314,4.1513,0.81664,0.0009766097
8671,10.1016/j.intermet.2010.12.001,25123,2,31283,CayFe4Sb12_ y=0.92 BM,undefined,300,,325570,0.0000030715,,0.0022169,0.000082518,,,
8671,10.1016/j.intermet.2010.12.001,25123,2,31283,CayFe4Sb12_ y=0.92 BM,undefined,350,,311170,0.0000032137,,0.0023822,0.000087497,,,
8671,10.1016/j.intermet.2010.12.001,25123,2,31283,CayFe4Sb12_ y=0.92 BM,undefined,400,,297970,0.000003356,,0.0025481,0.000092475,,,
8671,10.1016/j.intermet.2010.12.001,25123,2,31283,CayFe4Sb12_ y=0.92 BM,undefined,450,,285850,0.0000034983,,0.0027148,0.000097454,,,
8671,10.1016/j.intermet.2010.12.001,25123,2,31283,CayFe4Sb12_ y=0.92 BM,undefined,500,,274690,0.0000036405,,0.002882,0.00010243,3.1525,0.43301,0.0009141951
8671,10.1016/j.intermet.2010.12.001,25123,2,31283,CayFe4Sb12_ y=0.92 BM,undefined,550,,264350,0.0000037828,,0.0030498,0.00010741,3.3047,0.48491,0.0009228674
8671,10.1016/j.intermet.2010.12.001,25123,2,31283,CayFe4Sb12_ y=0.92 BM,undefined,600,,254770,0.0000039251,,0.0032181,0.00011239,3.4569,0.53681,0.0009309208
8671,10.1016/j.intermet.2010.12.001,25123,2,31283,CayFe4Sb12_ y=0.92 BM,undefined,650,,245860,0.0000040674,,0.0033869,0.00011737,3.609,0.58871,0.0009384594
8671,10.1016/j.intermet.2010.12.001,25123,2,31283,CayFe4Sb12_ y=0.92 BM,undefined,700,,237550,0.0000042096,,0.003556,0.00012235,3.7612,0.64061,0.0009454429
8671,10.1016/j.intermet.2010.12.001,25123,2,31283,CayFe4Sb12_ y=0.92 BM,undefined,750,,229780,0.0000043519,,0.0037254,0.00012733,3.9134,0.69251,0.0009519599
8671,10.1016/j.intermet.2010.12.001,25123,2,31283,CayFe4Sb12_ y=0.92 BM,undefined,800,,222510,0.0000044942,,0.0038947,0.0001323,4.0656,0.74441,0.0009579644
8671,10.1016/j.intermet.2010.12.001,25123,2,31284,CayFe4Sb12_ y=0.91 HM,undefined,300,,276310,0.0000036191,,0.0014033,0.000071265,,,
8671,10.1016/j.intermet.2010.12.001,25123,2,31284,CayFe4Sb12_ y=0.91 HM,undefined,350,,264730,0.0000037775,,0.0015204,0.000075784,,,
8671,10.1016/j.intermet.2010.12.001,25123,2,31284,CayFe4Sb12_ y=0.91 HM,undefined,400,,254070,0.000003936,,0.0016384,0.000080303,,,