sid,DOI,figureid,fignum,sampleid,samplename,composition,Temperature,Carrier mobility,Electrical conductivity,Electrical resistivity,Lattice thermal conductivity,Power factor,Seebeck coefficient,Thermal conductivity,ZT,Figure of merit Z
27925,10.1002/advs.201600035,25415,3a,31640,Fe1+xNb0.75Ti0.25Sb_ x=0.00,FeNb0.75Ti0.25Sb,750,,261080,0.0000038302,,0.0054115,0.00014397,5.7123,0.72606,0.0009473417
27925,10.1002/advs.201600035,25415,3a,31640,Fe1+xNb0.75Ti0.25Sb_ x=0.00,FeNb0.75Ti0.25Sb,800,,235360,0.0000042488,,0.0054306,0.0001519,5.535,0.79478,0.0009811382
27925,10.1002/advs.201600035,25415,3a,31640,Fe1+xNb0.75Ti0.25Sb_ x=0.00,FeNb0.75Ti0.25Sb,850,,209640,0.0000047701,,0.0053554,0.00015983,5.3576,0.8635,0.0009995894
27925,10.1002/advs.201600035,25415,3a,31640,Fe1+xNb0.75Ti0.25Sb_ x=0.00,FeNb0.75Ti0.25Sb,900,,183910,0.0000054374,,0.0051759,0.00016776,5.1803,0.93221,0.0009991506
27925,10.1002/advs.201600035,25415,3a,31640,Fe1+xNb0.75Ti0.25Sb_ x=0.00,FeNb0.75Ti0.25Sb,950,,158190,0.0000063215,,0.0048834,0.0001757,5.0029,1.0009,0.0009761139
27925,10.1002/advs.201600035,25415,3a,31640,Fe1+xNb0.75Ti0.25Sb_ x=0.00,FeNb0.75Ti0.25Sb,1000,,132470,0.0000075489,,0.0044669,0.00018363,4.8256,1.0696,0.0009256673
27925,10.1002/advs.201600035,25415,3a,31640,Fe1+xNb0.75Ti0.25Sb_ x=0.00,FeNb0.75Ti0.25Sb,1050,,106750,0.0000093677,,0.0039172,0.00019156,4.6482,1.1384,0.0008427348
27925,10.1002/advs.201600035,25415,3a,31640,Fe1+xNb0.75Ti0.25Sb_ x=0.00,FeNb0.75Ti0.25Sb,1100,,81023,0.000012342,,0.0032244,0.00019949,4.4709,1.2071,0.0007211971
27925,10.1002/advs.201600035,25415,3a,31640,Fe1+xNb0.75Ti0.25Sb_ x=0.00,FeNb0.75Ti0.25Sb,1150,,55300,0.000018083,,,,,1.2758,
27925,10.1002/advs.201600035,25416,3c,31640,Fe1+xNb0.75Ti0.25Sb_ x=0.00,FeNb0.75Ti0.25Sb,300,,,,,,0.000072573,7.3085,0.1076,
27925,10.1002/advs.201600035,25415,3a,31641,Fe1+xNb0.75Ti0.25Sb_ x=0.03,Fe1.03Nb0.75Ti0.25Sb,350,,376860,0.0000026535,,0.0026629,0.00008406,5.7945,0.15909,0.0004595565
27925,10.1002/advs.201600035,25415,3a,31641,Fe1+xNb0.75Ti0.25Sb_ x=0.03,Fe1.03Nb0.75Ti0.25Sb,400,,357130,0.0000028001,,0.0031969,0.000094613,5.682,0.22858,0.0005626364
27925,10.1002/advs.201600035,25415,3a,31641,Fe1+xNb0.75Ti0.25Sb_ x=0.03,Fe1.03Nb0.75Ti0.25Sb,450,,337400,0.0000029638,,0.0037213,0.00010502,5.5695,0.29807,0.0006681569
27925,10.1002/advs.201600035,25415,3a,31641,Fe1+xNb0.75Ti0.25Sb_ x=0.03,Fe1.03Nb0.75Ti0.25Sb,500,,317670,0.0000031479,,0.0042173,0.00011522,5.457,0.36757,0.0007728239
27925,10.1002/advs.201600035,25415,3a,31641,Fe1+xNb0.75Ti0.25Sb_ x=0.03,Fe1.03Nb0.75Ti0.25Sb,550,,297930,0.0000033565,,0.0046678,0.00012517,5.3444,0.43706,0.0008734002
27925,10.1002/advs.201600035,25415,3a,31641,Fe1+xNb0.75Ti0.25Sb_ x=0.03,Fe1.03Nb0.75Ti0.25Sb,600,,278200,0.0000035945,,0.0050552,0.0001348,5.2319,0.50655,0.0009662264
27925,10.1002/advs.201600035,25415,3a,31641,Fe1+xNb0.75Ti0.25Sb_ x=0.03,Fe1.03Nb0.75Ti0.25Sb,650,,258470,0.0000038689,,0.0053641,0.00014406,5.1194,0.57604,0.0010477986
27925,10.1002/advs.201600035,25415,3a,31641,Fe1+xNb0.75Ti0.25Sb_ x=0.03,Fe1.03Nb0.75Ti0.25Sb,700,,238740,0.0000041887,,0.0055821,0.00015291,5.0069,0.64553,0.0011148815
27925,10.1002/advs.201600035,25415,3a,31641,Fe1+xNb0.75Ti0.25Sb_ x=0.03,Fe1.03Nb0.75Ti0.25Sb,750,,219010,0.000004566,,0.005696,0.00016127,4.8944,0.71503,0.001163779
27925,10.1002/advs.201600035,25415,3a,31641,Fe1+xNb0.75Ti0.25Sb_ x=0.03,Fe1.03Nb0.75Ti0.25Sb,800,,199270,0.0000050183,,0.0056988,0.00016911,4.7819,0.78452,0.0011917439
27925,10.1002/advs.201600035,25415,3a,31641,Fe1+xNb0.75Ti0.25Sb_ x=0.03,Fe1.03Nb0.75Ti0.25Sb,850,,179540,0.0000055698,,0.0055848,0.00017637,4.6694,0.85401,0.0011960423
27925,10.1002/advs.201600035,25415,3a,31641,Fe1+xNb0.75Ti0.25Sb_ x=0.03,Fe1.03Nb0.75Ti0.25Sb,900,,159810,0.0000062574,,0.0053513,0.00018299,4.5569,0.9235,0.001174329
27925,10.1002/advs.201600035,25415,3a,31641,Fe1+xNb0.75Ti0.25Sb_ x=0.03,Fe1.03Nb0.75Ti0.25Sb,950,,140080,0.0000071388,,0.0049996,0.00018892,4.4444,0.99299,0.0011249212
27925,10.1002/advs.201600035,25415,3a,31641,Fe1+xNb0.75Ti0.25Sb_ x=0.03,Fe1.03Nb0.75Ti0.25Sb,1000,,120350,0.0000083091,,0.0045346,0.00019411,4.3319,1.0625,0.0010467924
27925,10.1002/advs.201600035,25415,3a,31641,Fe1+xNb0.75Ti0.25Sb_ x=0.03,Fe1.03Nb0.75Ti0.25Sb,1050,,100610,0.0000099394,,0.0039643,0.0001985,4.2194,1.132,0.0009395412
27925,10.1002/advs.201600035,25415,3a,31641,Fe1+xNb0.75Ti0.25Sb_ x=0.03,Fe1.03Nb0.75Ti0.25Sb,1100,,80882,0.000012364,,0.0033016,0.00020204,4.1069,1.2015,0.0008039154
27925,10.1002/advs.201600035,25416,3c,31641,Fe1+xNb0.75Ti0.25Sb_ x=0.03,Fe1.03Nb0.75Ti0.25Sb,1150,,,,,,0.00020469,3.9944,1.271,
27925,10.1002/advs.201600035,25415,3a,31642,Fe1+xNb0.75Ti0.25Sb_ x=0.05,Fe1.05Nb0.75Ti0.25Sb,350,,326120,0.0000030664,,0.0030088,0.000096053,5.1675,0.17446,0.0005822545
27925,10.1002/advs.201600035,25415,3a,31642,Fe1+xNb0.75Ti0.25Sb_ x=0.05,Fe1.05Nb0.75Ti0.25Sb,400,,309770,0.0000032282,,0.003335,0.00010376,5.0682,0.25121,0.0006580245
27925,10.1002/advs.201600035,25415,3a,31642,Fe1+xNb0.75Ti0.25Sb_ x=0.05,Fe1.05Nb0.75Ti0.25Sb,450,,293430,0.000003408,,0.003646,0.00011147,4.9689,0.32796,0.000733764
27925,10.1002/advs.201600035,25415,3a,31642,Fe1+xNb0.75Ti0.25Sb_ x=0.05,Fe1.05Nb0.75Ti0.25Sb,500,,277080,0.0000036091,,0.0039356,0.00011918,4.8695,0.40472,0.0008082144
27925,10.1002/advs.201600035,25415,3a,31642,Fe1+xNb0.75Ti0.25Sb_ x=0.05,Fe1.05Nb0.75Ti0.25Sb,550,,260740,0.0000038352,,0.0041975,0.00012688,4.7702,0.48147,0.0008799421
27925,10.1002/advs.201600035,25415,3a,31642,Fe1+xNb0.75Ti0.25Sb_ x=0.05,Fe1.05Nb0.75Ti0.25Sb,600,,244390,0.0000040918,,0.004427,0.00013459,4.6709,0.55823,0.0009477831
27925,10.1002/advs.201600035,25415,3a,31642,Fe1+xNb0.75Ti0.25Sb_ x=0.05,Fe1.05Nb0.75Ti0.25Sb,650,,228050,0.000004385,,0.0046179,0.0001423,4.5716,0.63498,0.0010101277
27925,10.1002/advs.201600035,25415,3a,31642,Fe1+xNb0.75Ti0.25Sb_ x=0.05,Fe1.05Nb0.75Ti0.25Sb,700,,211700,0.0000047237,,0.0047639,0.00015001,4.4722,0.71173,0.0010652252
27925,10.1002/advs.201600035,25415,3a,31642,Fe1+xNb0.75Ti0.25Sb_ x=0.05,Fe1.05Nb0.75Ti0.25Sb,750,,195360,0.0000051188,,0.0048597,0.00015772,4.3729,0.78849,0.001111322
27925,10.1002/advs.201600035,25415,3a,31642,Fe1+xNb0.75Ti0.25Sb_ x=0.05,Fe1.05Nb0.75Ti0.25Sb,800,,179010,0.0000055863,,0.0048984,0.00016542,4.2736,0.86524,0.0011461999
27925,10.1002/advs.201600035,25415,3a,31642,Fe1+xNb0.75Ti0.25Sb_ x=0.05,Fe1.05Nb0.75Ti0.25Sb,850,,162670,0.0000061474,,0.0048759,0.00017313,4.1742,0.942,0.0011681041
27925,10.1002/advs.201600035,25415,3a,31642,Fe1+xNb0.75Ti0.25Sb_ x=0.05,Fe1.05Nb0.75Ti0.25Sb,900,,146320,0.0000068343,,0.0047851,0.00018084,4.0749,1.0188,0.0011742865
27925,10.1002/advs.201600035,25415,3a,31642,Fe1+xNb0.75Ti0.25Sb_ x=0.05,Fe1.05Nb0.75Ti0.25Sb,950,,129980,0.0000076935,,0.0046209,0.00018855,3.9756,1.0955,0.0011623151
27925,10.1002/advs.201600035,25415,3a,31642,Fe1+xNb0.75Ti0.25Sb_ x=0.05,Fe1.05Nb0.75Ti0.25Sb,1000,,113630,0.0000088005,,0.0043768,0.00019626,3.8763,1.1723,0.001129118
27925,10.1002/advs.201600035,25415,3a,31642,Fe1+xNb0.75Ti0.25Sb_ x=0.05,Fe1.05Nb0.75Ti0.25Sb,1050,,97289,0.000010279,,0.0040472,0.00020396,3.7769,1.249,0.0010715666
27925,10.1002/advs.201600035,25415,3a,31642,Fe1+xNb0.75Ti0.25Sb_ x=0.05,Fe1.05Nb0.75Ti0.25Sb,1100,,80944,0.000012354,,0.0036266,0.00021167,3.6776,1.3258,0.0009861323
27925,10.1002/advs.201600035,25415,3a,31642,Fe1+xNb0.75Ti0.25Sb_ x=0.05,Fe1.05Nb0.75Ti0.25Sb,1150,,64599,0.00001548,,0.003109,0.00021938,3.5783,1.4025,0.0008688483
27925,10.1002/advs.201600035,25415,3a,31643,Fe1+xNb0.75Ti0.25Sb_ x=0.08,Fe1.08Nb0.75Ti0.25Sb,350,,285910,0.0000034976,,0.0030527,0.00010333,5.0091,0.18206,0.0006094308
27925,10.1002/advs.201600035,25415,3a,31643,Fe1+xNb0.75Ti0.25Sb_ x=0.08,Fe1.08Nb0.75Ti0.25Sb,400,,272190,0.0000036739,,0.0033494,0.00011093,4.9194,0.25613,0.0006808554
27925,10.1002/advs.201600035,25415,3a,31643,Fe1+xNb0.75Ti0.25Sb_ x=0.08,Fe1.08Nb0.75Ti0.25Sb,450,,258480,0.0000038688,,0.0036315,0.00011853,4.8296,0.33021,0.0007519256
27925,10.1002/advs.201600035,25415,3a,31643,Fe1+xNb0.75Ti0.25Sb_ x=0.08,Fe1.08Nb0.75Ti0.25Sb,500,,244770,0.0000040855,,0.003894,0.00012613,4.7399,0.40428,0.0008215363
27925,10.1002/advs.201600035,25415,3a,31643,Fe1+xNb0.75Ti0.25Sb_ x=0.08,Fe1.08Nb0.75Ti0.25Sb,550,,231060,0.0000043279,,0.0041322,0.00013373,4.6501,0.47836,0.0008886261
27925,10.1002/advs.201600035,25415,3a,31643,Fe1+xNb0.75Ti0.25Sb_ x=0.08,Fe1.08Nb0.75Ti0.25Sb,600,,217350,0.0000046009,,0.0043414,0.00014133,4.5604,0.55243,0.0009519779
27925,10.1002/advs.201600035,25415,3a,31643,Fe1+xNb0.75Ti0.25Sb_ x=0.08,Fe1.08Nb0.75Ti0.25Sb,650,,203640,0.0000049106,,0.0045174,0.00014894,4.4706,0.62651,0.0010104684
27925,10.1002/advs.201600035,25415,3a,31643,Fe1+xNb0.75Ti0.25Sb_ x=0.08,Fe1.08Nb0.75Ti0.25Sb,700,,189930,0.0000052651,,0.0046542,0.00015654,4.3808,0.70058,0.0010624087
27925,10.1002/advs.201600035,25415,3a,31643,Fe1+xNb0.75Ti0.25Sb_ x=0.08,Fe1.08Nb0.75Ti0.25Sb,750,,176220,0.0000056747,,0.0047477,0.00016414,4.2911,0.77465,0.0011064063
27925,10.1002/advs.201600035,25415,3a,31643,Fe1+xNb0.75Ti0.25Sb_ x=0.08,Fe1.08Nb0.75Ti0.25Sb,800,,162510,0.0000061535,,0.0047932,0.00017174,4.2013,0.84873,0.001140885
27925,10.1002/advs.201600035,25415,3a,31643,Fe1+xNb0.75Ti0.25Sb_ x=0.08,Fe1.08Nb0.75Ti0.25Sb,850,,148800,0.0000067204,,0.0047858,0.00017934,4.1116,0.9228,0.0011639751
27925,10.1002/advs.201600035,25415,3a,31643,Fe1+xNb0.75Ti0.25Sb_ x=0.08,Fe1.08Nb0.75Ti0.25Sb,900,,135090,0.0000074025,,0.0047209,0.00018694,4.0218,0.99688,0.0011738276
27925,10.1002/advs.201600035,25415,3a,31643,Fe1+xNb0.75Ti0.25Sb_ x=0.08,Fe1.08Nb0.75Ti0.25Sb,950,,121380,0.0000082386,,0.0045937,0.00019454,3.9321,1.071,0.0011682561
27925,10.1002/advs.201600035,25415,3a,31643,Fe1+xNb0.75Ti0.25Sb_ x=0.08,Fe1.08Nb0.75Ti0.25Sb,1000,,107670,0.0000092876,,0.0043995,0.00020214,3.8423,1.145,0.0011450173
27925,10.1002/advs.201600035,25415,3a,31643,Fe1+xNb0.75Ti0.25Sb_ x=0.08,Fe1.08Nb0.75Ti0.25Sb,1050,,93958,0.000010643,,0.0041333,0.00020974,3.7525,1.2191,0.001101479
27925,10.1002/advs.201600035,25415,3a,31643,Fe1+xNb0.75Ti0.25Sb_ x=0.08,Fe1.08Nb0.75Ti0.25Sb,1100,,80247,0.000012462,,0.0037906,0.00021734,3.6628,1.2932,0.0010348913
27925,10.1002/advs.201600035,25416,3c,31643,Fe1+xNb0.75Ti0.25Sb_ x=0.08,Fe1.08Nb0.75Ti0.25Sb,300,,,,,,0.000095729,5.0989,0.10799,
27925,10.1002/advs.201600035,25417,4a,31643,Fe1+xNb0.75Ti0.25Sb_ x=0.08,Fe1.08Nb0.75Ti0.25Sb,1150,,,,,,,3.573,1.3672,