sid,DOI,figureid,fignum,sampleid,samplename,composition,Temperature,Carrier mobility,Electrical conductivity,Electrical resistivity,Lattice thermal conductivity,Power factor,Seebeck coefficient,Thermal conductivity,ZT,Figure of merit Z
8671,10.1016/j.intermet.2010.12.001,25123,2,31284,CayFe4Sb12_ y=0.91 HM,undefined,450,,244240,0.0000040944,,0.0017573,0.000084822,,,
8671,10.1016/j.intermet.2010.12.001,25123,2,31284,CayFe4Sb12_ y=0.91 HM,undefined,500,,235140,0.0000042528,,0.0018768,0.000089341,3.8196,0.25748,0.0004913604
8671,10.1016/j.intermet.2010.12.001,25123,2,31284,CayFe4Sb12_ y=0.91 HM,undefined,550,,226690,0.0000044113,,0.0019971,0.00009386,3.9924,0.28395,0.0005002254
8671,10.1016/j.intermet.2010.12.001,25123,2,31284,CayFe4Sb12_ y=0.91 HM,undefined,600,,218830,0.0000045697,,0.0021179,0.000098378,4.1652,0.31041,0.000508475
8671,10.1016/j.intermet.2010.12.001,25123,2,31284,CayFe4Sb12_ y=0.91 HM,undefined,650,,211500,0.0000047282,,0.0022394,0.0001029,4.3379,0.33687,0.0005162406
8671,10.1016/j.intermet.2010.12.001,25123,2,31284,CayFe4Sb12_ y=0.91 HM,undefined,700,,204640,0.0000048866,,0.0023614,0.00010742,4.5107,0.36334,0.0005235108
8671,10.1016/j.intermet.2010.12.001,25123,2,31284,CayFe4Sb12_ y=0.91 HM,undefined,750,,198210,0.0000050451,,0.0024837,0.00011194,4.6835,0.3898,0.0005303085
8671,10.1016/j.intermet.2010.12.001,25123,2,31284,CayFe4Sb12_ y=0.91 HM,undefined,800,,192180,0.0000052035,,0.0026061,0.00011645,4.8562,0.41626,0.0005366542
8671,10.1016/j.intermet.2010.12.001,25128,8(a),31288,BM DD0.86Fe4Sb12,undefined,300,,273210,0.0000036602,,0.0022883,0.000091519,,,
8671,10.1016/j.intermet.2010.12.001,25128,8(a),31288,BM DD0.86Fe4Sb12,undefined,350,,249590,0.0000040066,,0.0024563,0.000099203,,,
8671,10.1016/j.intermet.2010.12.001,25128,8(a),31288,BM DD0.86Fe4Sb12,undefined,400,,228310,0.00000438,,0.0026085,0.00010689,,,
8671,10.1016/j.intermet.2010.12.001,25128,8(a),31288,BM DD0.86Fe4Sb12,undefined,450,,209780,0.0000047668,,0.0027536,0.00011457,,,
8671,10.1016/j.intermet.2010.12.001,25128,8(a),31288,BM DD0.86Fe4Sb12,undefined,500,,194030,0.0000051538,,0.0029003,0.00012226,2.3846,0.6567,0.0012162627
8671,10.1016/j.intermet.2010.12.001,25128,8(a),31288,BM DD0.86Fe4Sb12,undefined,550,,180910,0.0000055277,,0.0030546,0.00012994,2.475,0.72626,0.0012341818
8671,10.1016/j.intermet.2010.12.001,25128,8(a),31288,BM DD0.86Fe4Sb12,undefined,600,,170210,0.0000058752,,0.0032237,0.00013762,2.5654,0.79582,0.0012566072
8671,10.1016/j.intermet.2010.12.001,25128,8(a),31288,BM DD0.86Fe4Sb12,undefined,650,,161730,0.000006183,,0.0034149,0.00014531,2.6558,0.86538,0.0012858272
8671,10.1016/j.intermet.2010.12.001,25128,8(a),31288,BM DD0.86Fe4Sb12,undefined,700,,155330,0.0000064377,,0.0036356,0.00015299,2.7462,0.93493,0.0013238657
8671,10.1016/j.intermet.2010.12.001,25128,8(a),31288,BM DD0.86Fe4Sb12,undefined,750,,150920,0.0000066261,,0.0038965,0.00016068,2.8365,1.0045,0.0013737
8671,10.1016/j.intermet.2010.12.001,25128,8(a),31288,BM DD0.86Fe4Sb12,undefined,800,,148480,0.0000067348,,0.0042087,0.00016836,2.9269,1.074,0.0014379377
8671,10.1016/j.intermet.2010.12.001,25128,8(a),31287,CaxDDyFe4Sb12_ x=0.18_ y=0.60 chem mixed,undefined,300,,266670,0.0000037499,,0.0016637,0.000078986,,,
8671,10.1016/j.intermet.2010.12.001,25128,8(a),31287,CaxDDyFe4Sb12_ x=0.18_ y=0.60 chem mixed,undefined,350,,252110,0.0000039666,,0.0018084,0.000084694,,,
8671,10.1016/j.intermet.2010.12.001,25128,8(a),31287,CaxDDyFe4Sb12_ x=0.18_ y=0.60 chem mixed,undefined,400,,239050,0.0000041833,,0.0019536,0.000090402,,,
8671,10.1016/j.intermet.2010.12.001,25128,8(a),31287,CaxDDyFe4Sb12_ x=0.18_ y=0.60 chem mixed,undefined,450,,227270,0.0000044,,0.0020993,0.00009611,,,
8671,10.1016/j.intermet.2010.12.001,25128,8(a),31287,CaxDDyFe4Sb12_ x=0.18_ y=0.60 chem mixed,undefined,500,,216600,0.0000046167,,0.0022456,0.00010182,3.2305,0.38147,0.0006951246
8671,10.1016/j.intermet.2010.12.001,25128,8(a),31287,CaxDDyFe4Sb12_ x=0.18_ y=0.60 chem mixed,undefined,550,,206900,0.0000048333,,0.0023923,0.00010753,3.2821,0.42835,0.0007288931
8671,10.1016/j.intermet.2010.12.001,25128,8(a),31287,CaxDDyFe4Sb12_ x=0.18_ y=0.60 chem mixed,undefined,600,,198020,0.00000505,,0.0025388,0.00011323,3.3336,0.47524,0.0007615791
8671,10.1016/j.intermet.2010.12.001,25128,8(a),31287,CaxDDyFe4Sb12_ x=0.18_ y=0.60 chem mixed,undefined,650,,189870,0.0000052667,,0.002686,0.00011894,3.3852,0.52212,0.0007934539
8671,10.1016/j.intermet.2010.12.001,25128,8(a),31287,CaxDDyFe4Sb12_ x=0.18_ y=0.60 chem mixed,undefined,700,,182370,0.0000054834,,0.0028336,0.00012465,3.4367,0.56901,0.0008245119
8671,10.1016/j.intermet.2010.12.001,25128,8(a),31287,CaxDDyFe4Sb12_ x=0.18_ y=0.60 chem mixed,undefined,750,,175440,0.0000057001,,0.0029814,0.00013036,3.4883,0.61589,0.0008546857
8671,10.1016/j.intermet.2010.12.001,25128,8(a),31287,CaxDDyFe4Sb12_ x=0.18_ y=0.60 chem mixed,undefined,800,,169010,0.0000059168,,0.0031292,0.00013607,3.5399,0.66278,0.0008839798
8671,10.1016/j.intermet.2010.12.001,25128,8(a),31286,CaxDDyFe4Sb12_ x=0.41_ y=0.41 chem mixed,undefined,300,,265670,0.000003764,,0.0022776,0.00009259,,,
8671,10.1016/j.intermet.2010.12.001,25128,8(a),31286,CaxDDyFe4Sb12_ x=0.41_ y=0.41 chem mixed,undefined,350,,252110,0.0000039665,,0.0025912,0.00010138,,,
8671,10.1016/j.intermet.2010.12.001,25128,8(a),31286,CaxDDyFe4Sb12_ x=0.41_ y=0.41 chem mixed,undefined,400,,239870,0.000004169,,0.0029336,0.00011059,,,
8671,10.1016/j.intermet.2010.12.001,25128,8(a),31286,CaxDDyFe4Sb12_ x=0.41_ y=0.41 chem mixed,undefined,450,,228750,0.0000043715,,0.0032951,0.00012002,,,
8671,10.1016/j.intermet.2010.12.001,25128,8(a),31286,CaxDDyFe4Sb12_ x=0.41_ y=0.41 chem mixed,undefined,500,,218630,0.000004574,,0.003641,0.00012905,2.9039,0.61927,0.0012538311
8671,10.1016/j.intermet.2010.12.001,25128,8(a),31286,CaxDDyFe4Sb12_ x=0.41_ y=0.41 chem mixed,undefined,550,,209360,0.0000047764,,0.0039266,0.00013695,2.9891,0.6982,0.0013136396
8671,10.1016/j.intermet.2010.12.001,25128,8(a),31286,CaxDDyFe4Sb12_ x=0.41_ y=0.41 chem mixed,undefined,600,,200850,0.0000049789,,0.0041181,0.00014319,3.0742,0.77712,0.001339568
8671,10.1016/j.intermet.2010.12.001,25128,8(a),31286,CaxDDyFe4Sb12_ x=0.41_ y=0.41 chem mixed,undefined,650,,193000,0.0000051814,,0.0042143,0.00014777,3.1594,0.85604,0.0013338925
8671,10.1016/j.intermet.2010.12.001,25128,8(a),31286,CaxDDyFe4Sb12_ x=0.41_ y=0.41 chem mixed,undefined,700,,185740,0.0000053839,,0.004266,0.00015155,3.2445,0.93497,0.0013148405
8671,10.1016/j.intermet.2010.12.001,25128,8(a),31286,CaxDDyFe4Sb12_ x=0.41_ y=0.41 chem mixed,undefined,750,,179010,0.0000055864,,0.0043877,0.00015656,3.3297,1.0139,0.0013177463
8671,10.1016/j.intermet.2010.12.001,25128,8(a),31286,CaxDDyFe4Sb12_ x=0.41_ y=0.41 chem mixed,undefined,800,,172740,0.0000057889,,,,3.4148,1.0928,
8671,10.1016/j.intermet.2010.12.001,25128,8(a),31285,CaxDDyFe4Sb12_ x=0.64_ y=0.16 chem mixed,undefined,300,,252790,0.0000039559,,0.0021807,0.00009288,,,
8671,10.1016/j.intermet.2010.12.001,25128,8(a),31285,CaxDDyFe4Sb12_ x=0.64_ y=0.16 chem mixed,undefined,350,,239000,0.0000041841,,0.0023382,0.00009891,,,
8671,10.1016/j.intermet.2010.12.001,25128,8(a),31285,CaxDDyFe4Sb12_ x=0.64_ y=0.16 chem mixed,undefined,400,,226630,0.0000044124,,0.0024957,0.00010494,,,
8671,10.1016/j.intermet.2010.12.001,25128,8(a),31285,CaxDDyFe4Sb12_ x=0.64_ y=0.16 chem mixed,undefined,450,,215490,0.0000046406,,0.0026536,0.00011097,,,
8671,10.1016/j.intermet.2010.12.001,25128,8(a),31285,CaxDDyFe4Sb12_ x=0.64_ y=0.16 chem mixed,undefined,500,,205390,0.0000048689,,0.0028116,0.000117,2.6249,0.57141,0.0010711265
8671,10.1016/j.intermet.2010.12.001,25128,8(a),31285,CaxDDyFe4Sb12_ x=0.64_ y=0.16 chem mixed,undefined,550,,196190,0.0000050971,,0.0029696,0.00012303,2.7296,0.62348,0.001087925
8671,10.1016/j.intermet.2010.12.001,25128,8(a),31285,CaxDDyFe4Sb12_ x=0.64_ y=0.16 chem mixed,undefined,600,,187780,0.0000053254,,0.0031278,0.00012906,2.8343,0.67555,0.0011035529
8671,10.1016/j.intermet.2010.12.001,25128,8(a),31285,CaxDDyFe4Sb12_ x=0.64_ y=0.16 chem mixed,undefined,650,,180060,0.0000055537,,0.003286,0.00013509,2.939,0.72761,0.0011180674
8671,10.1016/j.intermet.2010.12.001,25128,8(a),31285,CaxDDyFe4Sb12_ x=0.64_ y=0.16 chem mixed,undefined,700,,172950,0.0000057819,,0.0034443,0.00014112,3.0437,0.77968,0.0011316161
8671,10.1016/j.intermet.2010.12.001,25128,8(a),31285,CaxDDyFe4Sb12_ x=0.64_ y=0.16 chem mixed,undefined,750,,166380,0.0000060102,,0.0036026,0.00014715,3.1484,0.83175,0.0011442638
8671,10.1016/j.intermet.2010.12.001,25128,8(a),31285,CaxDDyFe4Sb12_ x=0.64_ y=0.16 chem mixed,undefined,800,,160300,0.0000062384,,0.0037613,0.00015318,3.2531,0.88382,0.0011562202
8671,10.1016/j.intermet.2010.12.001,25128,8(a),31291,BM Ca0.93Fe4Sb12,undefined,300,,263890,0.0000037894,,0.0022556,0.000092453,,,
8671,10.1016/j.intermet.2010.12.001,25128,8(a),31291,BM Ca0.93Fe4Sb12,undefined,350,,255260,0.0000039175,,0.0024274,0.000097517,,,
8671,10.1016/j.intermet.2010.12.001,25128,8(a),31291,BM Ca0.93Fe4Sb12,undefined,400,,247180,0.0000040456,,0.002601,0.00010258,,,
8671,10.1016/j.intermet.2010.12.001,25128,8(a),31291,BM Ca0.93Fe4Sb12,undefined,450,,239600,0.0000041737,,0.0027766,0.00010765,,,
8671,10.1016/j.intermet.2010.12.001,25128,8(a),31291,BM Ca0.93Fe4Sb12,undefined,500,,232460,0.0000043018,,0.0029531,0.00011271,2.8472,0.5367,0.0010371944
8671,10.1016/j.intermet.2010.12.001,25128,8(a),31291,BM Ca0.93Fe4Sb12,undefined,550,,225740,0.0000044299,,0.0031315,0.00011778,3.0647,0.58312,0.0010217966
8671,10.1016/j.intermet.2010.12.001,25128,8(a),31291,BM Ca0.93Fe4Sb12,undefined,600,,219390,0.000004558,,0.0033105,0.00012284,3.2821,0.62954,0.001008653
8671,10.1016/j.intermet.2010.12.001,25128,8(a),31291,BM Ca0.93Fe4Sb12,undefined,650,,213400,0.0000046861,,0.0034914,0.00012791,3.4995,0.67596,0.0009976854
8671,10.1016/j.intermet.2010.12.001,25128,8(a),31291,BM Ca0.93Fe4Sb12,undefined,700,,207720,0.0000048141,,0.0036727,0.00013297,3.717,0.72239,0.0009880818
8671,10.1016/j.intermet.2010.12.001,25128,8(a),31291,BM Ca0.93Fe4Sb12,undefined,750,,202340,0.0000049422,,0.0038556,0.00013804,3.9344,0.76881,0.0009799715
8671,10.1016/j.intermet.2010.12.001,25128,8(a),31291,BM Ca0.93Fe4Sb12,undefined,800,,197230,0.0000050703,,0.0040388,0.0001431,4.1519,0.81523,0.0009727595
8671,10.1016/j.intermet.2010.12.001,25128,8(a),31292,CaxDDyFe4Sb12_ x=0.5_ y=0.5 non comp chem mixed,undefined,350,,285260,0.0000035056,,0.0018478,0.000080483,,,
8671,10.1016/j.intermet.2010.12.001,25128,8(a),31292,CaxDDyFe4Sb12_ x=0.5_ y=0.5 non comp chem mixed,undefined,400,,267800,0.0000037341,,0.0019643,0.000085645,,,
8671,10.1016/j.intermet.2010.12.001,25128,8(a),31292,CaxDDyFe4Sb12_ x=0.5_ y=0.5 non comp chem mixed,undefined,450,,252370,0.0000039625,,0.002081,0.000090807,,,
8671,10.1016/j.intermet.2010.12.001,25128,8(a),31292,CaxDDyFe4Sb12_ x=0.5_ y=0.5 non comp chem mixed,undefined,500,,238610,0.0000041909,,0.0021976,0.000095968,3.5879,0.30625,0.0006125031
8671,10.1016/j.intermet.2010.12.001,25128,8(a),31292,CaxDDyFe4Sb12_ x=0.5_ y=0.5 non comp chem mixed,undefined,550,,226280,0.0000044194,,0.0023142,0.00010113,3.7401,0.34031,0.0006187535
8671,10.1016/j.intermet.2010.12.001,25128,8(a),31292,CaxDDyFe4Sb12_ x=0.5_ y=0.5 non comp chem mixed,undefined,600,,215160,0.0000046478,,0.0024308,0.00010629,3.8924,0.3747,0.000624499
8671,10.1016/j.intermet.2010.12.001,25128,8(a),31292,CaxDDyFe4Sb12_ x=0.5_ y=0.5 non comp chem mixed,undefined,650,,205080,0.0000048762,,0.0025473,0.00011145,4.0447,0.40936,0.0006297871
8671,10.1016/j.intermet.2010.12.001,25128,8(a),31292,CaxDDyFe4Sb12_ x=0.5_ y=0.5 non comp chem mixed,undefined,700,,195900,0.0000051047,,0.0026643,0.00011662,4.197,0.44437,0.0006348106
8671,10.1016/j.intermet.2010.12.001,25128,8(a),31292,CaxDDyFe4Sb12_ x=0.5_ y=0.5 non comp chem mixed,undefined,750,,187510,0.0000053331,,0.0027808,0.00012178,4.3492,0.47954,0.000639382
8671,10.1016/j.intermet.2010.12.001,25128,8(a),31292,CaxDDyFe4Sb12_ x=0.5_ y=0.5 non comp chem mixed,undefined,800,,179810,0.0000055615,,0.0028974,0.00012694,4.5015,0.51492,0.0006436521
8671,10.1016/j.intermet.2010.12.001,25131,8(b),31295,BaxDDyFe4Sb12_ x=0.62_ y=0.20 chem mixed,undefined,300,,261180,0.0000038288,,0.0014702,0.000075026,,,
8671,10.1016/j.intermet.2010.12.001,25131,8(b),31295,BaxDDyFe4Sb12_ x=0.62_ y=0.20 chem mixed,undefined,350,,247040,0.000004048,,0.0019754,0.000089423,,,
8671,10.1016/j.intermet.2010.12.001,25131,8(b),31295,BaxDDyFe4Sb12_ x=0.62_ y=0.20 chem mixed,undefined,400,,234350,0.0000042671,,0.002274,0.000098505,,,
8671,10.1016/j.intermet.2010.12.001,25131,8(b),31295,BaxDDyFe4Sb12_ x=0.62_ y=0.20 chem mixed,undefined,450,,222900,0.0000044863,,0.0025026,0.00010596,,,
8671,10.1016/j.intermet.2010.12.001,25131,8(b),31295,BaxDDyFe4Sb12_ x=0.62_ y=0.20 chem mixed,undefined,500,,212520,0.0000047054,,0.0027368,0.00011348,2.8159,0.49328,0.0009719095
8671,10.1016/j.intermet.2010.12.001,25131,8(b),31295,BaxDDyFe4Sb12_ x=0.62_ y=0.20 chem mixed,undefined,550,,203060,0.0000049246,,0.0029887,0.00012132,2.9399,0.55394,0.0010165992
8671,10.1016/j.intermet.2010.12.001,25131,8(b),31295,BaxDDyFe4Sb12_ x=0.62_ y=0.20 chem mixed,undefined,600,,194410,0.0000051438,,0.0032297,0.00012889,3.0639,0.6146,0.001054114
8671,10.1016/j.intermet.2010.12.001,25131,8(b),31295,BaxDDyFe4Sb12_ x=0.62_ y=0.20 chem mixed,undefined,650,,186470,0.0000053629,,0.0034151,0.00013533,3.1879,0.67527,0.0010712695
8671,10.1016/j.intermet.2010.12.001,25131,8(b),31295,BaxDDyFe4Sb12_ x=0.62_ y=0.20 chem mixed,undefined,700,,179140,0.0000055821,,0.0035147,0.00014007,3.3119,0.73593,0.0010612337
8671,10.1016/j.intermet.2010.12.001,25131,8(b),31295,BaxDDyFe4Sb12_ x=0.62_ y=0.20 chem mixed,undefined,750,,172380,0.0000058013,,0.0035452,0.00014341,3.4359,0.79659,0.0010318112
8671,10.1016/j.intermet.2010.12.001,25131,8(b),31295,BaxDDyFe4Sb12_ x=0.62_ y=0.20 chem mixed,undefined,800,,166100,0.0000060204,,0.0035946,0.00014711,3.56,0.85725,0.0010097191
8671,10.1016/j.intermet.2010.12.001,25131,8(b),31296,BaxDDyFe4Sb12_ x=0.44_ y=0.42 chem mixed,undefined,300,,142010,0.0000070419,,0.0016894,0.00010907,,,
8671,10.1016/j.intermet.2010.12.001,25131,8(b),31296,BaxDDyFe4Sb12_ x=0.44_ y=0.42 chem mixed,undefined,350,,138390,0.0000072262,,0.001868,0.00011618,,,
8671,10.1016/j.intermet.2010.12.001,25131,8(b),31296,BaxDDyFe4Sb12_ x=0.44_ y=0.42 chem mixed,undefined,400,,134940,0.0000074105,,0.0020508,0.00012328,,,
8671,10.1016/j.intermet.2010.12.001,25131,8(b),31296,BaxDDyFe4Sb12_ x=0.44_ y=0.42 chem mixed,undefined,450,,131670,0.0000075948,,0.0022383,0.00013038,,,
8671,10.1016/j.intermet.2010.12.001,25131,8(b),31296,BaxDDyFe4Sb12_ x=0.44_ y=0.42 chem mixed,undefined,500,,128550,0.0000077791,,0.00243,0.00013749,2.0983,0.66867,0.0011580804
8671,10.1016/j.intermet.2010.12.001,25131,8(b),31296,BaxDDyFe4Sb12_ x=0.44_ y=0.42 chem mixed,undefined,550,,125570,0.0000079635,,0.0026252,0.00014459,2.1405,0.74997,0.0012264424
8671,10.1016/j.intermet.2010.12.001,25131,8(b),31296,BaxDDyFe4Sb12_ x=0.44_ y=0.42 chem mixed,undefined,600,,122730,0.0000081478,,0.002824,0.00015169,2.1827,0.83127,0.0012938104
8671,10.1016/j.intermet.2010.12.001,25131,8(b),31296,BaxDDyFe4Sb12_ x=0.44_ y=0.42 chem mixed,undefined,650,,120020,0.0000083321,,0.0030266,0.0001588,2.2249,0.91256,0.0013603308
8671,10.1016/j.intermet.2010.12.001,25131,8(b),31296,BaxDDyFe4Sb12_ x=0.44_ y=0.42 chem mixed,undefined,700,,117420,0.0000085164,,0.0032317,0.0001659,2.2671,0.99386,0.0014254775
8671,10.1016/j.intermet.2010.12.001,25131,8(b),31296,BaxDDyFe4Sb12_ x=0.44_ y=0.42 chem mixed,undefined,750,,114930,0.0000087007,,0.0034401,0.00017301,2.3093,1.0752,0.0014896722
8671,10.1016/j.intermet.2010.12.001,25131,8(b),31296,BaxDDyFe4Sb12_ x=0.44_ y=0.42 chem mixed,undefined,800,,112550,0.000008885,,0.0036511,0.00018011,2.3515,1.1565,0.0015526685
8671,10.1016/j.intermet.2010.12.001,25131,8(b),31297,BaxDDyFe4Sb12_ x=0.21_ y=0.60 chem mixed,undefined,300,,305290,0.0000032756,,0.0018996,0.000078881,,,
8671,10.1016/j.intermet.2010.12.001,25131,8(b),31297,BaxDDyFe4Sb12_ x=0.21_ y=0.60 chem mixed,undefined,350,,286730,0.0000034876,,0.0020508,0.000084572,,,
8671,10.1016/j.intermet.2010.12.001,25131,8(b),31297,BaxDDyFe4Sb12_ x=0.21_ y=0.60 chem mixed,undefined,400,,270300,0.0000036996,,0.0022022,0.000090263,,,
8671,10.1016/j.intermet.2010.12.001,25131,8(b),31297,BaxDDyFe4Sb12_ x=0.21_ y=0.60 chem mixed,undefined,450,,255660,0.0000039115,,0.0023539,0.000095953,,,
8671,10.1016/j.intermet.2010.12.001,25131,8(b),31297,BaxDDyFe4Sb12_ x=0.21_ y=0.60 chem mixed,undefined,500,,242510,0.0000041235,,0.0025053,0.00010164,3.1733,0.38791,0.0007894936
8671,10.1016/j.intermet.2010.12.001,25131,8(b),31297,BaxDDyFe4Sb12_ x=0.21_ y=0.60 chem mixed,undefined,550,,230650,0.0000043355,,0.0026575,0.00010734,3.2465,0.43245,0.0008185738
8671,10.1016/j.intermet.2010.12.001,25131,8(b),31297,BaxDDyFe4Sb12_ x=0.21_ y=0.60 chem mixed,undefined,600,,219910,0.0000045474,,0.0028095,0.00011303,3.3197,0.47698,0.0008463114
8671,10.1016/j.intermet.2010.12.001,25131,8(b),31297,BaxDDyFe4Sb12_ x=0.21_ y=0.60 chem mixed,undefined,650,,210110,0.0000047594,,0.0029614,0.00011872,3.393,0.52152,0.0008727969
8671,10.1016/j.intermet.2010.12.001,25131,8(b),31297,BaxDDyFe4Sb12_ x=0.21_ y=0.60 chem mixed,undefined,700,,201150,0.0000049713,,0.0031134,0.00012441,3.4662,0.56606,0.0008982171
8671,10.1016/j.intermet.2010.12.001,25131,8(b),31297,BaxDDyFe4Sb12_ x=0.21_ y=0.60 chem mixed,undefined,750,,192930,0.0000051833,,0.0032655,0.0001301,3.5395,0.61059,0.0009225879
8671,10.1016/j.intermet.2010.12.001,25131,8(b),31297,BaxDDyFe4Sb12_ x=0.21_ y=0.60 chem mixed,undefined,800,,185350,0.0000053953,,0.0034177,0.00013579,3.6127,0.65513,0.0009460237
8671,10.1016/j.intermet.2010.12.001,25131,8(b),31298,BaxDDyFe4Sb12_ x=0.5_ y=0.5 non comp chem mixed,undefined,300,,282570,0.0000035389,,0.0015762,0.000074686,,,
8671,10.1016/j.intermet.2010.12.001,25131,8(b),31298,BaxDDyFe4Sb12_ x=0.5_ y=0.5 non comp chem mixed,undefined,350,,265330,0.0000037689,,0.001697,0.000079974,,,
8671,10.1016/j.intermet.2010.12.001,25131,8(b),31298,BaxDDyFe4Sb12_ x=0.5_ y=0.5 non comp chem mixed,undefined,400,,250070,0.0000039989,,0.0018179,0.000085262,,,
8671,10.1016/j.intermet.2010.12.001,25131,8(b),31298,BaxDDyFe4Sb12_ x=0.5_ y=0.5 non comp chem mixed,undefined,450,,236470,0.0000042288,,0.0019389,0.00009055,,,
8671,10.1016/j.intermet.2010.12.001,25131,8(b),31298,BaxDDyFe4Sb12_ x=0.5_ y=0.5 non comp chem mixed,undefined,500,,224280,0.0000044588,,0.00206,0.000095837,3.0214,0.3409,0.0006818031
8671,10.1016/j.intermet.2010.12.001,25131,8(b),31298,BaxDDyFe4Sb12_ x=0.5_ y=0.5 non comp chem mixed,undefined,550,,213270,0.0000046888,,0.0021812,0.00010113,3.1777,0.37752,0.0006864084
8671,10.1016/j.intermet.2010.12.001,25131,8(b),31298,BaxDDyFe4Sb12_ x=0.5_ y=0.5 non comp chem mixed,undefined,600,,203300,0.0000049188,,0.002302,0.00010641,3.3341,0.41426,0.0006904412
8671,10.1016/j.intermet.2010.12.001,25131,8(b),31298,BaxDDyFe4Sb12_ x=0.5_ y=0.5 non comp chem mixed,undefined,650,,194220,0.0000051488,,0.0024233,0.0001117,3.4904,0.45128,0.0006942757
8671,10.1016/j.intermet.2010.12.001,25131,8(b),31298,BaxDDyFe4Sb12_ x=0.5_ y=0.5 non comp chem mixed,undefined,700,,185920,0.0000053788,,0.0025446,0.00011699,3.6467,0.48845,0.0006977816
8671,10.1016/j.intermet.2010.12.001,25131,8(b),31298,BaxDDyFe4Sb12_ x=0.5_ y=0.5 non comp chem mixed,undefined,750,,178290,0.0000056088,,0.0026659,0.00012228,3.8031,0.52574,0.0007009808
8671,10.1016/j.intermet.2010.12.001,25131,8(b),31298,BaxDDyFe4Sb12_ x=0.5_ y=0.5 non comp chem mixed,undefined,800,,171270,0.0000058387,,0.0027868,0.00012756,3.9594,0.56308,0.000703844
8671,10.1016/j.intermet.2010.12.001,25131,8(b),31299,BM Ba0.87Fe4Sb12,undefined,300,,288380,0.0000034676,,0.0017709,0.000078364,,,
8671,10.1016/j.intermet.2010.12.001,25131,8(b),31299,BM Ba0.87Fe4Sb12,undefined,350,,271770,0.0000036796,,0.0019676,0.000085087,,,
8671,10.1016/j.intermet.2010.12.001,25131,8(b),31299,BM Ba0.87Fe4Sb12,undefined,400,,256960,0.0000038916,,0.0021659,0.00009181,,,