sid,DOI,figureid,fignum,sampleid,samplename,composition,Temperature,Carrier mobility,Electrical conductivity,Electrical resistivity,Lattice thermal conductivity,Power factor,Seebeck coefficient,Thermal conductivity,ZT,Figure of merit Z
21244,10.1073/pnas.1617663113,17144,4(F),20640,FeNb.7Ti0.3Sb,Fe1.02Nb0.69Ti0.3Sb0.98,800,,179780,0.0000055624,,0.0045248,0.00016409,4.7147,0.7791,0.0009597217
21244,10.1073/pnas.1617663113,17144,4(F),20640,FeNb.7Ti0.3Sb,Fe1.02Nb0.69Ti0.3Sb0.98,850,,157050,0.0000063674,,0.0046175,0.00017143,4.5453,0.84372,0.0010158845
21244,10.1073/pnas.1617663113,17144,4(F),20640,FeNb.7Ti0.3Sb,Fe1.02Nb0.69Ti0.3Sb0.98,900,,134320,0.0000074449,,0.0047101,0.00017876,4.376,0.90834,0.0010763483
21244,10.1073/pnas.1617663113,17144,4(F),20640,FeNb.7Ti0.3Sb,Fe1.02Nb0.69Ti0.3Sb0.98,950,,111590,0.0000089614,,0.0048028,0.00018609,4.2066,0.97296,0.0011417297
21244,10.1073/pnas.1617663113,17144,4(F),20641,FeNb0.6Ti0.4Sb,Fe1.03Nb0.95Ti0.04Sb0.98,350,,209550,0.0000047721,,0.0082603,0.00019235,11.686,0.26639,0.0007068544
21244,10.1073/pnas.1617663113,17144,4(F),20641,FeNb0.6Ti0.4Sb,Fe1.03Nb0.95Ti0.04Sb0.98,400,,193090,0.0000051789,,0.0079144,0.00020479,11.198,0.29787,0.0007067691
21244,10.1073/pnas.1617663113,17144,4(F),20641,FeNb0.6Ti0.4Sb,Fe1.03Nb0.95Ti0.04Sb0.98,450,,176630,0.0000056616,,0.0075686,0.00021685,10.709,0.32936,0.0007067513
21244,10.1073/pnas.1617663113,17144,4(F),20641,FeNb0.6Ti0.4Sb,Fe1.03Nb0.95Ti0.04Sb0.98,500,,160180,0.000006243,,0.0072227,0.00022752,10.221,0.36085,0.000706653
21244,10.1073/pnas.1617663113,17144,4(F),20641,FeNb0.6Ti0.4Sb,Fe1.03Nb0.95Ti0.04Sb0.98,550,,143720,0.000006958,,0.0068768,0.00023663,9.732,0.39234,0.0007066173
21244,10.1073/pnas.1617663113,17144,4(F),20641,FeNb0.6Ti0.4Sb,Fe1.03Nb0.95Ti0.04Sb0.98,600,,127260,0.0000078579,,0.006531,0.00024457,9.2436,0.42383,0.0007065429
21244,10.1073/pnas.1617663113,17144,4(F),20641,FeNb0.6Ti0.4Sb,Fe1.03Nb0.95Ti0.04Sb0.98,650,,110800,0.0000090253,,0.0061851,0.00025204,8.7551,0.45531,0.0007064568
21244,10.1073/pnas.1617663113,17144,4(F),20641,FeNb0.6Ti0.4Sb,Fe1.03Nb0.95Ti0.04Sb0.98,700,,94346,0.000010599,,0.0058392,0.00025984,8.2666,0.4868,0.0007063605
21244,10.1073/pnas.1617663113,17144,4(F),20641,FeNb0.6Ti0.4Sb,Fe1.03Nb0.95Ti0.04Sb0.98,750,,77889,0.000012839,,0.0054934,0.00026858,7.7781,0.51829,0.000706265
21244,10.1073/pnas.1617663113,17144,4(F),20641,FeNb0.6Ti0.4Sb,Fe1.03Nb0.95Ti0.04Sb0.98,800,,61432,0.000016278,,0.0051475,0.00027848,7.2896,0.54978,0.000706143
21244,10.1073/pnas.1617663113,17144,4(F),20641,FeNb0.6Ti0.4Sb,Fe1.03Nb0.95Ti0.04Sb0.98,850,,44975,0.000022235,,0.0048016,0.0002891,6.8011,0.58126,0.0007060034
21244,10.1073/pnas.1617663113,17144,4(F),20641,FeNb0.6Ti0.4Sb,Fe1.03Nb0.95Ti0.04Sb0.98,900,,28517,0.000035067,,0.0044558,0.00029911,6.3126,0.61275,0.0007058581
21244,10.1073/pnas.1617663113,17144,4(F),20641,FeNb0.6Ti0.4Sb,Fe1.03Nb0.95Ti0.04Sb0.98,950,,12060,0.000082919,,0.0041099,0.00030604,5.8241,0.64424,0.0007056713
21244,10.1073/pnas.1617663113,17144,4(F),20642,FeNb0.95Ti0.05Sb,Fe1.01Nb0.94Ti0.05Sb0.99,350,,272130,0.0000036747,,0.0099392,0.00019007,11.539,0.32893,0.0008613571
21244,10.1073/pnas.1617663113,17144,4(F),20642,FeNb0.95Ti0.05Sb,Fe1.01Nb0.94Ti0.05Sb0.99,400,,250330,0.0000039947,,0.0095162,0.00020002,11.067,0.36599,0.0008598717
21244,10.1073/pnas.1617663113,17144,4(F),20642,FeNb0.95Ti0.05Sb,Fe1.01Nb0.94Ti0.05Sb0.99,450,,228530,0.0000043758,,0.0090933,0.00020997,10.595,0.40305,0.0008582633
21244,10.1073/pnas.1617663113,17144,4(F),20642,FeNb0.95Ti0.05Sb,Fe1.01Nb0.94Ti0.05Sb0.99,500,,206740,0.000004837,,0.0086703,0.00021993,10.123,0.44012,0.0008564951
21244,10.1073/pnas.1617663113,17144,4(F),20642,FeNb0.95Ti0.05Sb,Fe1.01Nb0.94Ti0.05Sb0.99,550,,184940,0.0000054072,,0.0082474,0.00022988,9.6515,0.47718,0.00085452
21244,10.1073/pnas.1617663113,17144,4(F),20642,FeNb0.95Ti0.05Sb,Fe1.01Nb0.94Ti0.05Sb0.99,600,,163140,0.0000061297,,0.0078245,0.00023983,9.1797,0.51424,0.0008523699
21244,10.1073/pnas.1617663113,17144,4(F),20642,FeNb0.95Ti0.05Sb,Fe1.01Nb0.94Ti0.05Sb0.99,650,,141340,0.0000070751,,0.0074015,0.00024979,8.7079,0.5513,0.0008499753
21244,10.1073/pnas.1617663113,17144,4(F),20642,FeNb0.95Ti0.05Sb,Fe1.01Nb0.94Ti0.05Sb0.99,700,,119540,0.0000083654,,0.0069786,0.00025974,8.2362,0.58836,0.0008473082
21244,10.1073/pnas.1617663113,17144,4(F),20642,FeNb0.95Ti0.05Sb,Fe1.01Nb0.94Ti0.05Sb0.99,750,,97742,0.000010231,,0.0065556,0.00026969,7.7644,0.62543,0.0008443151
21244,10.1073/pnas.1617663113,17144,4(F),20642,FeNb0.95Ti0.05Sb,Fe1.01Nb0.94Ti0.05Sb0.99,800,,75944,0.000013168,,0.0061327,0.00027965,7.2926,0.66249,0.0008409484
21244,10.1073/pnas.1617663113,17144,4(F),20642,FeNb0.95Ti0.05Sb,Fe1.01Nb0.94Ti0.05Sb0.99,850,,54145,0.000018469,,0.0057097,0.0002896,6.8208,0.69955,0.0008371012
21244,10.1073/pnas.1617663113,17144,4(F),20642,FeNb0.95Ti0.05Sb,Fe1.01Nb0.94Ti0.05Sb0.99,900,,32346,0.000030916,,0.0052868,0.00029955,6.3491,0.73661,0.0008326849
21244,10.1073/pnas.1617663113,17144,4(F),20642,FeNb0.95Ti0.05Sb,Fe1.01Nb0.94Ti0.05Sb0.99,950,,10547,0.000094814,,0.0048638,0.00030951,5.8773,0.77368,0.0008275569
21244,10.1073/pnas.1617663113,17209,4(B),20642,FeNb0.95Ti0.05Sb,Fe1.01Nb0.94Ti0.05Sb0.99,300,,,,,,0.00018011,,,
21244,10.1073/pnas.1617663113,17144,4(F),20643,FeNb0.94Ti0.06Sb,Fe1.01Nb0.93Ti0.06Sb0.99,350,,318640,0.0000031383,,0.0090037,0.00016585,11.467,0.28246,0.0007851836
21244,10.1073/pnas.1617663113,17144,4(F),20643,FeNb0.94Ti0.06Sb,Fe1.01Nb0.93Ti0.06Sb0.99,400,,293410,0.0000034082,,0.0086378,0.00017575,10.996,0.3196,0.0007855402
21244,10.1073/pnas.1617663113,17144,4(F),20643,FeNb0.94Ti0.06Sb,Fe1.01Nb0.93Ti0.06Sb0.99,450,,268180,0.0000037288,,0.008272,0.00018564,10.524,0.35674,0.0007860129
21244,10.1073/pnas.1617663113,17144,4(F),20643,FeNb0.94Ti0.06Sb,Fe1.01Nb0.93Ti0.06Sb0.99,500,,242950,0.0000041161,,0.0079062,0.00019554,10.053,0.39388,0.0007864518
21244,10.1073/pnas.1617663113,17144,4(F),20643,FeNb0.94Ti0.06Sb,Fe1.01Nb0.93Ti0.06Sb0.99,550,,217720,0.0000045931,,0.0075404,0.00020544,9.5817,0.43103,0.0007869585
21244,10.1073/pnas.1617663113,17144,4(F),20643,FeNb0.94Ti0.06Sb,Fe1.01Nb0.93Ti0.06Sb0.99,600,,192490,0.0000051951,,0.0071746,0.00021533,9.1103,0.46817,0.0007875262
21244,10.1073/pnas.1617663113,17144,4(F),20643,FeNb0.94Ti0.06Sb,Fe1.01Nb0.93Ti0.06Sb0.99,650,,167260,0.0000059787,,0.0068088,0.00022523,8.639,0.50531,0.0007881468
21244,10.1073/pnas.1617663113,17144,4(F),20643,FeNb0.94Ti0.06Sb,Fe1.01Nb0.93Ti0.06Sb0.99,700,,142020,0.0000070413,,0.0064429,0.00023512,8.1676,0.54245,0.0007888364
21244,10.1073/pnas.1617663113,17144,4(F),20643,FeNb0.94Ti0.06Sb,Fe1.01Nb0.93Ti0.06Sb0.99,750,,116790,0.0000085624,,0.0060771,0.00024502,7.6963,0.5796,0.0007896132
21244,10.1073/pnas.1617663113,17144,4(F),20643,FeNb0.94Ti0.06Sb,Fe1.01Nb0.93Ti0.06Sb0.99,800,,91562,0.000010922,,0.0057113,0.00025491,7.2249,0.61674,0.0007905023
21244,10.1073/pnas.1617663113,17144,4(F),20643,FeNb0.94Ti0.06Sb,Fe1.01Nb0.93Ti0.06Sb0.99,850,,66331,0.000015076,,0.0053455,0.00026481,6.7536,0.65388,0.0007915038
21244,10.1073/pnas.1617663113,17144,4(F),20643,FeNb0.94Ti0.06Sb,Fe1.01Nb0.93Ti0.06Sb0.99,900,,41100,0.000024331,,0.0049797,0.0002747,6.2822,0.69102,0.0007926682
21244,10.1073/pnas.1617663113,17144,4(F),20643,FeNb0.94Ti0.06Sb,Fe1.01Nb0.93Ti0.06Sb0.99,950,,15869,0.000063016,,0.0046139,0.0002846,5.8109,0.72816,0.0007940078
21244,10.1073/pnas.1617663113,17209,4(B),20643,FeNb0.94Ti0.06Sb,Fe1.01Nb0.93Ti0.06Sb0.99,300,,,,,,0.00015596,,,
21244,10.1073/pnas.1617663113,17144,4(F),20644,FeNb0.93Ti0.07Sb,Fe0.99Nb0.92Ti0.07Sb1.01,350,,360350,0.0000027751,,0.0090432,0.00015654,10.833,0.31786,0.0008347826
21244,10.1073/pnas.1617663113,17144,4(F),20644,FeNb0.93Ti0.07Sb,Fe0.99Nb0.92Ti0.07Sb1.01,400,,332100,0.0000030111,,0.0087018,0.00016662,10.385,0.35949,0.0008379201
21244,10.1073/pnas.1617663113,17144,4(F),20644,FeNb0.93Ti0.07Sb,Fe0.99Nb0.92Ti0.07Sb1.01,450,,303850,0.0000032911,,0.0083604,0.00017671,9.9376,0.40112,0.0008412896
21244,10.1073/pnas.1617663113,17144,4(F),20644,FeNb0.93Ti0.07Sb,Fe0.99Nb0.92Ti0.07Sb1.01,500,,275600,0.0000036284,,0.0080191,0.00018679,9.4897,0.44274,0.000845032
21244,10.1073/pnas.1617663113,17144,4(F),20644,FeNb0.93Ti0.07Sb,Fe0.99Nb0.92Ti0.07Sb1.01,550,,247360,0.0000040427,,0.0076777,0.00019688,9.0418,0.48437,0.000849134
21244,10.1073/pnas.1617663113,17144,4(F),20644,FeNb0.93Ti0.07Sb,Fe0.99Nb0.92Ti0.07Sb1.01,600,,219110,0.0000045639,,0.0073363,0.00020696,8.5939,0.526,0.0008536636
21244,10.1073/pnas.1617663113,17144,4(F),20644,FeNb0.93Ti0.07Sb,Fe0.99Nb0.92Ti0.07Sb1.01,650,,190860,0.0000052394,,0.0069949,0.00021705,8.146,0.56762,0.0008586914
21244,10.1073/pnas.1617663113,17144,4(F),20644,FeNb0.93Ti0.07Sb,Fe0.99Nb0.92Ti0.07Sb1.01,700,,162620,0.0000061493,,0.0066535,0.00022713,7.6981,0.60925,0.0008643042
21244,10.1073/pnas.1617663113,17144,4(F),20644,FeNb0.93Ti0.07Sb,Fe0.99Nb0.92Ti0.07Sb1.01,750,,134370,0.0000074421,,0.0063122,0.00023722,7.2502,0.65088,0.0008706243
21244,10.1073/pnas.1617663113,17144,4(F),20644,FeNb0.93Ti0.07Sb,Fe0.99Nb0.92Ti0.07Sb1.01,800,,106120,0.0000094233,,0.0059708,0.00024731,6.8023,0.6925,0.0008777619
21244,10.1073/pnas.1617663113,17144,4(F),20644,FeNb0.93Ti0.07Sb,Fe0.99Nb0.92Ti0.07Sb1.01,850,,77877,0.000012841,,0.0056294,0.00025739,6.3544,0.73413,0.0008859058
21244,10.1073/pnas.1617663113,17144,4(F),20644,FeNb0.93Ti0.07Sb,Fe0.99Nb0.92Ti0.07Sb1.01,900,,49631,0.000020149,,0.005288,0.00026748,5.9065,0.77576,0.0008952849
21244,10.1073/pnas.1617663113,17144,4(F),20644,FeNb0.93Ti0.07Sb,Fe0.99Nb0.92Ti0.07Sb1.01,950,,21384,0.000046764,,0.0049467,0.00027756,5.4587,0.81738,0.0009062048
21244,10.1073/pnas.1617663113,17209,4(B),20539,FeSb0.8Ti0.2Sb,Fe1.02Nb0.8Ti0.2Sb0.99,300,,,,,,0.000089574,,,
21244,10.1073/pnas.1617663113,17209,4(B),20539,FeSb0.8Ti0.2Sb,Fe1.02Nb0.8Ti0.2Sb0.99,350,,509370,0.0000019632,,0.0050027,0.000095769,7.9087,0.19974,0.0006325566
21244,10.1073/pnas.1617663113,17209,4(B),20539,FeSb0.8Ti0.2Sb,Fe1.02Nb0.8Ti0.2Sb0.99,400,,474490,0.0000021075,,0.0050537,0.00010423,7.6244,0.27049,0.0006628325
21244,10.1073/pnas.1617663113,17209,4(B),20539,FeSb0.8Ti0.2Sb,Fe1.02Nb0.8Ti0.2Sb0.99,450,,439600,0.0000022748,,0.0051048,0.00011407,7.3402,0.34123,0.0006954579
21244,10.1073/pnas.1617663113,17209,4(B),20539,FeSb0.8Ti0.2Sb,Fe1.02Nb0.8Ti0.2Sb0.99,500,,404710,0.0000024709,,0.0051558,0.00012457,7.0559,0.41198,0.0007307076
21244,10.1073/pnas.1617663113,17209,4(B),20539,FeSb0.8Ti0.2Sb,Fe1.02Nb0.8Ti0.2Sb0.99,550,,369830,0.0000027039,,0.0052069,0.00013517,6.7716,0.48273,0.000768932
21244,10.1073/pnas.1617663113,17209,4(B),20539,FeSb0.8Ti0.2Sb,Fe1.02Nb0.8Ti0.2Sb0.99,600,,334940,0.0000029856,,0.005258,0.00014547,6.4873,0.55347,0.0008105067
21244,10.1073/pnas.1617663113,17209,4(B),20539,FeSb0.8Ti0.2Sb,Fe1.02Nb0.8Ti0.2Sb0.99,650,,300050,0.0000033328,,0.005309,0.00015517,6.203,0.62422,0.0008558762
21244,10.1073/pnas.1617663113,17209,4(B),20539,FeSb0.8Ti0.2Sb,Fe1.02Nb0.8Ti0.2Sb0.99,700,,265170,0.0000037712,,0.0053601,0.00016411,5.9187,0.69497,0.0009056212
21244,10.1073/pnas.1617663113,17209,4(B),20539,FeSb0.8Ti0.2Sb,Fe1.02Nb0.8Ti0.2Sb0.99,750,,230280,0.0000043425,,0.0054111,0.00017223,5.6344,0.76572,0.0009603685
21244,10.1073/pnas.1617663113,17209,4(B),20539,FeSb0.8Ti0.2Sb,Fe1.02Nb0.8Ti0.2Sb0.99,800,,195390,0.000005118,,0.0054622,0.00017954,5.3502,0.83646,0.0010209338
21244,10.1073/pnas.1617663113,17209,4(B),20539,FeSb0.8Ti0.2Sb,Fe1.02Nb0.8Ti0.2Sb0.99,850,,160510,0.0000062301,,0.0055133,0.00018613,5.0659,0.90721,0.001088316
21244,10.1073/pnas.1617663113,17209,4(B),20539,FeSb0.8Ti0.2Sb,Fe1.02Nb0.8Ti0.2Sb0.99,900,,125620,0.0000079605,,0.0055643,0.00019214,4.7816,0.97796,0.00116369
21244,10.1073/pnas.1617663113,17209,4(B),20539,FeSb0.8Ti0.2Sb,Fe1.02Nb0.8Ti0.2Sb0.99,950,,90734,0.000011021,,0.0056154,0.00019775,4.4973,1.0487,0.0012486158
21244,10.1073/pnas.1617663113,25325,7f,31556,Nb0.95Ti0.05FeSb ,Nb0.95Ti0.05FeSb ,350,,,,,,,,0.32237,
21244,10.1073/pnas.1617663113,25325,7f,31556,Nb0.95Ti0.05FeSb ,Nb0.95Ti0.05FeSb ,400,,,,,,,,0.35943,
21244,10.1073/pnas.1617663113,25325,7f,31556,Nb0.95Ti0.05FeSb ,Nb0.95Ti0.05FeSb ,450,,,,,,,,0.39649,
21244,10.1073/pnas.1617663113,25325,7f,31556,Nb0.95Ti0.05FeSb ,Nb0.95Ti0.05FeSb ,500,,,,,,,,0.43354,
21244,10.1073/pnas.1617663113,25325,7f,31556,Nb0.95Ti0.05FeSb ,Nb0.95Ti0.05FeSb ,550,,,,,,,,0.4706,
21244,10.1073/pnas.1617663113,25325,7f,31556,Nb0.95Ti0.05FeSb ,Nb0.95Ti0.05FeSb ,600,,,,,,,,0.50766,
21244,10.1073/pnas.1617663113,25325,7f,31556,Nb0.95Ti0.05FeSb ,Nb0.95Ti0.05FeSb ,650,,,,,,,,0.54471,
21244,10.1073/pnas.1617663113,25325,7f,31556,Nb0.95Ti0.05FeSb ,Nb0.95Ti0.05FeSb ,700,,,,,,,,0.58177,
21244,10.1073/pnas.1617663113,25325,7f,31556,Nb0.95Ti0.05FeSb ,Nb0.95Ti0.05FeSb ,750,,,,,,,,0.61883,
21244,10.1073/pnas.1617663113,25325,7f,31556,Nb0.95Ti0.05FeSb ,Nb0.95Ti0.05FeSb ,800,,,,,,,,0.65589,
21244,10.1073/pnas.1617663113,25325,7f,31556,Nb0.95Ti0.05FeSb ,Nb0.95Ti0.05FeSb ,850,,,,,,,,0.69294,
21244,10.1073/pnas.1617663113,25325,7f,31556,Nb0.95Ti0.05FeSb ,Nb0.95Ti0.05FeSb ,900,,,,,,,,0.73,
21244,10.1073/pnas.1617663113,25325,7f,31556,Nb0.95Ti0.05FeSb ,Nb0.95Ti0.05FeSb ,950,,,,,,,,0.76706,
21244,10.1073/pnas.1617663113,25325,7f,31557,Nb0.8Ti0.2FeSb,Nb0.8Ti0.2FeSb,350,,,,,,,,0.19987,
21244,10.1073/pnas.1617663113,25325,7f,31557,Nb0.8Ti0.2FeSb,Nb0.8Ti0.2FeSb,400,,,,,,,,0.27042,
21244,10.1073/pnas.1617663113,25325,7f,31557,Nb0.8Ti0.2FeSb,Nb0.8Ti0.2FeSb,450,,,,,,,,0.34096,
21244,10.1073/pnas.1617663113,25325,7f,31557,Nb0.8Ti0.2FeSb,Nb0.8Ti0.2FeSb,500,,,,,,,,0.41151,
21244,10.1073/pnas.1617663113,25325,7f,31557,Nb0.8Ti0.2FeSb,Nb0.8Ti0.2FeSb,550,,,,,,,,0.48206,
21244,10.1073/pnas.1617663113,25325,7f,31557,Nb0.8Ti0.2FeSb,Nb0.8Ti0.2FeSb,600,,,,,,,,0.55261,
21244,10.1073/pnas.1617663113,25325,7f,31557,Nb0.8Ti0.2FeSb,Nb0.8Ti0.2FeSb,650,,,,,,,,0.62315,
21244,10.1073/pnas.1617663113,25325,7f,31557,Nb0.8Ti0.2FeSb,Nb0.8Ti0.2FeSb,700,,,,,,,,0.6937,
21244,10.1073/pnas.1617663113,25325,7f,31557,Nb0.8Ti0.2FeSb,Nb0.8Ti0.2FeSb,750,,,,,,,,0.76425,
21244,10.1073/pnas.1617663113,25325,7f,31557,Nb0.8Ti0.2FeSb,Nb0.8Ti0.2FeSb,800,,,,,,,,0.8348,
21244,10.1073/pnas.1617663113,25325,7f,31557,Nb0.8Ti0.2FeSb,Nb0.8Ti0.2FeSb,850,,,,,,,,0.90535,
21244,10.1073/pnas.1617663113,25325,7f,31557,Nb0.8Ti0.2FeSb,Nb0.8Ti0.2FeSb,900,,,,,,,,0.97589,
21244,10.1073/pnas.1617663113,25325,7f,31557,Nb0.8Ti0.2FeSb,Nb0.8Ti0.2FeSb,950,,,,,,,,1.0464,
27921,10.1016/j.ensm.2017.07.014,25319,3a,31544,FeNb0.9-xHf0.1TixSb_ x=0,FeNb0.9Hf0.1Sb,350,,370130,0.0000027018,,0.0037974,0.00010129,7.4784,0.33155,0.0005077824
27921,10.1016/j.ensm.2017.07.014,25319,3a,31544,FeNb0.9-xHf0.1TixSb_ x=0,FeNb0.9Hf0.1Sb,400,,348780,0.0000028671,,0.0044915,0.00011348,7.276,0.37402,0.0006173035
27921,10.1016/j.ensm.2017.07.014,25319,3a,31544,FeNb0.9-xHf0.1TixSb_ x=0,FeNb0.9Hf0.1Sb,450,,327430,0.0000030541,,0.0051284,0.00012515,7.0736,0.4165,0.0007250057
27921,10.1016/j.ensm.2017.07.014,25319,3a,31544,FeNb0.9-xHf0.1TixSb_ x=0,FeNb0.9Hf0.1Sb,500,,306080,0.0000032671,,0.0056854,0.00013629,6.8712,0.45897,0.0008274246
27921,10.1016/j.ensm.2017.07.014,25319,3a,31544,FeNb0.9-xHf0.1TixSb_ x=0,FeNb0.9Hf0.1Sb,550,,284730,0.0000035121,,0.0061435,0.00014689,6.6688,0.50144,0.0009212302
27921,10.1016/j.ensm.2017.07.014,25319,3a,31544,FeNb0.9-xHf0.1TixSb_ x=0,FeNb0.9Hf0.1Sb,600,,263380,0.0000037968,,0.0064887,0.00015696,6.4664,0.54391,0.0010034486
27921,10.1016/j.ensm.2017.07.014,25319,3a,31544,FeNb0.9-xHf0.1TixSb_ x=0,FeNb0.9Hf0.1Sb,650,,242030,0.0000041317,,0.0067104,0.00016651,6.264,0.58638,0.0010712644
27921,10.1016/j.ensm.2017.07.014,25319,3a,31544,FeNb0.9-xHf0.1TixSb_ x=0,FeNb0.9Hf0.1Sb,700,,220680,0.0000045314,,0.0067985,0.00017552,6.0616,0.62885,0.0011215686
27921,10.1016/j.ensm.2017.07.014,25319,3a,31544,FeNb0.9-xHf0.1TixSb_ x=0,FeNb0.9Hf0.1Sb,750,,199330,0.0000050168,,0.0067485,0.000184,5.8593,0.67133,0.0011517587
27921,10.1016/j.ensm.2017.07.014,25319,3a,31544,FeNb0.9-xHf0.1TixSb_ x=0,FeNb0.9Hf0.1Sb,800,,177980,0.0000056186,,0.0065576,0.00019195,5.6569,0.7138,0.0011592215
27921,10.1016/j.ensm.2017.07.014,25319,3a,31544,FeNb0.9-xHf0.1TixSb_ x=0,FeNb0.9Hf0.1Sb,850,,156630,0.0000063845,,0.0062258,0.00019937,5.4545,0.75627,0.0011414062
27921,10.1016/j.ensm.2017.07.014,25319,3a,31544,FeNb0.9-xHf0.1TixSb_ x=0,FeNb0.9Hf0.1Sb,900,,135280,0.0000073921,,0.0057547,0.00020625,5.2521,0.79874,0.0010956951
27921,10.1016/j.ensm.2017.07.014,25319,3a,31544,FeNb0.9-xHf0.1TixSb_ x=0,FeNb0.9Hf0.1Sb,950,,113930,0.0000087773,,0.00515,0.00021261,5.0497,0.84121,0.0010198626
27921,10.1016/j.ensm.2017.07.014,25319,3a,31544,FeNb0.9-xHf0.1TixSb_ x=0,FeNb0.9Hf0.1Sb,1000,,92586,0.000010801,,0.0044178,0.00021844,4.8473,0.88369,0.000911394
27921,10.1016/j.ensm.2017.07.014,25319,3a,31544,FeNb0.9-xHf0.1TixSb_ x=0,FeNb0.9Hf0.1Sb,1050,,71237,0.000014038,,0.0035658,0.00022373,4.6449,0.92616,0.0007676807
27921,10.1016/j.ensm.2017.07.014,25319,3a,31544,FeNb0.9-xHf0.1TixSb_ x=0,FeNb0.9Hf0.1Sb,1100,,49887,0.000020045,,0.0026045,0.00022849,4.4425,0.96863,0.000586269
27921,10.1016/j.ensm.2017.07.014,25319,3a,31544,FeNb0.9-xHf0.1TixSb_ x=0,FeNb0.9Hf0.1Sb,1150,,28538,0.000035041,,,,4.2401,1.0111,
27921,10.1016/j.ensm.2017.07.014,25319,3a,31544,FeNb0.9-xHf0.1TixSb_ x=0,FeNb0.9Hf0.1Sb,1200,,,,,,,4.0377,,
27921,10.1016/j.ensm.2017.07.014,25322,5a,31544,FeNb0.9-xHf0.1TixSb_ x=0,FeNb0.9Hf0.1Sb,300,,391470,0.0000025545,,,,,,
27921,10.1016/j.ensm.2017.07.014,25319,3a,31546,FeNb0.9-xHf0.1TixSb_ x=0.04,FeNb0.86Hf0.1Ti0.04Sb,350,,399480,0.0000025033,,0.0036683,0.000095826,7.061,0.30116,0.0005195156
27921,10.1016/j.ensm.2017.07.014,25319,3a,31546,FeNb0.9-xHf0.1TixSb_ x=0.04,FeNb0.86Hf0.1Ti0.04Sb,400,,377290,0.0000026505,,0.0040377,0.00010345,6.8704,0.35674,0.000587695
27921,10.1016/j.ensm.2017.07.014,25319,3a,31546,FeNb0.9-xHf0.1TixSb_ x=0.04,FeNb0.86Hf0.1Ti0.04Sb,450,,355100,0.0000028161,,0.0043807,0.00011107,6.6798,0.41232,0.000655813
27921,10.1016/j.ensm.2017.07.014,25319,3a,31546,FeNb0.9-xHf0.1TixSb_ x=0.04,FeNb0.86Hf0.1Ti0.04Sb,500,,332910,0.0000030038,,0.0046898,0.00011869,6.4892,0.4679,0.0007227085
27921,10.1016/j.ensm.2017.07.014,25319,3a,31546,FeNb0.9-xHf0.1TixSb_ x=0.04,FeNb0.86Hf0.1Ti0.04Sb,550,,310720,0.0000032183,,0.0049581,0.00012632,6.2985,0.52347,0.0007871874
27921,10.1016/j.ensm.2017.07.014,25319,3a,31546,FeNb0.9-xHf0.1TixSb_ x=0.04,FeNb0.86Hf0.1Ti0.04Sb,600,,288530,0.0000034658,,0.0051762,0.00013394,6.1079,0.57905,0.0008474598
27921,10.1016/j.ensm.2017.07.014,25319,3a,31546,FeNb0.9-xHf0.1TixSb_ x=0.04,FeNb0.86Hf0.1Ti0.04Sb,650,,266340,0.0000037546,,0.0053372,0.00014156,5.9173,0.63463,0.0009019654
27921,10.1016/j.ensm.2017.07.014,25319,3a,31546,FeNb0.9-xHf0.1TixSb_ x=0.04,FeNb0.86Hf0.1Ti0.04Sb,700,,244150,0.0000040958,,0.0054335,0.00014918,5.7267,0.6902,0.0009488012
27921,10.1016/j.ensm.2017.07.014,25319,3a,31546,FeNb0.9-xHf0.1TixSb_ x=0.04,FeNb0.86Hf0.1Ti0.04Sb,750,,221960,0.0000045053,,0.0054572,0.0001568,5.5361,0.74578,0.0009857481
27921,10.1016/j.ensm.2017.07.014,25319,3a,31546,FeNb0.9-xHf0.1TixSb_ x=0.04,FeNb0.86Hf0.1Ti0.04Sb,800,,199770,0.0000050058,,0.0054012,0.00016443,5.3455,0.80136,0.00101042
27921,10.1016/j.ensm.2017.07.014,25319,3a,31546,FeNb0.9-xHf0.1TixSb_ x=0.04,FeNb0.86Hf0.1Ti0.04Sb,850,,177580,0.0000056313,,0.0052566,0.00017205,5.1549,0.85694,0.0010197288
27921,10.1016/j.ensm.2017.07.014,25319,3a,31546,FeNb0.9-xHf0.1TixSb_ x=0.04,FeNb0.86Hf0.1Ti0.04Sb,900,,155390,0.0000064354,,0.0050162,0.00017967,4.9643,0.91251,0.0010104546
27921,10.1016/j.ensm.2017.07.014,25319,3a,31546,FeNb0.9-xHf0.1TixSb_ x=0.04,FeNb0.86Hf0.1Ti0.04Sb,950,,133200,0.0000075075,,0.0046723,0.00018729,4.7737,0.96809,0.0009787586
27921,10.1016/j.ensm.2017.07.014,25319,3a,31546,FeNb0.9-xHf0.1TixSb_ x=0.04,FeNb0.86Hf0.1Ti0.04Sb,1000,,111020,0.0000090074,,0.0042181,0.00019492,4.5831,1.0237,0.0009203596
27921,10.1016/j.ensm.2017.07.014,25319,3a,31546,FeNb0.9-xHf0.1TixSb_ x=0.04,FeNb0.86Hf0.1Ti0.04Sb,1050,,88826,0.000011258,,0.0036439,0.00020254,4.3924,1.0792,0.000829592
27921,10.1016/j.ensm.2017.07.014,25319,3a,31546,FeNb0.9-xHf0.1TixSb_ x=0.04,FeNb0.86Hf0.1Ti0.04Sb,1100,,66637,0.000015007,,0.0029432,0.00021016,4.2018,1.1348,0.0007004617