sid,DOI,figureid,fignum,sampleid,samplename,composition,Temperature,Carrier mobility,Electrical conductivity,Electrical resistivity,Lattice thermal conductivity,Power factor,Seebeck coefficient,Thermal conductivity,ZT,Figure of merit Z
3422,10.1016/j.jssc.2014.06.042,3157,9,4382,x=0.50,Ca0.5Ce0.5Fe4Sb12,600,,178510,0.0000056018,0.85981,0.0022532,0.00011235,2.6839,0.52499,0.0008395246
3422,10.1016/j.jssc.2014.06.042,3157,9,4382,x=0.50,Ca0.5Ce0.5Fe4Sb12,650,,172460,0.0000057985,0.78469,0.0023709,0.00011725,2.6813,0.58828,0.0008842353
3422,10.1016/j.jssc.2014.06.042,3157,9,4382,x=0.50,Ca0.5Ce0.5Fe4Sb12,700,,166800,0.0000059951,0.70958,0.0024888,0.00012215,2.6786,0.65156,0.0009291421
3422,10.1016/j.jssc.2014.06.042,3157,9,4382,x=0.50,Ca0.5Ce0.5Fe4Sb12,750,,161500,0.0000061918,0.63446,0.0026069,0.00012705,2.6759,0.71484,0.0009742143
3422,10.1016/j.jssc.2014.06.042,3157,9,4383,x=0.25,Ca0.25Ce0.75Fe4Sb12,300,,,,1.4887,,0.000080845,,0.14814,
3422,10.1016/j.jssc.2014.06.042,3157,9,4383,x=0.25,Ca0.25Ce0.75Fe4Sb12,350,,210420,0.0000047524,1.407,0.0016438,0.000088385,2.9045,0.20205,0.0005659494
3422,10.1016/j.jssc.2014.06.042,3157,9,4383,x=0.25,Ca0.25Ce0.75Fe4Sb12,400,,200240,0.0000049941,1.3253,0.0018231,0.000095418,2.9223,0.25596,0.0006238579
3422,10.1016/j.jssc.2014.06.042,3157,9,4383,x=0.25,Ca0.25Ce0.75Fe4Sb12,450,,191000,0.0000052357,1.2437,0.0019848,0.00010194,2.9402,0.30987,0.0006750561
3422,10.1016/j.jssc.2014.06.042,3157,9,4383,x=0.25,Ca0.25Ce0.75Fe4Sb12,500,,182570,0.0000054773,1.162,0.0021279,0.00010796,2.9581,0.36378,0.0007193469
3422,10.1016/j.jssc.2014.06.042,3157,9,4383,x=0.25,Ca0.25Ce0.75Fe4Sb12,550,,174860,0.000005719,1.0804,0.0022518,0.00011348,2.9759,0.41769,0.0007566787
3422,10.1016/j.jssc.2014.06.042,3157,9,4383,x=0.25,Ca0.25Ce0.75Fe4Sb12,600,,167770,0.0000059606,0.9987,0.0023551,0.00011848,2.9938,0.4716,0.0007866591
3422,10.1016/j.jssc.2014.06.042,3157,9,4383,x=0.25,Ca0.25Ce0.75Fe4Sb12,650,,161230,0.0000062022,0.91705,0.0024385,0.00012298,3.0116,0.52551,0.0008097025
3422,10.1016/j.jssc.2014.06.042,3157,9,4383,x=0.25,Ca0.25Ce0.75Fe4Sb12,700,,155190,0.0000064439,0.83539,0.0025019,0.00012697,3.0295,0.57942,0.0008258458
3422,10.1016/j.jssc.2014.06.042,3157,9,4383,x=0.25,Ca0.25Ce0.75Fe4Sb12,750,,149580,0.0000066855,0.75373,0.0025454,0.00013045,3.0474,0.63333,0.0008352694
3422,10.1016/j.jssc.2014.06.042,3157,9,4384,x=0.00,CeFe4Sb12,300,,,,1.6379,,0.000083957,,0.11638,
3422,10.1016/j.jssc.2014.06.042,3157,9,4384,x=0.00,CeFe4Sb12,350,,186920,0.00000535,1.551,0.0015263,0.000090364,2.8894,0.17895,0.0005282412
3422,10.1016/j.jssc.2014.06.042,3157,9,4384,x=0.00,CeFe4Sb12,400,,178730,0.0000055949,1.464,0.0016737,0.00009677,2.8967,0.24151,0.0005777954
3422,10.1016/j.jssc.2014.06.042,3157,9,4384,x=0.00,CeFe4Sb12,450,,171240,0.0000058397,1.377,0.001823,0.00010318,2.9041,0.30408,0.0006277332
3422,10.1016/j.jssc.2014.06.042,3157,9,4384,x=0.00,CeFe4Sb12,500,,164350,0.0000060845,1.2901,0.0019735,0.00010958,2.9114,0.36665,0.0006778526
3422,10.1016/j.jssc.2014.06.042,3157,9,4384,x=0.00,CeFe4Sb12,550,,158000,0.0000063293,1.2031,0.0021257,0.00011599,2.9188,0.42922,0.0007282787
3422,10.1016/j.jssc.2014.06.042,3157,9,4384,x=0.00,CeFe4Sb12,600,,152110,0.0000065741,1.1162,0.0022789,0.0001224,2.9261,0.49178,0.0007788182
3422,10.1016/j.jssc.2014.06.042,3157,9,4384,x=0.00,CeFe4Sb12,650,,146650,0.000006819,1.0292,0.0024328,0.0001288,2.9335,0.55435,0.0008293165
3422,10.1016/j.jssc.2014.06.042,3157,9,4384,x=0.00,CeFe4Sb12,700,,141570,0.0000070638,0.94223,0.0025881,0.00013521,2.9408,0.61692,0.0008800666
3422,10.1016/j.jssc.2014.06.042,3157,9,4384,x=0.00,CeFe4Sb12,750,,136830,0.0000073086,0.85527,0.0027439,0.00014161,2.9482,0.67949,0.0009307035
5936,10.1002/aenm.201400600,25508,2a,31756,Fe(V0.6Nb0.4)1−xTixSb_ x=0.04,Fe(V0.6Nb0.4)0.96Ti0.04Sb,300,0.00063264,2137.7,0.00046779,,0.00023047,0.00032835,4.5648,0.21377,0.0000504885
5936,10.1002/aenm.201400600,25508,2a,31756,Fe(V0.6Nb0.4)1−xTixSb_ x=0.04,Fe(V0.6Nb0.4)0.96Ti0.04Sb,350,0.00060537,2086.8,0.0004792,,0.00020926,0.00031667,4.5846,0.20868,0.0000456441
5936,10.1002/aenm.201400600,25508,2a,31756,Fe(V0.6Nb0.4)1−xTixSb_ x=0.04,Fe(V0.6Nb0.4)0.96Ti0.04Sb,400,0.0005781,2035.8,0.00049121,,0.00018936,0.00030498,4.6044,0.20358,0.0000411259
5936,10.1002/aenm.201400600,25508,2a,31756,Fe(V0.6Nb0.4)1−xTixSb_ x=0.04,Fe(V0.6Nb0.4)0.96Ti0.04Sb,450,0.00055083,1984.8,0.00050383,,0.00017073,0.00029329,4.6241,0.19848,0.0000369218
5936,10.1002/aenm.201400600,25508,2a,31756,Fe(V0.6Nb0.4)1−xTixSb_ x=0.04,Fe(V0.6Nb0.4)0.96Ti0.04Sb,500,0.00052356,1933.8,0.00051712,,0.00015335,0.0002816,4.6439,0.19338,0.0000330218
5936,10.1002/aenm.201400600,25508,2a,31756,Fe(V0.6Nb0.4)1−xTixSb_ x=0.04,Fe(V0.6Nb0.4)0.96Ti0.04Sb,550,0.00049629,1882.8,0.00053112,,0.00013717,0.00026992,4.6637,0.18828,0.0000294123
5936,10.1002/aenm.201400600,25508,2a,31756,Fe(V0.6Nb0.4)1−xTixSb_ x=0.04,Fe(V0.6Nb0.4)0.96Ti0.04Sb,600,0.00046902,1831.8,0.00054591,,0.00012215,0.00025823,4.6834,0.18318,0.0000260815
5936,10.1002/aenm.201400600,25508,2a,31756,Fe(V0.6Nb0.4)1−xTixSb_ x=0.04,Fe(V0.6Nb0.4)0.96Ti0.04Sb,650,0.00044175,1780.8,0.00056155,,0.00010824,0.00024654,4.7032,0.17808,0.0000230141
5936,10.1002/aenm.201400600,25508,2a,31756,Fe(V0.6Nb0.4)1−xTixSb_ x=0.04,Fe(V0.6Nb0.4)0.96Ti0.04Sb,700,0.00041448,1729.8,0.0005781,,0.000095414,0.00023486,4.723,0.17298,0.000020202
5936,10.1002/aenm.201400600,25508,2a,31756,Fe(V0.6Nb0.4)1−xTixSb_ x=0.04,Fe(V0.6Nb0.4)0.96Ti0.04Sb,750,0.00038722,1678.9,0.00059563,,0.000083617,0.00022317,4.7427,0.16789,0.0000176307
5936,10.1002/aenm.201400600,25508,2a,31756,Fe(V0.6Nb0.4)1−xTixSb_ x=0.04,Fe(V0.6Nb0.4)0.96Ti0.04Sb,800,0.00035995,1627.9,0.00061429,,0.000072806,0.00021148,4.7625,0.16279,0.0000152873
5936,10.1002/aenm.201400600,25508,2a,31756,Fe(V0.6Nb0.4)1−xTixSb_ x=0.04,Fe(V0.6Nb0.4)0.96Ti0.04Sb,850,,1576.9,0.00063416,,0.000062944,0.00019979,4.7823,0.15769,0.0000131619
5936,10.1002/aenm.201400600,25508,2a,31756,Fe(V0.6Nb0.4)1−xTixSb_ x=0.04,Fe(V0.6Nb0.4)0.96Ti0.04Sb,900,,1525.9,0.00065535,,,,,0.15259,
5936,10.1002/aenm.201400600,25510,2C,31756,Fe(V0.6Nb0.4)1−xTixSb_ x=0.04,Fe(V0.6Nb0.4)0.96Ti0.04Sb,50,0.00076898,,,,,,,,
5936,10.1002/aenm.201400600,25510,2C,31756,Fe(V0.6Nb0.4)1−xTixSb_ x=0.04,Fe(V0.6Nb0.4)0.96Ti0.04Sb,100,0.00074172,,,,,,,,
5936,10.1002/aenm.201400600,25510,2C,31756,Fe(V0.6Nb0.4)1−xTixSb_ x=0.04,Fe(V0.6Nb0.4)0.96Ti0.04Sb,150,0.00071445,,,,,,,,
5936,10.1002/aenm.201400600,25510,2C,31756,Fe(V0.6Nb0.4)1−xTixSb_ x=0.04,Fe(V0.6Nb0.4)0.96Ti0.04Sb,200,0.00068718,,,,,,,,
5936,10.1002/aenm.201400600,25510,2C,31756,Fe(V0.6Nb0.4)1−xTixSb_ x=0.04,Fe(V0.6Nb0.4)0.96Ti0.04Sb,250,0.00065991,,,,,,,,
5936,10.1002/aenm.201400600,25508,2a,31757,Fe(V0.6Nb0.4)1−xTixSb_ x=0.06,Fe(V0.6Nb0.4)0.94Ti0.06Sb,350,0.00074603,69785,0.00001433,,0.0039284,0.00023726,4.1748,0.35972,0.0009409792
5936,10.1002/aenm.201400600,25508,2a,31757,Fe(V0.6Nb0.4)1−xTixSb_ x=0.06,Fe(V0.6Nb0.4)0.94Ti0.06Sb,400,0.00066475,65469,0.000015274,,0.0037698,0.00023996,4.1458,0.36945,0.0009093058
5936,10.1002/aenm.201400600,25508,2a,31757,Fe(V0.6Nb0.4)1−xTixSb_ x=0.06,Fe(V0.6Nb0.4)0.94Ti0.06Sb,450,0.00058347,61153,0.000016352,,0.0036012,0.00024267,4.1167,0.37917,0.0008747783
5936,10.1002/aenm.201400600,25508,2a,31757,Fe(V0.6Nb0.4)1−xTixSb_ x=0.06,Fe(V0.6Nb0.4)0.94Ti0.06Sb,500,0.00050219,56837,0.000017594,,0.003422,0.00024537,4.0877,0.3889,0.0008371456
5936,10.1002/aenm.201400600,25508,2a,31757,Fe(V0.6Nb0.4)1−xTixSb_ x=0.06,Fe(V0.6Nb0.4)0.94Ti0.06Sb,550,0.00042092,52521,0.00001904,,0.0032321,0.00024807,4.0587,0.39863,0.0007963387
5936,10.1002/aenm.201400600,25508,2a,31757,Fe(V0.6Nb0.4)1−xTixSb_ x=0.06,Fe(V0.6Nb0.4)0.94Ti0.06Sb,600,0.00033964,48205,0.000020745,,0.0030314,0.00025077,4.0297,0.40835,0.0007522644
5936,10.1002/aenm.201400600,25508,2a,31757,Fe(V0.6Nb0.4)1−xTixSb_ x=0.06,Fe(V0.6Nb0.4)0.94Ti0.06Sb,650,0.00025836,43889,0.000022785,,0.00282,0.00025348,4.0007,0.41808,0.0007048766
5936,10.1002/aenm.201400600,25508,2a,31757,Fe(V0.6Nb0.4)1−xTixSb_ x=0.06,Fe(V0.6Nb0.4)0.94Ti0.06Sb,700,0.00017709,39573,0.00002527,,0.0025971,0.00025618,3.9717,0.42781,0.0006539014
5936,10.1002/aenm.201400600,25508,2a,31757,Fe(V0.6Nb0.4)1−xTixSb_ x=0.06,Fe(V0.6Nb0.4)0.94Ti0.06Sb,750,0.00009581,35257,0.000028363,,0.0023629,0.00025888,3.9426,0.43753,0.0005993253
5936,10.1002/aenm.201400600,25508,2a,31757,Fe(V0.6Nb0.4)1−xTixSb_ x=0.06,Fe(V0.6Nb0.4)0.94Ti0.06Sb,800,,30941,0.00003232,,0.0021173,0.00026159,3.9136,0.44726,0.0005410108
5936,10.1002/aenm.201400600,25508,2a,31757,Fe(V0.6Nb0.4)1−xTixSb_ x=0.06,Fe(V0.6Nb0.4)0.94Ti0.06Sb,850,,26625,0.000037559,,0.0018597,0.00026429,3.8846,0.45699,0.0004787365
5936,10.1002/aenm.201400600,25509,2b,31757,Fe(V0.6Nb0.4)1−xTixSb_ x=0.06,Fe(V0.6Nb0.4)0.94Ti0.06Sb,300,0.0008273,74101,0.000013495,,,,4.2038,,
5936,10.1002/aenm.201400600,25509,2b,31757,Fe(V0.6Nb0.4)1−xTixSb_ x=0.06,Fe(V0.6Nb0.4)0.94Ti0.06Sb,900,,22309,0.000044825,,,,,,
5936,10.1002/aenm.201400600,25510,2C,31757,Fe(V0.6Nb0.4)1−xTixSb_ x=0.06,Fe(V0.6Nb0.4)0.94Ti0.06Sb,50,0.0012337,,,,,,,,
5936,10.1002/aenm.201400600,25510,2C,31757,Fe(V0.6Nb0.4)1−xTixSb_ x=0.06,Fe(V0.6Nb0.4)0.94Ti0.06Sb,100,0.0011524,,,,,,,,
5936,10.1002/aenm.201400600,25510,2C,31757,Fe(V0.6Nb0.4)1−xTixSb_ x=0.06,Fe(V0.6Nb0.4)0.94Ti0.06Sb,150,0.0010711,,,,,,,,
5936,10.1002/aenm.201400600,25510,2C,31757,Fe(V0.6Nb0.4)1−xTixSb_ x=0.06,Fe(V0.6Nb0.4)0.94Ti0.06Sb,200,0.00098986,,,,,,,,
5936,10.1002/aenm.201400600,25510,2C,31757,Fe(V0.6Nb0.4)1−xTixSb_ x=0.06,Fe(V0.6Nb0.4)0.94Ti0.06Sb,250,0.00090858,,,,,,,,
5936,10.1002/aenm.201400600,25508,2a,31758,Fe(V0.6Nb0.4)1−xTixSb_ x=0.10,Fe(V0.6Nb0.4)0.90Ti0.10Sb,350,0.00074709,106480,0.0000093914,,0.0038419,0.00018995,4.2049,0.35088,0.0009136721
5936,10.1002/aenm.201400600,25508,2a,31758,Fe(V0.6Nb0.4)1−xTixSb_ x=0.10,Fe(V0.6Nb0.4)0.90Ti0.10Sb,400,0.00067038,99603,0.00001004,,0.0038361,0.00019625,4.1466,0.38391,0.0009251194
5936,10.1002/aenm.201400600,25508,2a,31758,Fe(V0.6Nb0.4)1−xTixSb_ x=0.10,Fe(V0.6Nb0.4)0.90Ti0.10Sb,450,0.00059366,92725,0.000010785,,0.0038046,0.00020256,4.0882,0.41693,0.0009306296
5936,10.1002/aenm.201400600,25508,2a,31758,Fe(V0.6Nb0.4)1−xTixSb_ x=0.10,Fe(V0.6Nb0.4)0.90Ti0.10Sb,500,0.00051695,85848,0.000011648,,0.0037449,0.00020886,4.0299,0.44996,0.0009292786
5936,10.1002/aenm.201400600,25508,2a,31758,Fe(V0.6Nb0.4)1−xTixSb_ x=0.10,Fe(V0.6Nb0.4)0.90Ti0.10Sb,550,0.00044024,78970,0.000012663,,0.0036558,0.00021516,3.9715,0.48299,0.0009205086
5936,10.1002/aenm.201400600,25508,2a,31758,Fe(V0.6Nb0.4)1−xTixSb_ x=0.10,Fe(V0.6Nb0.4)0.90Ti0.10Sb,600,0.00036352,72092,0.000013871,,0.003536,0.00022147,3.9132,0.51602,0.0009036083
5936,10.1002/aenm.201400600,25508,2a,31758,Fe(V0.6Nb0.4)1−xTixSb_ x=0.10,Fe(V0.6Nb0.4)0.90Ti0.10Sb,650,0.00028681,65214,0.000015334,,0.0033832,0.00022777,3.8548,0.54905,0.000877659
5936,10.1002/aenm.201400600,25508,2a,31758,Fe(V0.6Nb0.4)1−xTixSb_ x=0.10,Fe(V0.6Nb0.4)0.90Ti0.10Sb,700,0.0002101,58337,0.000017142,,0.0031965,0.00023408,3.7965,0.58207,0.0008419597
5936,10.1002/aenm.201400600,25508,2a,31758,Fe(V0.6Nb0.4)1−xTixSb_ x=0.10,Fe(V0.6Nb0.4)0.90Ti0.10Sb,750,0.00013338,51459,0.000019433,,0.0029734,0.00024038,3.7381,0.6151,0.0007954308
5936,10.1002/aenm.201400600,25508,2a,31758,Fe(V0.6Nb0.4)1−xTixSb_ x=0.10,Fe(V0.6Nb0.4)0.90Ti0.10Sb,800,,44581,0.000022431,,0.0027128,0.00024668,3.6798,0.64813,0.000737214
5936,10.1002/aenm.201400600,25508,2a,31758,Fe(V0.6Nb0.4)1−xTixSb_ x=0.10,Fe(V0.6Nb0.4)0.90Ti0.10Sb,850,,37703,0.000026523,,0.0024131,0.00025299,3.6214,0.68116,0.0006663445
5936,10.1002/aenm.201400600,25510,2C,31758,Fe(V0.6Nb0.4)1−xTixSb_ x=0.10,Fe(V0.6Nb0.4)0.90Ti0.10Sb,50,0.0012074,,,,,,,,
5936,10.1002/aenm.201400600,25510,2C,31758,Fe(V0.6Nb0.4)1−xTixSb_ x=0.10,Fe(V0.6Nb0.4)0.90Ti0.10Sb,100,0.0011307,,,,,,,,
5936,10.1002/aenm.201400600,25510,2C,31758,Fe(V0.6Nb0.4)1−xTixSb_ x=0.10,Fe(V0.6Nb0.4)0.90Ti0.10Sb,150,0.0010539,,,,,,,,
5936,10.1002/aenm.201400600,25510,2C,31758,Fe(V0.6Nb0.4)1−xTixSb_ x=0.10,Fe(V0.6Nb0.4)0.90Ti0.10Sb,200,0.00097723,,,,,,,,
5936,10.1002/aenm.201400600,25510,2C,31758,Fe(V0.6Nb0.4)1−xTixSb_ x=0.10,Fe(V0.6Nb0.4)0.90Ti0.10Sb,250,0.00090051,,,,,,,,
5936,10.1002/aenm.201400600,25510,2C,31758,Fe(V0.6Nb0.4)1−xTixSb_ x=0.10,Fe(V0.6Nb0.4)0.90Ti0.10Sb,300,0.0008238,,,,,,4.2633,,
5936,10.1002/aenm.201400600,25511,3a,31758,Fe(V0.6Nb0.4)1−xTixSb_ x=0.10,Fe(V0.6Nb0.4)0.90Ti0.10Sb,900,,,,,,0.00025929,3.5631,,
5936,10.1002/aenm.201400600,25508,2a,31759,Fe(V0.6Nb0.4)1−xTixSb_ x=0.14,Fe(V0.6Nb0.4)0.86Ti0.14Sb,350,0.00064209,107140,0.0000093336,,0.0027879,0.00016131,4.0771,0.25317,0.0006837949
5936,10.1002/aenm.201400600,25508,2a,31759,Fe(V0.6Nb0.4)1−xTixSb_ x=0.14,Fe(V0.6Nb0.4)0.86Ti0.14Sb,400,0.00058535,101360,0.0000098658,,0.002871,0.0001683,4.0267,0.29415,0.0007129908
5936,10.1002/aenm.201400600,25508,2a,31759,Fe(V0.6Nb0.4)1−xTixSb_ x=0.14,Fe(V0.6Nb0.4)0.86Ti0.14Sb,450,0.00052861,95592,0.000010461,,0.0029372,0.00017529,3.9763,0.33512,0.0007386767
5936,10.1002/aenm.201400600,25508,2a,31759,Fe(V0.6Nb0.4)1−xTixSb_ x=0.14,Fe(V0.6Nb0.4)0.86Ti0.14Sb,500,0.00047186,89820,0.000011133,,0.0029844,0.00018228,3.926,0.3761,0.000760163
5936,10.1002/aenm.201400600,25508,2a,31759,Fe(V0.6Nb0.4)1−xTixSb_ x=0.14,Fe(V0.6Nb0.4)0.86Ti0.14Sb,550,0.00041512,84048,0.000011898,,0.0030109,0.00018927,3.8756,0.41707,0.0007768862
5936,10.1002/aenm.201400600,25508,2a,31759,Fe(V0.6Nb0.4)1−xTixSb_ x=0.14,Fe(V0.6Nb0.4)0.86Ti0.14Sb,600,0.00035838,78276,0.000012775,,0.003015,0.00019626,3.8252,0.45805,0.0007881941
5936,10.1002/aenm.201400600,25508,2a,31759,Fe(V0.6Nb0.4)1−xTixSb_ x=0.14,Fe(V0.6Nb0.4)0.86Ti0.14Sb,650,0.00030163,72504,0.000013792,,0.0029952,0.00020325,3.7748,0.49903,0.0007934725
5936,10.1002/aenm.201400600,25508,2a,31759,Fe(V0.6Nb0.4)1−xTixSb_ x=0.14,Fe(V0.6Nb0.4)0.86Ti0.14Sb,700,0.00024489,66732,0.000014985,,0.0029496,0.00021024,3.7244,0.54,0.0007919665
5936,10.1002/aenm.201400600,25508,2a,31759,Fe(V0.6Nb0.4)1−xTixSb_ x=0.14,Fe(V0.6Nb0.4)0.86Ti0.14Sb,750,0.00018815,60960,0.000016404,,0.0028766,0.00021723,3.674,0.58098,0.0007829614
5936,10.1002/aenm.201400600,25508,2a,31759,Fe(V0.6Nb0.4)1−xTixSb_ x=0.14,Fe(V0.6Nb0.4)0.86Ti0.14Sb,800,0.0001314,55188,0.00001812,,0.0027746,0.00022422,3.6236,0.62195,0.0007657026
5936,10.1002/aenm.201400600,25508,2a,31759,Fe(V0.6Nb0.4)1−xTixSb_ x=0.14,Fe(V0.6Nb0.4)0.86Ti0.14Sb,850,,49416,0.000020236,,0.0026417,0.00023121,3.5732,0.66293,0.0007393093
5936,10.1002/aenm.201400600,25508,2a,31759,Fe(V0.6Nb0.4)1−xTixSb_ x=0.14,Fe(V0.6Nb0.4)0.86Ti0.14Sb,900,,43644,0.000022913,,0.0024763,0.0002382,,0.70391,
5936,10.1002/aenm.201400600,25509,2b,31759,Fe(V0.6Nb0.4)1−xTixSb_ x=0.14,Fe(V0.6Nb0.4)0.86Ti0.14Sb,300,0.00069884,112910,0.0000088566,,0.0026889,0.00015432,,,
5936,10.1002/aenm.201400600,25510,2C,31759,Fe(V0.6Nb0.4)1−xTixSb_ x=0.14,Fe(V0.6Nb0.4)0.86Ti0.14Sb,50,0.00098256,,,,,,,,
5936,10.1002/aenm.201400600,25510,2C,31759,Fe(V0.6Nb0.4)1−xTixSb_ x=0.14,Fe(V0.6Nb0.4)0.86Ti0.14Sb,100,0.00092581,,,,,,,,
5936,10.1002/aenm.201400600,25510,2C,31759,Fe(V0.6Nb0.4)1−xTixSb_ x=0.14,Fe(V0.6Nb0.4)0.86Ti0.14Sb,150,0.00086907,,,,,,,,
5936,10.1002/aenm.201400600,25510,2C,31759,Fe(V0.6Nb0.4)1−xTixSb_ x=0.14,Fe(V0.6Nb0.4)0.86Ti0.14Sb,200,0.00081233,,,,,,,,
5936,10.1002/aenm.201400600,25510,2C,31759,Fe(V0.6Nb0.4)1−xTixSb_ x=0.14,Fe(V0.6Nb0.4)0.86Ti0.14Sb,250,0.00075558,,,,,,,,
5936,10.1002/aenm.201400600,25508,2a,31760,Fe(V0.6Nb0.4)1−xTixSb_ x=0.16,Fe(V0.6Nb0.4)0.84Ti0.16Sb,350,0.00066643,119140,0.0000083935,,0.0029547,0.00015748,3.9195,0.26744,0.0007538462
5936,10.1002/aenm.201400600,25508,2a,31760,Fe(V0.6Nb0.4)1−xTixSb_ x=0.16,Fe(V0.6Nb0.4)0.84Ti0.16Sb,400,0.00060972,112770,0.0000088676,,0.0030453,0.00016433,3.8831,0.30961,0.0007842445
5936,10.1002/aenm.201400600,25508,2a,31760,Fe(V0.6Nb0.4)1−xTixSb_ x=0.16,Fe(V0.6Nb0.4)0.84Ti0.16Sb,450,0.000553,106390,0.0000093994,,0.0031175,0.00017118,3.8468,0.35178,0.0008104139
5936,10.1002/aenm.201400600,25508,2a,31760,Fe(V0.6Nb0.4)1−xTixSb_ x=0.16,Fe(V0.6Nb0.4)0.84Ti0.16Sb,500,0.00049628,100010,0.000009999,,0.0031698,0.00017803,3.8104,0.39395,0.0008318812
5936,10.1002/aenm.201400600,25508,2a,31760,Fe(V0.6Nb0.4)1−xTixSb_ x=0.16,Fe(V0.6Nb0.4)0.84Ti0.16Sb,550,0.00043956,93639,0.000010679,,0.0032006,0.00018488,3.7741,0.43612,0.0008480432
5936,10.1002/aenm.201400600,25508,2a,31760,Fe(V0.6Nb0.4)1−xTixSb_ x=0.16,Fe(V0.6Nb0.4)0.84Ti0.16Sb,600,0.00038284,87264,0.000011459,,0.0032079,0.00019173,3.7377,0.47829,0.0008582551
5936,10.1002/aenm.201400600,25508,2a,31760,Fe(V0.6Nb0.4)1−xTixSb_ x=0.16,Fe(V0.6Nb0.4)0.84Ti0.16Sb,650,0.00032612,80888,0.000012363,,0.0031897,0.00019858,3.7014,0.52046,0.000861755
5936,10.1002/aenm.201400600,25508,2a,31760,Fe(V0.6Nb0.4)1−xTixSb_ x=0.16,Fe(V0.6Nb0.4)0.84Ti0.16Sb,700,0.00026941,74513,0.00001342,,0.0031446,0.00020543,3.665,0.56263,0.0008580082
5936,10.1002/aenm.201400600,25508,2a,31760,Fe(V0.6Nb0.4)1−xTixSb_ x=0.16,Fe(V0.6Nb0.4)0.84Ti0.16Sb,750,0.00021269,68137,0.000014676,,0.0030704,0.00021228,3.6287,0.6048,0.0008461432
5936,10.1002/aenm.201400600,25508,2a,31760,Fe(V0.6Nb0.4)1−xTixSb_ x=0.16,Fe(V0.6Nb0.4)0.84Ti0.16Sb,800,0.00015597,61761,0.000016191,,0.0029659,0.00021914,3.5923,0.64697,0.000825627
5936,10.1002/aenm.201400600,25508,2a,31760,Fe(V0.6Nb0.4)1−xTixSb_ x=0.16,Fe(V0.6Nb0.4)0.84Ti0.16Sb,850,,55386,0.000018055,,0.0028286,0.00022599,3.556,0.68914,0.0007954443
5936,10.1002/aenm.201400600,25508,2a,31760,Fe(V0.6Nb0.4)1−xTixSb_ x=0.16,Fe(V0.6Nb0.4)0.84Ti0.16Sb,900,,49010,0.000020404,,,,,0.73131,
5936,10.1002/aenm.201400600,25509,2b,31760,Fe(V0.6Nb0.4)1−xTixSb_ x=0.16,Fe(V0.6Nb0.4)0.84Ti0.16Sb,300,0.00072315,125520,0.0000079669,,0.0028476,0.00015062,3.9558,0.21596,0.0007198544
5936,10.1002/aenm.201400600,25510,2C,31760,Fe(V0.6Nb0.4)1−xTixSb_ x=0.16,Fe(V0.6Nb0.4)0.84Ti0.16Sb,50,0.0010067,,,,,,,,
5936,10.1002/aenm.201400600,25510,2C,31760,Fe(V0.6Nb0.4)1−xTixSb_ x=0.16,Fe(V0.6Nb0.4)0.84Ti0.16Sb,100,0.00095003,,,,,,,,
5936,10.1002/aenm.201400600,25510,2C,31760,Fe(V0.6Nb0.4)1−xTixSb_ x=0.16,Fe(V0.6Nb0.4)0.84Ti0.16Sb,150,0.00089331,,,,,,,,
5936,10.1002/aenm.201400600,25510,2C,31760,Fe(V0.6Nb0.4)1−xTixSb_ x=0.16,Fe(V0.6Nb0.4)0.84Ti0.16Sb,200,0.00083659,,,,,,,,
5936,10.1002/aenm.201400600,25510,2C,31760,Fe(V0.6Nb0.4)1−xTixSb_ x=0.16,Fe(V0.6Nb0.4)0.84Ti0.16Sb,250,0.00077987,,,,,,,,
5936,10.1002/aenm.201400600,25508,2a,31762,Fe(V0.6Nb0.4)1−xTixSb_ x=0.20,Fe(V0.6Nb0.4)0.80Ti0.20Sb,350,0.00058608,105940,0.0000094393,,0.0029709,0.00016746,3.5732,0.29604,0.0008314396
5936,10.1002/aenm.201400600,25508,2a,31762,Fe(V0.6Nb0.4)1−xTixSb_ x=0.20,Fe(V0.6Nb0.4)0.80Ti0.20Sb,400,0.00052787,100200,0.00000998,,0.0030096,0.00017331,3.5317,0.34938,0.0008521675
5936,10.1002/aenm.201400600,25508,2a,31762,Fe(V0.6Nb0.4)1−xTixSb_ x=0.20,Fe(V0.6Nb0.4)0.80Ti0.20Sb,450,0.00046967,94465,0.000010586,,0.0030318,0.00017915,3.4901,0.40272,0.0008686857
5936,10.1002/aenm.201400600,25508,2a,31762,Fe(V0.6Nb0.4)1−xTixSb_ x=0.20,Fe(V0.6Nb0.4)0.80Ti0.20Sb,500,0.00041146,88729,0.00001127,,0.0030364,0.00018499,3.4486,0.45606,0.0008804732
5936,10.1002/aenm.201400600,25508,2a,31762,Fe(V0.6Nb0.4)1−xTixSb_ x=0.20,Fe(V0.6Nb0.4)0.80Ti0.20Sb,550,0.00035325,82994,0.000012049,,0.0030226,0.00019084,3.4071,0.5094,0.0008871474
5936,10.1002/aenm.201400600,25508,2a,31762,Fe(V0.6Nb0.4)1−xTixSb_ x=0.20,Fe(V0.6Nb0.4)0.80Ti0.20Sb,600,0.00029504,77258,0.000012944,,0.0029886,0.00019668,3.3655,0.56274,0.0008880107
5936,10.1002/aenm.201400600,25508,2a,31762,Fe(V0.6Nb0.4)1−xTixSb_ x=0.20,Fe(V0.6Nb0.4)0.80Ti0.20Sb,650,0.00023683,71523,0.000013982,,0.0029335,0.00020252,3.324,0.61608,0.0008825211
5936,10.1002/aenm.201400600,25508,2a,31762,Fe(V0.6Nb0.4)1−xTixSb_ x=0.20,Fe(V0.6Nb0.4)0.80Ti0.20Sb,700,0.00017862,,,,,0.00020837,3.2824,0.66942,
5936,10.1002/aenm.201400600,25508,2a,31762,Fe(V0.6Nb0.4)1−xTixSb_ x=0.20,Fe(V0.6Nb0.4)0.80Ti0.20Sb,750,0.00012041,,,,,0.00021421,3.2409,0.72276,
5936,10.1002/aenm.201400600,25508,2a,31762,Fe(V0.6Nb0.4)1−xTixSb_ x=0.20,Fe(V0.6Nb0.4)0.80Ti0.20Sb,800,0.000062204,,,,,0.00022005,3.1994,0.7761,
5936,10.1002/aenm.201400600,25508,2a,31762,Fe(V0.6Nb0.4)1−xTixSb_ x=0.20,Fe(V0.6Nb0.4)0.80Ti0.20Sb,850,,,,,,0.0002259,3.1578,0.82944,