sid,DOI,figureid,fignum,sampleid,samplename,composition,Temperature,Carrier mobility,Electrical conductivity,Electrical resistivity,Lattice thermal conductivity,Power factor,Seebeck coefficient,Thermal conductivity,ZT,Figure of merit Z
27921,10.1016/j.ensm.2017.07.014,25319,3a,31546,FeNb0.9-xHf0.1TixSb_ x=0.04,FeNb0.86Hf0.1Ti0.04Sb,1150,,44447,0.000022499,,,,4.0112,1.1904,
27921,10.1016/j.ensm.2017.07.014,25319,3a,31546,FeNb0.9-xHf0.1TixSb_ x=0.04,FeNb0.86Hf0.1Ti0.04Sb,1200,,22258,0.000044928,,,,3.8206,,
27921,10.1016/j.ensm.2017.07.014,25319,3a,31547,FeNb0.9-xHf0.1TixSb_ x=0.06,FeNb0.84Hf0.1Ti0.06Sb,350,,452310,0.0000022109,,0.0035914,0.000089107,6.604,0.26606,0.0005438219
27921,10.1016/j.ensm.2017.07.014,25319,3a,31547,FeNb0.9-xHf0.1TixSb_ x=0.06,FeNb0.84Hf0.1Ti0.06Sb,400,,426380,0.0000023453,,0.0039781,0.000096592,6.4254,0.33598,0.000619121
27921,10.1016/j.ensm.2017.07.014,25319,3a,31547,FeNb0.9-xHf0.1TixSb_ x=0.06,FeNb0.84Hf0.1Ti0.06Sb,450,,400450,0.0000024972,,0.0043655,0.00010441,6.2468,0.4059,0.0006988378
27921,10.1016/j.ensm.2017.07.014,25319,3a,31547,FeNb0.9-xHf0.1TixSb_ x=0.06,FeNb0.84Hf0.1Ti0.06Sb,500,,374510,0.0000026702,,0.0047542,0.00011267,6.0682,0.47582,0.0007834613
27921,10.1016/j.ensm.2017.07.014,25319,3a,31547,FeNb0.9-xHf0.1TixSb_ x=0.06,FeNb0.84Hf0.1Ti0.06Sb,550,,348580,0.0000028688,,0.0051323,0.00012134,5.8896,0.54574,0.0008714174
27921,10.1016/j.ensm.2017.07.014,25319,3a,31547,FeNb0.9-xHf0.1TixSb_ x=0.06,FeNb0.84Hf0.1Ti0.06Sb,600,,322650,0.0000030993,,0.0054771,0.00013029,5.711,0.61565,0.000959044
27921,10.1016/j.ensm.2017.07.014,25319,3a,31547,FeNb0.9-xHf0.1TixSb_ x=0.06,FeNb0.84Hf0.1Ti0.06Sb,650,,296720,0.0000033702,,0.0057594,0.00013932,5.5324,0.68557,0.001041031
27921,10.1016/j.ensm.2017.07.014,25319,3a,31547,FeNb0.9-xHf0.1TixSb_ x=0.06,FeNb0.84Hf0.1Ti0.06Sb,700,,270780,0.000003693,,0.0059448,0.00014817,5.3537,0.75549,0.0011104096
27921,10.1016/j.ensm.2017.07.014,25319,3a,31547,FeNb0.9-xHf0.1TixSb_ x=0.06,FeNb0.84Hf0.1Ti0.06Sb,750,,244850,0.0000040841,,0.0060038,0.00015659,5.1751,0.82541,0.0011601322
27921,10.1016/j.ensm.2017.07.014,25319,3a,31547,FeNb0.9-xHf0.1TixSb_ x=0.06,FeNb0.84Hf0.1Ti0.06Sb,800,,218920,0.0000045679,,0.0059111,0.00016432,4.9965,0.89533,0.0011830481
27921,10.1016/j.ensm.2017.07.014,25319,3a,31547,FeNb0.9-xHf0.1TixSb_ x=0.06,FeNb0.84Hf0.1Ti0.06Sb,850,,192980,0.0000051819,,0.0056548,0.00017118,4.8179,0.96525,0.0011737064
27921,10.1016/j.ensm.2017.07.014,25319,3a,31547,FeNb0.9-xHf0.1TixSb_ x=0.06,FeNb0.84Hf0.1Ti0.06Sb,900,,167050,0.0000059862,,0.0052382,0.00017708,4.6393,1.0352,0.0011290928
27921,10.1016/j.ensm.2017.07.014,25319,3a,31547,FeNb0.9-xHf0.1TixSb_ x=0.06,FeNb0.84Hf0.1Ti0.06Sb,950,,141120,0.0000070862,,0.004676,0.00018203,4.4607,1.1051,0.001048266
27921,10.1016/j.ensm.2017.07.014,25319,3a,31547,FeNb0.9-xHf0.1TixSb_ x=0.06,FeNb0.84Hf0.1Ti0.06Sb,1000,,115180,0.0000086821,,0.0039933,0.0001862,4.2821,1.175,0.0009325565
27921,10.1016/j.ensm.2017.07.014,25319,3a,31547,FeNb0.9-xHf0.1TixSb_ x=0.06,FeNb0.84Hf0.1Ti0.06Sb,1050,,89251,0.000011204,,0.0032196,0.00018993,4.1035,1.2449,0.0007845985
27921,10.1016/j.ensm.2017.07.014,25319,3a,31547,FeNb0.9-xHf0.1TixSb_ x=0.06,FeNb0.84Hf0.1Ti0.06Sb,1100,,63318,0.000015793,,0.0023779,0.00019379,3.9249,1.3148,0.0006058498
27921,10.1016/j.ensm.2017.07.014,25319,3a,31547,FeNb0.9-xHf0.1TixSb_ x=0.06,FeNb0.84Hf0.1Ti0.06Sb,1150,,37384,0.000026749,,,,3.7463,1.3848,
27921,10.1016/j.ensm.2017.07.014,25322,5a,31547,FeNb0.9-xHf0.1TixSb_ x=0.06,FeNb0.84Hf0.1Ti0.06Sb,300,,478250,0.000002091,,,,,,
27921,10.1016/j.ensm.2017.07.014,25322,5a,31547,FeNb0.9-xHf0.1TixSb_ x=0.06,FeNb0.84Hf0.1Ti0.06Sb,1200,,11451,0.000087329,,,,,,
27921,10.1016/j.ensm.2017.07.014,25319,3a,31545,FeNb0.9-xHf0.1TixSb_ x=0.02,FeNb0.88Hf0.1Ti0.02Sb,350,,410520,0.0000024359,,0.0045909,0.00010575,7.2032,0.32871,0.0006373417
27921,10.1016/j.ensm.2017.07.014,25319,3a,31545,FeNb0.9-xHf0.1TixSb_ x=0.02,FeNb0.88Hf0.1Ti0.02Sb,400,,386790,0.0000025854,,0.0049862,0.00011354,7.0025,0.38506,0.00071206
27921,10.1016/j.ensm.2017.07.014,25319,3a,31545,FeNb0.9-xHf0.1TixSb_ x=0.02,FeNb0.88Hf0.1Ti0.02Sb,450,,363060,0.0000027544,,0.0053455,0.00012134,6.8019,0.44142,0.0007858834
27921,10.1016/j.ensm.2017.07.014,25319,3a,31545,FeNb0.9-xHf0.1TixSb_ x=0.02,FeNb0.88Hf0.1Ti0.02Sb,500,,339340,0.0000029469,,0.0056592,0.00012914,6.6012,0.49778,0.0008572987
27921,10.1016/j.ensm.2017.07.014,25319,3a,31545,FeNb0.9-xHf0.1TixSb_ x=0.02,FeNb0.88Hf0.1Ti0.02Sb,550,,315610,0.0000031685,,0.0059176,0.00013693,6.4006,0.55413,0.0009245383
27921,10.1016/j.ensm.2017.07.014,25319,3a,31545,FeNb0.9-xHf0.1TixSb_ x=0.02,FeNb0.88Hf0.1Ti0.02Sb,600,,291880,0.0000034261,,0.0061139,0.00014473,6.2,0.61049,0.0009861129
27921,10.1016/j.ensm.2017.07.014,25319,3a,31545,FeNb0.9-xHf0.1TixSb_ x=0.02,FeNb0.88Hf0.1Ti0.02Sb,650,,268160,0.0000037291,,0.0062388,0.00015253,5.9993,0.66684,0.0010399213
27921,10.1016/j.ensm.2017.07.014,25319,3a,31545,FeNb0.9-xHf0.1TixSb_ x=0.02,FeNb0.88Hf0.1Ti0.02Sb,700,,244430,0.0000040912,,0.0062825,0.00016032,5.7987,0.7232,0.0010834325
27921,10.1016/j.ensm.2017.07.014,25319,3a,31545,FeNb0.9-xHf0.1TixSb_ x=0.02,FeNb0.88Hf0.1Ti0.02Sb,750,,220700,0.000004531,,0.0062379,0.00016812,5.598,0.77956,0.0011143087
27921,10.1016/j.ensm.2017.07.014,25319,3a,31545,FeNb0.9-xHf0.1TixSb_ x=0.02,FeNb0.88Hf0.1Ti0.02Sb,800,,196970,0.0000050769,,0.0060951,0.00017591,5.3974,0.83591,0.0011292659
27921,10.1016/j.ensm.2017.07.014,25319,3a,31545,FeNb0.9-xHf0.1TixSb_ x=0.02,FeNb0.88Hf0.1Ti0.02Sb,850,,173250,0.000005772,,0.0058471,0.00018371,5.1967,0.89227,0.0011251563
27921,10.1016/j.ensm.2017.07.014,25319,3a,31545,FeNb0.9-xHf0.1TixSb_ x=0.02,FeNb0.88Hf0.1Ti0.02Sb,900,,149520,0.0000066881,,0.0054838,0.00019151,4.9961,0.94863,0.0010976161
27921,10.1016/j.ensm.2017.07.014,25319,3a,31545,FeNb0.9-xHf0.1TixSb_ x=0.02,FeNb0.88Hf0.1Ti0.02Sb,950,,125790,0.0000079498,,0.0049964,0.0001993,4.7954,1.005,0.0010419152
27921,10.1016/j.ensm.2017.07.014,25319,3a,31545,FeNb0.9-xHf0.1TixSb_ x=0.02,FeNb0.88Hf0.1Ti0.02Sb,1000,,102070,0.0000097972,,0.0043778,0.0002071,4.5948,1.0613,0.0009527727
27921,10.1016/j.ensm.2017.07.014,25319,3a,31545,FeNb0.9-xHf0.1TixSb_ x=0.02,FeNb0.88Hf0.1Ti0.02Sb,1050,,78340,0.000012765,,0.0036176,0.00021489,4.3942,1.1177,0.000823267
27921,10.1016/j.ensm.2017.07.014,25319,3a,31545,FeNb0.9-xHf0.1TixSb_ x=0.02,FeNb0.88Hf0.1Ti0.02Sb,1100,,54613,0.000018311,,0.0027083,0.00022269,4.1935,1.1741,0.0006458328
27921,10.1016/j.ensm.2017.07.014,25319,3a,31545,FeNb0.9-xHf0.1TixSb_ x=0.02,FeNb0.88Hf0.1Ti0.02Sb,1150,,30886,0.000032377,,,,3.9929,1.2304,
27921,10.1016/j.ensm.2017.07.014,25319,3a,31545,FeNb0.9-xHf0.1TixSb_ x=0.02,FeNb0.88Hf0.1Ti0.02Sb,1200,,,,,,,3.7922,,
27921,10.1016/j.ensm.2017.07.014,25322,5a,31545,FeNb0.9-xHf0.1TixSb_ x=0.02,FeNb0.88Hf0.1Ti0.02Sb,300,,434240,0.0000023029,,,,,,
27921,10.1016/j.ensm.2017.07.014,25319,3a,31549,FeNb0.9-xHf0.1TixSb_ x=0.1,FeNb0.8Hf0.1Ti0.1Sb,350,,429680,0.0000023273,,0.0025686,0.000077317,5.9439,0.28866,0.0004321405
27921,10.1016/j.ensm.2017.07.014,25319,3a,31549,FeNb0.9-xHf0.1TixSb_ x=0.1,FeNb0.8Hf0.1Ti0.1Sb,400,,406940,0.0000024574,,0.0030618,0.000086741,5.8191,0.34257,0.0005261638
27921,10.1016/j.ensm.2017.07.014,25319,3a,31549,FeNb0.9-xHf0.1TixSb_ x=0.1,FeNb0.8Hf0.1Ti0.1Sb,450,,384210,0.0000026027,,0.0035274,0.000095817,5.6942,0.39647,0.0006194724
27921,10.1016/j.ensm.2017.07.014,25319,3a,31549,FeNb0.9-xHf0.1TixSb_ x=0.1,FeNb0.8Hf0.1Ti0.1Sb,500,,361470,0.0000027665,,0.0039504,0.00010454,5.5694,0.45038,0.0007093044
27921,10.1016/j.ensm.2017.07.014,25319,3a,31549,FeNb0.9-xHf0.1TixSb_ x=0.1,FeNb0.8Hf0.1Ti0.1Sb,550,,338740,0.0000029521,,0.0043192,0.00011292,5.4446,0.50429,0.0007932998
27921,10.1016/j.ensm.2017.07.014,25319,3a,31549,FeNb0.9-xHf0.1TixSb_ x=0.1,FeNb0.8Hf0.1Ti0.1Sb,600,,316000,0.0000031646,,0.0046227,0.00012095,5.3198,0.55819,0.0008689612
27921,10.1016/j.ensm.2017.07.014,25319,3a,31549,FeNb0.9-xHf0.1TixSb_ x=0.1,FeNb0.8Hf0.1Ti0.1Sb,650,,293270,0.0000034098,,0.0048531,0.00012864,5.1949,0.6121,0.0009342047
27921,10.1016/j.ensm.2017.07.014,25319,3a,31549,FeNb0.9-xHf0.1TixSb_ x=0.1,FeNb0.8Hf0.1Ti0.1Sb,700,,270540,0.0000036963,,0.0050017,0.00013597,5.0701,0.66601,0.0009865091
27921,10.1016/j.ensm.2017.07.014,25319,3a,31549,FeNb0.9-xHf0.1TixSb_ x=0.1,FeNb0.8Hf0.1Ti0.1Sb,750,,247800,0.0000040355,,0.0050637,0.00014295,4.9453,0.71991,0.0010239419
27921,10.1016/j.ensm.2017.07.014,25319,3a,31549,FeNb0.9-xHf0.1TixSb_ x=0.1,FeNb0.8Hf0.1Ti0.1Sb,800,,225070,0.0000044431,,0.0050364,0.00014959,4.8204,0.77382,0.0010448096
27921,10.1016/j.ensm.2017.07.014,25319,3a,31549,FeNb0.9-xHf0.1TixSb_ x=0.1,FeNb0.8Hf0.1Ti0.1Sb,850,,202330,0.0000049424,,0.0049163,0.00015588,4.6956,0.82773,0.0010470014
27921,10.1016/j.ensm.2017.07.014,25319,3a,31549,FeNb0.9-xHf0.1TixSb_ x=0.1,FeNb0.8Hf0.1Ti0.1Sb,900,,179600,0.0000055679,,0.004703,0.00016182,4.5708,0.88163,0.0010289227
27921,10.1016/j.ensm.2017.07.014,25319,3a,31549,FeNb0.9-xHf0.1TixSb_ x=0.1,FeNb0.8Hf0.1Ti0.1Sb,950,,156860,0.0000063751,,0.0043962,0.00016741,4.446,0.93554,0.0009887989
27921,10.1016/j.ensm.2017.07.014,25319,3a,31549,FeNb0.9-xHf0.1TixSb_ x=0.1,FeNb0.8Hf0.1Ti0.1Sb,1000,,134130,0.0000074555,,0.0039986,0.00017266,4.3211,0.98945,0.0009253662
27921,10.1016/j.ensm.2017.07.014,25319,3a,31549,FeNb0.9-xHf0.1TixSb_ x=0.1,FeNb0.8Hf0.1Ti0.1Sb,1050,,111390,0.0000089775,,0.0035115,0.00017755,4.1963,1.0434,0.0008368086
27921,10.1016/j.ensm.2017.07.014,25319,3a,31549,FeNb0.9-xHf0.1TixSb_ x=0.1,FeNb0.8Hf0.1Ti0.1Sb,1100,,88658,0.000011279,,0.0029399,0.0001821,4.0715,1.0973,0.000722068
27921,10.1016/j.ensm.2017.07.014,25319,3a,31549,FeNb0.9-xHf0.1TixSb_ x=0.1,FeNb0.8Hf0.1Ti0.1Sb,1150,,65923,0.000015169,,,,3.9466,1.1512,
27921,10.1016/j.ensm.2017.07.014,25322,5a,31549,FeNb0.9-xHf0.1TixSb_ x=0.1,FeNb0.8Hf0.1Ti0.1Sb,300,,452410,0.0000022104,,,,,,
27921,10.1016/j.ensm.2017.07.014,25319,3a,31548,FeNb0.9-xHf0.1TixSb_ x=0.08,FeNb0.82Hf0.1Ti0.08Sb,350,,430080,0.0000023251,,0.0032242,0.000086584,6.4978,0.28486,0.0004961987
27921,10.1016/j.ensm.2017.07.014,25319,3a,31548,FeNb0.9-xHf0.1TixSb_ x=0.08,FeNb0.82Hf0.1Ti0.08Sb,400,,406060,0.0000024627,,0.0035849,0.00009396,6.3278,0.34541,0.0005665318
27921,10.1016/j.ensm.2017.07.014,25319,3a,31548,FeNb0.9-xHf0.1TixSb_ x=0.08,FeNb0.82Hf0.1Ti0.08Sb,450,,382050,0.0000026175,,0.0039228,0.00010133,6.1578,0.40596,0.0006370457
27921,10.1016/j.ensm.2017.07.014,25319,3a,31548,FeNb0.9-xHf0.1TixSb_ x=0.08,FeNb0.82Hf0.1Ti0.08Sb,500,,358040,0.000002793,,0.0042313,0.00010871,5.9877,0.46651,0.0007066653
27921,10.1016/j.ensm.2017.07.014,25319,3a,31548,FeNb0.9-xHf0.1TixSb_ x=0.08,FeNb0.82Hf0.1Ti0.08Sb,550,,334020,0.0000029938,,0.0045016,0.00011609,5.8177,0.52706,0.0007737766
27921,10.1016/j.ensm.2017.07.014,25319,3a,31548,FeNb0.9-xHf0.1TixSb_ x=0.08,FeNb0.82Hf0.1Ti0.08Sb,600,,310010,0.0000032257,,0.0047253,0.00012346,5.6477,0.58761,0.0008366769
27921,10.1016/j.ensm.2017.07.014,25319,3a,31548,FeNb0.9-xHf0.1TixSb_ x=0.08,FeNb0.82Hf0.1Ti0.08Sb,650,,286000,0.0000034965,,0.0048961,0.00013084,5.4777,0.64816,0.0008938241
27921,10.1016/j.ensm.2017.07.014,25319,3a,31548,FeNb0.9-xHf0.1TixSb_ x=0.08,FeNb0.82Hf0.1Ti0.08Sb,700,,261980,0.0000038171,,0.0050043,0.00013821,5.3077,0.70871,0.0009428378
27921,10.1016/j.ensm.2017.07.014,25319,3a,31548,FeNb0.9-xHf0.1TixSb_ x=0.08,FeNb0.82Hf0.1Ti0.08Sb,750,,237970,0.0000042022,,0.0050441,0.00014559,5.1377,0.76926,0.0009817817
27921,10.1016/j.ensm.2017.07.014,25319,3a,31548,FeNb0.9-xHf0.1TixSb_ x=0.08,FeNb0.82Hf0.1Ti0.08Sb,800,,213960,0.0000046738,,0.005006,0.00015296,4.9677,0.82981,0.0010077098
27921,10.1016/j.ensm.2017.07.014,25319,3a,31548,FeNb0.9-xHf0.1TixSb_ x=0.08,FeNb0.82Hf0.1Ti0.08Sb,850,,189940,0.0000052648,,0.0048832,0.00016034,4.7977,0.89036,0.001017821
27921,10.1016/j.ensm.2017.07.014,25319,3a,31548,FeNb0.9-xHf0.1TixSb_ x=0.08,FeNb0.82Hf0.1Ti0.08Sb,900,,165930,0.0000060266,,0.0046671,0.00016771,4.6277,0.95091,0.0010085139
27921,10.1016/j.ensm.2017.07.014,25319,3a,31548,FeNb0.9-xHf0.1TixSb_ x=0.08,FeNb0.82Hf0.1Ti0.08Sb,950,,141920,0.0000070462,,0.0043508,0.00017509,4.4577,1.0115,0.000976019
27921,10.1016/j.ensm.2017.07.014,25319,3a,31548,FeNb0.9-xHf0.1TixSb_ x=0.08,FeNb0.82Hf0.1Ti0.08Sb,1000,,117900,0.0000084818,,0.0039251,0.00018246,4.2876,1.072,0.0009154539
27921,10.1016/j.ensm.2017.07.014,25319,3a,31548,FeNb0.9-xHf0.1TixSb_ x=0.08,FeNb0.82Hf0.1Ti0.08Sb,1050,,93890,0.000010651,,0.0033837,0.00018984,4.1176,1.1326,0.0008217651
27921,10.1016/j.ensm.2017.07.014,25319,3a,31548,FeNb0.9-xHf0.1TixSb_ x=0.08,FeNb0.82Hf0.1Ti0.08Sb,1100,,69876,0.000014311,,0.0027176,0.00019721,3.9476,1.1931,0.0006884183
27921,10.1016/j.ensm.2017.07.014,25319,3a,31548,FeNb0.9-xHf0.1TixSb_ x=0.08,FeNb0.82Hf0.1Ti0.08Sb,1150,,45863,0.000021804,,,,3.7776,1.2537,
27921,10.1016/j.ensm.2017.07.014,25319,3a,31548,FeNb0.9-xHf0.1TixSb_ x=0.08,FeNb0.82Hf0.1Ti0.08Sb,1200,,21850,0.000045767,,,,3.6076,,
27921,10.1016/j.ensm.2017.07.014,25322,5a,31548,FeNb0.9-xHf0.1TixSb_ x=0.08,FeNb0.82Hf0.1Ti0.08Sb,300,,454090,0.0000022022,,,,,,
27921,10.1016/j.ensm.2017.07.014,25323,6a,31555,FeNb0.8Hf0.2Sb,FeNb0.8Hf0.2Sb,400,,,,,,,,0.274,
27921,10.1016/j.ensm.2017.07.014,25323,6a,31555,FeNb0.8Hf0.2Sb,FeNb0.8Hf0.2Sb,450,,,,,,,,0.33526,
27921,10.1016/j.ensm.2017.07.014,25323,6a,31555,FeNb0.8Hf0.2Sb,FeNb0.8Hf0.2Sb,500,,,,,,,,0.39652,
27921,10.1016/j.ensm.2017.07.014,25323,6a,31555,FeNb0.8Hf0.2Sb,FeNb0.8Hf0.2Sb,550,,,,,,,,0.45778,
27921,10.1016/j.ensm.2017.07.014,25323,6a,31555,FeNb0.8Hf0.2Sb,FeNb0.8Hf0.2Sb,600,,,,,,,,0.51903,
27921,10.1016/j.ensm.2017.07.014,25323,6a,31555,FeNb0.8Hf0.2Sb,FeNb0.8Hf0.2Sb,650,,,,,,,,0.58029,
27921,10.1016/j.ensm.2017.07.014,25323,6a,31555,FeNb0.8Hf0.2Sb,FeNb0.8Hf0.2Sb,700,,,,,,,,0.64155,
27921,10.1016/j.ensm.2017.07.014,25323,6a,31555,FeNb0.8Hf0.2Sb,FeNb0.8Hf0.2Sb,750,,,,,,,,0.70281,
27921,10.1016/j.ensm.2017.07.014,25323,6a,31555,FeNb0.8Hf0.2Sb,FeNb0.8Hf0.2Sb,800,,,,,,,,0.76407,
27921,10.1016/j.ensm.2017.07.014,25323,6a,31555,FeNb0.8Hf0.2Sb,FeNb0.8Hf0.2Sb,850,,,,,,,,0.82533,
27921,10.1016/j.ensm.2017.07.014,25323,6a,31555,FeNb0.8Hf0.2Sb,FeNb0.8Hf0.2Sb,900,,,,,,,,0.88658,
27921,10.1016/j.ensm.2017.07.014,25323,6a,31555,FeNb0.8Hf0.2Sb,FeNb0.8Hf0.2Sb,950,,,,,,,,0.94784,
27921,10.1016/j.ensm.2017.07.014,25323,6a,31555,FeNb0.8Hf0.2Sb,FeNb0.8Hf0.2Sb,1000,,,,,,,,1.0091,
27922,10.1002/aenm.201701313,25328,3a,31559,(Nb1−xTax)0.8Ti0.2FeSb_ x=0,Nb0.8Ti0.2FeSb,300,,480260,0.0000020822,,,,7.7043,0.067331,
27922,10.1002/aenm.201701313,25328,3a,31559,(Nb1−xTax)0.8Ti0.2FeSb_ x=0,Nb0.8Ti0.2FeSb,350,,454870,0.0000021984,,0.0032616,0.000084678,7.4939,0.13023,0.000435234
27922,10.1002/aenm.201701313,25328,3a,31559,(Nb1−xTax)0.8Ti0.2FeSb_ x=0,Nb0.8Ti0.2FeSb,400,,429480,0.0000023284,,0.003695,0.000092755,7.2835,0.19314,0.000507311
27922,10.1002/aenm.201701313,25328,3a,31559,(Nb1−xTax)0.8Ti0.2FeSb_ x=0,Nb0.8Ti0.2FeSb,450,,404090,0.0000024747,,0.0041083,0.00010083,7.0731,0.25604,0.0005808344
27922,10.1002/aenm.201701313,25328,3a,31559,(Nb1−xTax)0.8Ti0.2FeSb_ x=0,Nb0.8Ti0.2FeSb,500,,378700,0.0000026406,,0.0044919,0.00010891,6.8627,0.31895,0.0006545383
27922,10.1002/aenm.201701313,25328,3a,31559,(Nb1−xTax)0.8Ti0.2FeSb_ x=0,Nb0.8Ti0.2FeSb,550,,353310,0.0000028304,,0.0048356,0.00011699,6.6523,0.38185,0.0007269065
27922,10.1002/aenm.201701313,25328,3a,31559,(Nb1−xTax)0.8Ti0.2FeSb_ x=0,Nb0.8Ti0.2FeSb,600,,327920,0.0000030495,,0.0051295,0.00012507,6.4419,0.44475,0.0007962713
27922,10.1002/aenm.201701313,25328,3a,31559,(Nb1−xTax)0.8Ti0.2FeSb_ x=0,Nb0.8Ti0.2FeSb,650,,302530,0.0000033055,,0.0053627,0.00013314,6.2314,0.50766,0.0008605931
27922,10.1002/aenm.201701313,25328,3a,31559,(Nb1−xTax)0.8Ti0.2FeSb_ x=0,Nb0.8Ti0.2FeSb,700,,277140,0.0000036083,,0.005527,0.00014122,6.021,0.57056,0.0009179538
27922,10.1002/aenm.201701313,25328,3a,31559,(Nb1−xTax)0.8Ti0.2FeSb_ x=0,Nb0.8Ti0.2FeSb,750,,251750,0.0000039722,,0.0056116,0.0001493,5.8106,0.63347,0.0009657522
27922,10.1002/aenm.201701313,25328,3a,31559,(Nb1−xTax)0.8Ti0.2FeSb_ x=0,Nb0.8Ti0.2FeSb,800,,226360,0.0000044177,,0.0056059,0.00015737,5.6002,0.69637,0.0010010178
27922,10.1002/aenm.201701313,25328,3a,31559,(Nb1−xTax)0.8Ti0.2FeSb_ x=0,Nb0.8Ti0.2FeSb,850,,200970,0.0000049759,,0.0055013,0.00016545,5.3898,0.75927,0.0010206872
27922,10.1002/aenm.201701313,25328,3a,31559,(Nb1−xTax)0.8Ti0.2FeSb_ x=0,Nb0.8Ti0.2FeSb,900,,175580,0.0000056954,,0.0052872,0.00017353,5.1794,0.82218,0.0010208132
27922,10.1002/aenm.201701313,25328,3a,31559,(Nb1−xTax)0.8Ti0.2FeSb_ x=0,Nb0.8Ti0.2FeSb,950,,150190,0.0000066582,,0.0049536,0.00018161,4.9689,0.88508,0.0009969208
27922,10.1002/aenm.201701313,25328,3a,31559,(Nb1−xTax)0.8Ti0.2FeSb_ x=0,Nb0.8Ti0.2FeSb,1000,,124800,0.0000080128,,0.0044901,0.00018968,4.7585,0.94798,0.0009435957
27922,10.1002/aenm.201701313,25328,3a,31559,(Nb1−xTax)0.8Ti0.2FeSb_ x=0,Nb0.8Ti0.2FeSb,1050,,99408,0.00001006,,0.0038877,0.00019776,4.5481,1.0109,0.0008547965
27922,10.1002/aenm.201701313,25328,3a,31559,(Nb1−xTax)0.8Ti0.2FeSb_ x=0,Nb0.8Ti0.2FeSb,1100,,74018,0.00001351,,0.0031362,0.00020584,4.3377,1.0738,0.0007230099
27922,10.1002/aenm.201701313,25328,3a,31559,(Nb1−xTax)0.8Ti0.2FeSb_ x=0,Nb0.8Ti0.2FeSb,1150,,48629,0.000020564,,0.0022253,0.00021392,4.1273,1.1367,0.000539166
27922,10.1002/aenm.201701313,25328,3a,31560,(Nb1−xTax)0.8Ti0.2FeSb_ x=0.04,(Nb0.96Ta0.04)0.8Ti0.2FeSb,300,,500350,0.0000019986,,,,7.2457,0.11376,
27922,10.1002/aenm.201701313,25328,3a,31560,(Nb1−xTax)0.8Ti0.2FeSb_ x=0.04,(Nb0.96Ta0.04)0.8Ti0.2FeSb,350,,473640,0.0000021113,,0.0036434,0.000087706,7.0637,0.17504,0.000515792
27922,10.1002/aenm.201701313,25328,3a,31560,(Nb1−xTax)0.8Ti0.2FeSb_ x=0.04,(Nb0.96Ta0.04)0.8Ti0.2FeSb,400,,446930,0.0000022375,,0.0040703,0.000095432,6.8818,0.23632,0.0005914586
27922,10.1002/aenm.201701313,25328,3a,31560,(Nb1−xTax)0.8Ti0.2FeSb_ x=0.04,(Nb0.96Ta0.04)0.8Ti0.2FeSb,450,,420210,0.0000023798,,0.0044719,0.00010316,6.6998,0.2976,0.0006674677
27922,10.1002/aenm.201701313,25328,3a,31560,(Nb1−xTax)0.8Ti0.2FeSb_ x=0.04,(Nb0.96Ta0.04)0.8Ti0.2FeSb,500,,393500,0.0000025413,,0.0048378,0.00011088,6.5178,0.35888,0.0007422443
27922,10.1002/aenm.201701313,25328,3a,31560,(Nb1−xTax)0.8Ti0.2FeSb_ x=0.04,(Nb0.96Ta0.04)0.8Ti0.2FeSb,550,,366790,0.0000027264,,0.0051601,0.00011861,6.3358,0.42016,0.0008144354
27922,10.1002/aenm.201701313,25328,3a,31560,(Nb1−xTax)0.8Ti0.2FeSb_ x=0.04,(Nb0.96Ta0.04)0.8Ti0.2FeSb,600,,340070,0.0000029406,,0.0054281,0.00012634,6.1538,0.48144,0.0008820729
27922,10.1002/aenm.201701313,25328,3a,31560,(Nb1−xTax)0.8Ti0.2FeSb_ x=0.04,(Nb0.96Ta0.04)0.8Ti0.2FeSb,650,,313360,0.0000031912,,0.0056317,0.00013406,5.9718,0.54272,0.000943049
27922,10.1002/aenm.201701313,25328,3a,31560,(Nb1−xTax)0.8Ti0.2FeSb_ x=0.04,(Nb0.96Ta0.04)0.8Ti0.2FeSb,700,,286650,0.0000034886,,0.0057629,0.00014179,5.7898,0.60399,0.0009953539
27922,10.1002/aenm.201701313,25328,3a,31560,(Nb1−xTax)0.8Ti0.2FeSb_ x=0.04,(Nb0.96Ta0.04)0.8Ti0.2FeSb,750,,259930,0.0000038472,,0.0058103,0.00014951,5.6078,0.66527,0.0010361104
27922,10.1002/aenm.201701313,25328,3a,31560,(Nb1−xTax)0.8Ti0.2FeSb_ x=0.04,(Nb0.96Ta0.04)0.8Ti0.2FeSb,800,,233220,0.0000042878,,0.0057662,0.00015724,5.4258,0.72655,0.0010627373
27922,10.1002/aenm.201701313,25328,3a,31560,(Nb1−xTax)0.8Ti0.2FeSb_ x=0.04,(Nb0.96Ta0.04)0.8Ti0.2FeSb,850,,206510,0.0000048424,,0.0056202,0.00016497,5.2438,0.78783,0.00107178
27922,10.1002/aenm.201701313,25328,3a,31560,(Nb1−xTax)0.8Ti0.2FeSb_ x=0.04,(Nb0.96Ta0.04)0.8Ti0.2FeSb,900,,179790,0.000005562,,0.0053617,0.00017269,5.0618,0.84911,0.0010592477
27922,10.1002/aenm.201701313,25328,3a,31560,(Nb1−xTax)0.8Ti0.2FeSb_ x=0.04,(Nb0.96Ta0.04)0.8Ti0.2FeSb,950,,153080,0.0000065325,,0.004983,0.00018042,4.8798,0.91039,0.0010211484
27922,10.1002/aenm.201701313,25328,3a,31560,(Nb1−xTax)0.8Ti0.2FeSb_ x=0.04,(Nb0.96Ta0.04)0.8Ti0.2FeSb,1000,,126360,0.0000079139,,0.0044727,0.00018814,4.6978,0.97167,0.000952084
27922,10.1002/aenm.201701313,25328,3a,31560,(Nb1−xTax)0.8Ti0.2FeSb_ x=0.04,(Nb0.96Ta0.04)0.8Ti0.2FeSb,1050,,99651,0.000010035,,0.0038231,0.00019587,4.5158,1.033,0.0008466053