sid,DOI,figureid,fignum,sampleid,samplename,composition,Temperature,Carrier mobility,Electrical resistivity,Seebeck coefficient,Thermal conductivity,ZT,Electrical conductivity,Power factor,Figure of merit Z
6006,10.1002/adma.201004200,19,3(a),367,Pb1Se1,Pb1Se1,826,,,,1.3072,,,,
6006,10.1002/adma.201004200,19,3(a),367,Pb1Se1,Pb1Se1,826.5,,,,1.3074,,,,
6006,10.1002/adma.201004200,19,3(a),367,Pb1Se1,Pb1Se1,827,,,,1.3075,,,,
6006,10.1002/adma.201004200,19,3(a),367,Pb1Se1,Pb1Se1,827.5,,,,1.3076,,,,
6006,10.1002/adma.201004200,19,3(a),367,Pb1Se1,Pb1Se1,828,,,,1.3077,,,,
6006,10.1002/adma.201004200,19,3(a),367,Pb1Se1,Pb1Se1,828.5,,,,1.3078,,,,
6006,10.1002/adma.201004200,19,3(a),367,Pb1Se1,Pb1Se1,829,,,,1.3079,,,,
6006,10.1002/adma.201004200,19,3(a),367,Pb1Se1,Pb1Se1,829.5,,,,1.308,,,,
6006,10.1002/adma.201004200,19,3(a),367,Pb1Se1,Pb1Se1,830,,,,1.3081,,,,
6006,10.1002/adma.201004200,19,3(a),367,Pb1Se1,Pb1Se1,830.5,,,,1.3082,,,,
6006,10.1002/adma.201004200,19,3(a),367,Pb1Se1,Pb1Se1,831,,,,1.3083,,,,
6006,10.1002/adma.201004200,19,3(a),367,Pb1Se1,Pb1Se1,831.5,,,,1.3084,,,,
6006,10.1002/adma.201004200,19,3(a),367,Pb1Se1,Pb1Se1,832,,,,1.3085,,,,
6006,10.1002/adma.201004200,19,3(a),367,Pb1Se1,Pb1Se1,832.5,,,,1.3085,,,,
6006,10.1002/adma.201004200,19,3(a),367,Pb1Se1,Pb1Se1,833,,,,1.3086,,,,
6006,10.1002/adma.201004200,19,3(a),367,Pb1Se1,Pb1Se1,833.5,,,,1.3087,,,,
6006,10.1002/adma.201004200,19,3(a),367,Pb1Se1,Pb1Se1,834,,,,1.3088,,,,
6006,10.1002/adma.201004200,19,3(a),367,Pb1Se1,Pb1Se1,834.5,,,,1.3088,,,,
6006,10.1002/adma.201004200,19,3(a),367,Pb1Se1,Pb1Se1,835,,,,1.3089,,,,
6006,10.1002/adma.201004200,19,3(a),367,Pb1Se1,Pb1Se1,835.5,,,,1.309,,,,
6006,10.1002/adma.201004200,19,3(a),367,Pb1Se1,Pb1Se1,836,,,,1.309,,,,
6006,10.1002/adma.201004200,19,3(a),367,Pb1Se1,Pb1Se1,836.5,,,,1.3091,,,,
6006,10.1002/adma.201004200,19,3(a),367,Pb1Se1,Pb1Se1,837,,,,1.3091,,,,
6006,10.1002/adma.201004200,19,3(a),367,Pb1Se1,Pb1Se1,837.5,,,,1.3092,,,,
6006,10.1002/adma.201004200,19,3(a),367,Pb1Se1,Pb1Se1,838,,,,1.3092,,,,
6006,10.1002/adma.201004200,19,3(a),367,Pb1Se1,Pb1Se1,838.5,,,,1.3093,,,,
6006,10.1002/adma.201004200,19,3(a),367,Pb1Se1,Pb1Se1,839,,,,1.3093,,,,
6006,10.1002/adma.201004200,19,3(a),367,Pb1Se1,Pb1Se1,839.5,,,,1.3093,,,,
6006,10.1002/adma.201004200,19,3(a),367,Pb1Se1,Pb1Se1,840,,,,1.3094,,,,
6006,10.1002/adma.201004200,19,3(a),367,Pb1Se1,Pb1Se1,840.5,,,,1.3094,,,,
6006,10.1002/adma.201004200,19,3(a),367,Pb1Se1,Pb1Se1,841,,,,1.3094,,,,
6006,10.1002/adma.201004200,19,3(a),367,Pb1Se1,Pb1Se1,841.5,,,,1.3094,,,,
6006,10.1002/adma.201004200,19,3(a),367,Pb1Se1,Pb1Se1,842,,,,1.3094,,,,
6006,10.1002/adma.201004200,19,3(a),367,Pb1Se1,Pb1Se1,842.5,,,,1.3095,,,,
6006,10.1002/adma.201004200,19,3(a),367,Pb1Se1,Pb1Se1,843,,,,1.3095,,,,
6006,10.1002/adma.201004200,19,3(a),367,Pb1Se1,Pb1Se1,843.5,,,,1.3095,,,,
6006,10.1002/adma.201004200,19,3(a),367,Pb1Se1,Pb1Se1,844,,,,1.3095,,,,
6006,10.1002/adma.201004200,19,3(a),367,Pb1Se1,Pb1Se1,844.5,,,,1.3095,,,,
6006,10.1002/adma.201004200,19,3(a),367,Pb1Se1,Pb1Se1,845,,,,1.3095,,,,
6006,10.1002/adma.201004200,19,3(a),367,Pb1Se1,Pb1Se1,845.5,,,,1.3094,,,,
6006,10.1002/adma.201004200,19,3(a),367,Pb1Se1,Pb1Se1,846,,,,1.3094,,,,
6006,10.1002/adma.201004200,19,3(a),367,Pb1Se1,Pb1Se1,846.5,,,,1.3094,,,,
6006,10.1002/adma.201004200,19,3(a),367,Pb1Se1,Pb1Se1,847,,,,1.3094,,,,
6006,10.1002/adma.201004200,19,3(a),367,Pb1Se1,Pb1Se1,847.5,,,,1.3094,,,,
6006,10.1002/adma.201004200,19,3(a),367,Pb1Se1,Pb1Se1,848,,,,1.3093,,,,
6006,10.1002/adma.201004200,19,3(a),367,Pb1Se1,Pb1Se1,848.5,,,,1.3093,,,,
6006,10.1002/adma.201004200,80,1(a),324,Na0.007Pb0.993Se1,Na0.007Pb0.993Se1,305,0.018506,0.0000038014,0.000034449,3.7572,-0.17415,263060.9775345925,0.0003121833,0.0000830893
6006,10.1002/adma.201004200,80,1(a),324,Na0.007Pb0.993Se1,Na0.007Pb0.993Se1,305.5,0.018492,0.0000038026,0.000034526,3.7493,-0.17297,262977.962446747,0.0003134815,0.0000836107
6006,10.1002/adma.201004200,80,1(a),324,Na0.007Pb0.993Se1,Na0.007Pb0.993Se1,306,0.018477,0.0000038039,0.000034603,3.7415,-0.17178,262888.0885407082,0.0003147737,0.0000841303
6006,10.1002/adma.201004200,80,1(a),324,Na0.007Pb0.993Se1,Na0.007Pb0.993Se1,306.5,0.018462,0.0000038052,0.000034681,3.7337,-0.17059,262798.2760433091,0.0003160863,0.0000846577
6006,10.1002/adma.201004200,80,1(a),324,Na0.007Pb0.993Se1,Na0.007Pb0.993Se1,307,0.018447,0.0000038065,0.000034758,3.7259,-0.1694,262708.5248916327,0.000317383,0.0000851829
6006,10.1002/adma.201004200,80,1(a),324,Na0.007Pb0.993Se1,Na0.007Pb0.993Se1,307.5,0.018432,0.0000038079,0.000034835,3.7182,-0.16821,262611.9383387169,0.0003186736,0.0000857064
6006,10.1002/adma.201004200,80,1(a),324,Na0.007Pb0.993Se1,Na0.007Pb0.993Se1,308,0.018417,0.0000038094,0.000034913,3.7105,-0.16702,262508.5315272746,0.0003199763,0.0000862353
6006,10.1002/adma.201004200,80,1(a),324,Na0.007Pb0.993Se1,Na0.007Pb0.993Se1,308.5,0.018403,0.0000038109,0.00003499,3.7028,-0.16583,262405.2061192894,0.0003212627,0.0000867621
6006,10.1002/adma.201004200,80,1(a),324,Na0.007Pb0.993Se1,Na0.007Pb0.993Se1,309,0.018388,0.0000038125,0.000035068,3.6952,-0.16465,262295.0819672131,0.0003225612,0.0000872919
6006,10.1002/adma.201004200,80,1(a),324,Na0.007Pb0.993Se1,Na0.007Pb0.993Se1,309.5,0.018373,0.0000038141,0.000035146,3.6875,-0.16346,262185.0502084371,0.0003238618,0.0000878269
6006,10.1002/adma.201004200,80,1(a),324,Na0.007Pb0.993Se1,Na0.007Pb0.993Se1,310,0.018358,0.0000038158,0.000035224,3.68,-0.16227,262068.2425703653,0.000325156,0.0000883576
6006,10.1002/adma.201004200,80,1(a),324,Na0.007Pb0.993Se1,Na0.007Pb0.993Se1,310.5,0.018343,0.0000038175,0.000035302,3.6724,-0.16108,261951.5389652914,0.0003264522,0.0000888934
6006,10.1002/adma.201004200,80,1(a),324,Na0.007Pb0.993Se1,Na0.007Pb0.993Se1,311,0.018328,0.0000038193,0.00003538,3.6649,-0.15989,261828.0836802555,0.0003277418,0.0000894272
6006,10.1002/adma.201004200,80,1(a),324,Na0.007Pb0.993Se1,Na0.007Pb0.993Se1,311.5,0.018314,0.0000038212,0.000035458,3.6574,-0.1587,261697.8959489166,0.0003290249,0.0000899614
6006,10.1002/adma.201004200,80,1(a),324,Na0.007Pb0.993Se1,Na0.007Pb0.993Se1,312,0.018299,0.0000038231,0.000035536,3.6499,-0.15752,261567.8376186864,0.0003303098,0.0000904983
6006,10.1002/adma.201004200,80,1(a),324,Na0.007Pb0.993Se1,Na0.007Pb0.993Se1,312.5,0.018284,0.0000038251,0.000035615,3.6425,-0.15633,261431.0736974197,0.0003316066,0.0000910382
6006,10.1002/adma.201004200,80,1(a),324,Na0.007Pb0.993Se1,Na0.007Pb0.993Se1,313,0.018269,0.0000038271,0.000035693,3.635,-0.15514,261294.4527187688,0.0003328866,0.0000915782
6006,10.1002/adma.201004200,80,1(a),324,Na0.007Pb0.993Se1,Na0.007Pb0.993Se1,313.5,0.018254,0.0000038292,0.000035771,3.6277,-0.15395,261151.154288102,0.0003341597,0.0000921134
6006,10.1002/adma.201004200,80,1(a),324,Na0.007Pb0.993Se1,Na0.007Pb0.993Se1,314,0.01824,0.0000038313,0.00003585,3.6203,-0.15276,261008.0129459974,0.0003354534,0.000092659
6006,10.1002/adma.201004200,80,1(a),324,Na0.007Pb0.993Se1,Na0.007Pb0.993Se1,314.5,0.018225,0.0000038334,0.000035929,3.613,-0.15157,260865.0284342881,0.0003367488,0.0000932048
6006,10.1002/adma.201004200,80,1(a),324,Na0.007Pb0.993Se1,Na0.007Pb0.993Se1,315,0.01821,0.0000038357,0.000036008,3.6057,-0.15039,260708.6059910838,0.0003380285,0.0000937484
6006,10.1002/adma.201004200,80,1(a),324,Na0.007Pb0.993Se1,Na0.007Pb0.993Se1,315.5,0.018195,0.0000038379,0.000036086,3.5984,-0.1492,260559.1599572683,0.0003393,0.0000942919
6006,10.1002/adma.201004200,80,1(a),324,Na0.007Pb0.993Se1,Na0.007Pb0.993Se1,316,0.01818,0.0000038403,0.000036165,3.5912,-0.14801,260396.3232039163,0.0003405742,0.0000948358
6006,10.1002/adma.201004200,80,1(a),324,Na0.007Pb0.993Se1,Na0.007Pb0.993Se1,316.5,0.018165,0.0000038427,0.000036244,3.584,-0.14682,260233.6898534885,0.0003418501,0.0000953823
6006,10.1002/adma.201004200,80,1(a),324,Na0.007Pb0.993Se1,Na0.007Pb0.993Se1,317,0.018151,0.0000038451,0.000036324,3.5768,-0.14563,260071.2595251099,0.0003431466,0.0000959368
6006,10.1002/adma.201004200,80,1(a),324,Na0.007Pb0.993Se1,Na0.007Pb0.993Se1,317.5,0.018136,0.0000038476,0.000036403,3.5696,-0.14444,259902.2767439443,0.0003444169,0.0000964861
6006,10.1002/adma.201004200,80,1(a),324,Na0.007Pb0.993Se1,Na0.007Pb0.993Se1,318,0.018121,0.0000038501,0.000036482,3.5625,-0.14326,259733.513415236,0.0003456888,0.0000970354
6006,10.1002/adma.201004200,80,1(a),324,Na0.007Pb0.993Se1,Na0.007Pb0.993Se1,318.5,0.018106,0.0000038527,0.000036562,3.5554,-0.14207,259558.2318893244,0.0003469722,0.0000975902
6006,10.1002/adma.201004200,80,1(a),324,Na0.007Pb0.993Se1,Na0.007Pb0.993Se1,319,0.018091,0.0000038553,0.000036641,3.5483,-0.14088,259383.1867818328,0.0003482382,0.0000981423
6006,10.1002/adma.201004200,80,1(a),324,Na0.007Pb0.993Se1,Na0.007Pb0.993Se1,319.5,0.018076,0.000003858,0.000036721,3.5413,-0.13969,259201.6588906169,0.0003495158,0.000098697
6006,10.1002/adma.201004200,80,1(a),324,Na0.007Pb0.993Se1,Na0.007Pb0.993Se1,320,0.018062,0.0000038608,0.000036801,3.5342,-0.1385,259013.6759220887,0.0003507857,0.0000992546
6006,10.1002/adma.201004200,80,1(a),324,Na0.007Pb0.993Se1,Na0.007Pb0.993Se1,320.5,0.018047,0.0000038635,0.000036881,3.5272,-0.13731,258832.6646822829,0.0003520663,0.0000998147
6006,10.1002/adma.201004200,80,1(a),324,Na0.007Pb0.993Se1,Na0.007Pb0.993Se1,321,0.018032,0.0000038664,0.000036961,3.5203,-0.13613,258638.5267949514,0.0003533301,0.0001003693
6006,10.1002/adma.201004200,80,1(a),324,Na0.007Pb0.993Se1,Na0.007Pb0.993Se1,321.5,0.018017,0.0000038693,0.000037041,3.5133,-0.13494,258444.6799162639,0.0003545953,0.0001009294
6006,10.1002/adma.201004200,80,1(a),324,Na0.007Pb0.993Se1,Na0.007Pb0.993Se1,322,0.018002,0.0000038722,0.000037121,3.5064,-0.13375,258251.1233923868,0.0003558619,0.0001014893
6006,10.1002/adma.201004200,80,1(a),324,Na0.007Pb0.993Se1,Na0.007Pb0.993Se1,322.5,0.017987,0.0000038752,0.000037201,3.4995,-0.13256,258051.1973575558,0.0003571208,0.0001020491
6006,10.1002/adma.201004200,80,1(a),324,Na0.007Pb0.993Se1,Na0.007Pb0.993Se1,323,0.017973,0.0000038782,0.000037282,3.4927,-0.13137,257851.5806301892,0.0003584002,0.0001026141
6006,10.1002/adma.201004200,80,1(a),324,Na0.007Pb0.993Se1,Na0.007Pb0.993Se1,323.5,0.017958,0.0000038813,0.000037362,3.4858,-0.13018,257645.6341947286,0.0003596524,0.0001031764
6006,10.1002/adma.201004200,80,1(a),324,Na0.007Pb0.993Se1,Na0.007Pb0.993Se1,324,0.017943,0.0000038844,0.000037443,3.479,-0.129,257440.0164761611,0.0003609253,0.000103744
6006,10.1002/adma.201004200,80,1(a),324,Na0.007Pb0.993Se1,Na0.007Pb0.993Se1,324.5,0.017928,0.0000038876,0.000037524,3.4722,-0.12781,257228.1098878485,0.0003621902,0.0001043114
6006,10.1002/adma.201004200,80,1(a),324,Na0.007Pb0.993Se1,Na0.007Pb0.993Se1,325,0.017913,0.0000038908,0.000037604,3.4655,-0.12662,257016.5518659402,0.000363437,0.0001048729
6006,10.1002/adma.201004200,80,1(a),324,Na0.007Pb0.993Se1,Na0.007Pb0.993Se1,325.5,0.017898,0.0000038941,0.000037685,3.4587,-0.12543,256798.7468221155,0.0003646951,0.0001054428
6006,10.1002/adma.201004200,80,1(a),324,Na0.007Pb0.993Se1,Na0.007Pb0.993Se1,326,0.017884,0.0000038974,0.000037766,3.452,-0.12424,256581.3106173346,0.0003659544,0.0001060123
6006,10.1002/adma.201004200,80,1(a),324,Na0.007Pb0.993Se1,Na0.007Pb0.993Se1,326.5,0.017869,0.0000039007,0.000037848,3.4454,-0.12305,256364.2423154819,0.0003672344,0.0001065869
6006,10.1002/adma.201004200,80,1(a),324,Na0.007Pb0.993Se1,Na0.007Pb0.993Se1,327,0.017854,0.0000039041,0.000037929,3.4387,-0.12187,256140.9799953895,0.0003684867,0.0001071587
6006,10.1002/adma.201004200,80,1(a),324,Na0.007Pb0.993Se1,Na0.007Pb0.993Se1,327.5,0.017839,0.0000039076,0.00003801,3.4321,-0.12068,255911.5569659126,0.0003697308,0.0001077273
6006,10.1002/adma.201004200,80,1(a),324,Na0.007Pb0.993Se1,Na0.007Pb0.993Se1,328,0.017824,0.0000039111,0.000038092,3.4255,-0.11949,255682.5445526834,0.0003709955,0.000108304
6006,10.1002/adma.201004200,80,1(a),324,Na0.007Pb0.993Se1,Na0.007Pb0.993Se1,328.5,0.01781,0.0000039146,0.000038173,3.4189,-0.1183,255453.9416543197,0.0003722418,0.0001088777
6006,10.1002/adma.201004200,80,1(a),324,Na0.007Pb0.993Se1,Na0.007Pb0.993Se1,329,0.017795,0.0000039182,0.000038255,3.4124,-0.11711,255219.2333214231,0.0003734993,0.0001094536
6006,10.1002/adma.201004200,80,1(a),324,Na0.007Pb0.993Se1,Na0.007Pb0.993Se1,329.5,0.01778,0.0000039218,0.000038337,3.4058,-0.11592,254984.9558876026,0.0003747579,0.0001100352
6006,10.1002/adma.201004200,80,1(a),324,Na0.007Pb0.993Se1,Na0.007Pb0.993Se1,330,0.017765,0.0000039255,0.000038419,3.3993,-0.11474,254744.6185199338,0.000376008,0.0001106134
6006,10.1002/adma.201004200,80,1(a),324,Na0.007Pb0.993Se1,Na0.007Pb0.993Se1,330.5,0.01775,0.0000039292,0.000038501,3.3928,-0.11355,254504.7337880485,0.0003772592,0.0001111941
6006,10.1002/adma.201004200,80,1(a),324,Na0.007Pb0.993Se1,Na0.007Pb0.993Se1,331,0.017735,0.000003933,0.000038583,3.3864,-0.11236,254258.8354945334,0.0003785019,0.0001117712
6006,10.1002/adma.201004200,80,1(a),324,Na0.007Pb0.993Se1,Na0.007Pb0.993Se1,331.5,0.017721,0.0000039368,0.000038666,3.38,-0.11117,254013.4119081487,0.0003797652,0.0001123566
6006,10.1002/adma.201004200,80,1(a),324,Na0.007Pb0.993Se1,Na0.007Pb0.993Se1,332,0.017706,0.0000039407,0.000038748,3.3736,-0.10998,253762.0219757911,0.0003810002,0.0001129358
6006,10.1002/adma.201004200,80,1(a),324,Na0.007Pb0.993Se1,Na0.007Pb0.993Se1,332.5,0.017691,0.0000039446,0.000038831,3.3672,-0.10879,253511.1291385692,0.0003822559,0.0001135234
6006,10.1002/adma.201004200,80,1(a),324,Na0.007Pb0.993Se1,Na0.007Pb0.993Se1,333,0.017676,0.0000039485,0.000038913,3.3608,-0.10761,253260.7319235152,0.0003834929,0.0001141076
6006,10.1002/adma.201004200,80,1(a),324,Na0.007Pb0.993Se1,Na0.007Pb0.993Se1,333.5,0.017661,0.0000039525,0.000038996,3.3545,-0.10642,253004.4275774826,0.0003847408,0.0001146939
6006,10.1002/adma.201004200,80,1(a),324,Na0.007Pb0.993Se1,Na0.007Pb0.993Se1,334,0.017646,0.0000039565,0.000039079,3.3482,-0.10523,252748.6414760521,0.0003859897,0.0001152827
6006,10.1002/adma.201004200,80,1(a),324,Na0.007Pb0.993Se1,Na0.007Pb0.993Se1,334.5,0.017632,0.0000039606,0.000039162,3.3419,-0.10404,252486.9969196586,0.0003872298,0.0001158711
6006,10.1002/adma.201004200,80,1(a),324,Na0.007Pb0.993Se1,Na0.007Pb0.993Se1,335,0.017617,0.0000039647,0.000039245,3.3356,-0.10285,252225.8935102277,0.0003884708,0.000116462
6006,10.1002/adma.201004200,80,1(a),324,Na0.007Pb0.993Se1,Na0.007Pb0.993Se1,335.5,0.017602,0.0000039689,0.000039329,3.3294,-0.10166,251958.9810778805,0.0003897227,0.0001170549
6006,10.1002/adma.201004200,80,1(a),324,Na0.007Pb0.993Se1,Na0.007Pb0.993Se1,336,0.017587,0.0000039731,0.000039412,3.3232,-0.10048,251692.6329566333,0.0003909556,0.0001176443
6006,10.1002/adma.201004200,80,1(a),324,Na0.007Pb0.993Se1,Na0.007Pb0.993Se1,336.5,0.017572,0.0000039773,0.000039496,3.317,-0.099288,251426.847358761,0.0003922093,0.0001182422
6006,10.1002/adma.201004200,80,1(a),324,Na0.007Pb0.993Se1,Na0.007Pb0.993Se1,337,0.017557,0.0000039816,0.000039579,3.3108,-0.0981,251155.3144464537,0.0003934341,0.0001188335
6006,10.1002/adma.201004200,80,1(a),324,Na0.007Pb0.993Se1,Na0.007Pb0.993Se1,337.5,0.017543,0.0000039859,0.000039663,3.3047,-0.096911,250884.3673950676,0.0003946796,0.0001194298
6006,10.1002/adma.201004200,80,1(a),324,Na0.007Pb0.993Se1,Na0.007Pb0.993Se1,338,0.017528,0.0000039903,0.000039747,3.2986,-0.095723,250607.7237300454,0.0003959161,0.0001200255
6006,10.1002/adma.201004200,80,1(a),324,Na0.007Pb0.993Se1,Na0.007Pb0.993Se1,338.5,0.017513,0.0000039947,0.000039831,3.2925,-0.094535,250331.6894885724,0.0003971534,0.0001206237
6006,10.1002/adma.201004200,80,1(a),324,Na0.007Pb0.993Se1,Na0.007Pb0.993Se1,339,0.017498,0.0000039991,0.000039915,3.2864,-0.093346,250056.2626590983,0.0003983914,0.0001212243
6006,10.1002/adma.201004200,80,1(a),324,Na0.007Pb0.993Se1,Na0.007Pb0.993Se1,339.5,0.017483,0.0000040036,0.00004,3.2804,-0.092158,249775.2023179139,0.0003996403,0.0001218267
6006,10.1002/adma.201004200,80,1(a),324,Na0.007Pb0.993Se1,Na0.007Pb0.993Se1,340,0.017468,0.0000040082,0.000040084,3.2743,-0.090969,249488.548475625,0.00040086,0.0001224262
6006,10.1002/adma.201004200,80,1(a),324,Na0.007Pb0.993Se1,Na0.007Pb0.993Se1,340.5,0.017454,0.0000040127,0.000040169,3.2683,-0.089781,249208.7621800783,0.0004021104,0.0001230335
6006,10.1002/adma.201004200,80,1(a),324,Na0.007Pb0.993Se1,Na0.007Pb0.993Se1,341,0.017439,0.0000040173,0.000040253,3.2623,-0.088593,248923.4062678914,0.0004033316,0.0001236341
6006,10.1002/adma.201004200,80,1(a),324,Na0.007Pb0.993Se1,Na0.007Pb0.993Se1,341.5,0.017424,0.000004022,0.000040338,3.2564,-0.087404,248632.5211337643,0.0004045635,0.0001242364
6006,10.1002/adma.201004200,80,1(a),324,Na0.007Pb0.993Se1,Na0.007Pb0.993Se1,342,0.017409,0.0000040267,0.000040423,3.2504,-0.086216,248342.3150470609,0.000405796,0.000124845
6006,10.1002/adma.201004200,80,1(a),324,Na0.007Pb0.993Se1,Na0.007Pb0.993Se1,342.5,0.017394,0.0000040314,0.000040508,3.2445,-0.085028,248052.7856327826,0.0004070293,0.0001254521
6006,10.1002/adma.201004200,80,1(a),324,Na0.007Pb0.993Se1,Na0.007Pb0.993Se1,343,0.01738,0.0000040362,0.000040594,3.2386,-0.083839,247757.7919825578,0.0004082733,0.0001260648
6006,10.1002/adma.201004200,80,1(a),324,Na0.007Pb0.993Se1,Na0.007Pb0.993Se1,343.5,0.017365,0.000004041,0.000040679,3.2328,-0.082651,247463.4991338777,0.0004094979,0.0001266697
6006,10.1002/adma.201004200,80,1(a),324,Na0.007Pb0.993Se1,Na0.007Pb0.993Se1,344,0.01735,0.0000040458,0.000040765,3.2269,-0.081463,247169.9045924168,0.0004107433,0.0001272873
6006,10.1002/adma.201004200,80,1(a),324,Na0.007Pb0.993Se1,Na0.007Pb0.993Se1,344.5,0.017335,0.0000040507,0.00004085,3.2211,-0.080274,246870.9112005332,0.000411959,0.0001278939
6006,10.1002/adma.201004200,80,1(a),324,Na0.007Pb0.993Se1,Na0.007Pb0.993Se1,345,0.01732,0.0000040556,0.000040936,3.2153,-0.079086,246572.6402998323,0.0004131956,0.0001285092
6006,10.1002/adma.201004200,80,1(a),324,Na0.007Pb0.993Se1,Na0.007Pb0.993Se1,345.5,0.017305,0.0000040606,0.000041022,3.2095,-0.077898,246269.0242821258,0.0004144226,0.0001291237
6006,10.1002/adma.201004200,80,1(a),324,Na0.007Pb0.993Se1,Na0.007Pb0.993Se1,346,0.017291,0.0000040656,0.000041108,3.2037,-0.076709,245966.1550570642,0.0004156503,0.0001297407
6006,10.1002/adma.201004200,80,1(a),324,Na0.007Pb0.993Se1,Na0.007Pb0.993Se1,346.5,0.017276,0.0000040706,0.000041194,3.198,-0.075521,245664.0298727461,0.0004168785,0.000130356
6006,10.1002/adma.201004200,80,1(a),324,Na0.007Pb0.993Se1,Na0.007Pb0.993Se1,347,0.017261,0.0000040757,0.000041281,3.1923,-0.074333,245356.6258556813,0.0004181174,0.0001309768
6006,10.1002/adma.201004200,80,1(a),324,Na0.007Pb0.993Se1,Na0.007Pb0.993Se1,347.5,0.017246,0.0000040808,0.000041367,3.1866,-0.073144,245049.9901980004,0.0004193366,0.0001315937
6006,10.1002/adma.201004200,80,1(a),324,Na0.007Pb0.993Se1,Na0.007Pb0.993Se1,348,0.017231,0.0000040859,0.000041454,3.1809,-0.071956,244744.1200225165,0.0004205766,0.0001322194
6006,10.1002/adma.201004200,80,1(a),324,Na0.007Pb0.993Se1,Na0.007Pb0.993Se1,348.5,0.017216,0.0000040911,0.000041541,3.1753,-0.070768,244433.0375693579,0.000421807,0.0001328401
6006,10.1002/adma.201004200,80,1(a),324,Na0.007Pb0.993Se1,Na0.007Pb0.993Se1,349,0.017202,0.0000040963,0.000041628,3.1696,-0.069579,244122.7449161438,0.000423038,0.0001334673
6006,10.1002/adma.201004200,80,1(a),324,Na0.007Pb0.993Se1,Na0.007Pb0.993Se1,349.5,0.017187,0.0000041016,0.000041715,3.164,-0.068391,243807.2947142578,0.0004242591,0.0001340895
6006,10.1002/adma.201004200,80,1(a),324,Na0.007Pb0.993Se1,Na0.007Pb0.993Se1,350,0.017172,0.0000041069,0.000041802,3.1584,-0.067203,243492.6586963403,0.0004254808,0.000134714
6006,10.1002/adma.201004200,80,1(a),324,Na0.007Pb0.993Se1,Na0.007Pb0.993Se1,350.5,0.017157,0.0000041122,0.000041889,3.1529,-0.066014,243178.8337143135,0.0004267031,0.0001353367
6006,10.1002/adma.201004200,80,1(a),324,Na0.007Pb0.993Se1,Na0.007Pb0.993Se1,351,0.017142,0.0000041176,0.000041977,3.1473,-0.064826,242859.9183990674,0.0004279358,0.0001359692
6006,10.1002/adma.201004200,80,1(a),324,Na0.007Pb0.993Se1,Na0.007Pb0.993Se1,351.5,0.017127,0.000004123,0.000042064,3.1418,-0.063638,242541.8384671356,0.0004291487,0.0001365933