sid,DOI,figureid,fignum,sampleid,samplename,composition,Temperature,Carrier mobility,Electrical resistivity,Seebeck coefficient,Thermal conductivity,ZT,Electrical conductivity,Power factor,Figure of merit Z
6006,10.1002/adma.201004200,80,1(a),324,Na0.007Pb0.993Se1,Na0.007Pb0.993Se1,637,0.0086607,0.000011623,0.00012482,1.537,0.61491,86036.3073216897,0.0013404485,0.00087212
6006,10.1002/adma.201004200,80,1(a),324,Na0.007Pb0.993Se1,Na0.007Pb0.993Se1,637.5,0.0086459,0.000011646,0.00012502,1.5353,0.61609,85866.3918942126,0.0013420917,0.000874156
6006,10.1002/adma.201004200,80,1(a),324,Na0.007Pb0.993Se1,Na0.007Pb0.993Se1,638,0.008631,0.00001167,0.00012522,1.5336,0.61728,85689.8029134533,0.0013436203,0.0008761217
6006,10.1002/adma.201004200,80,1(a),324,Na0.007Pb0.993Se1,Na0.007Pb0.993Se1,638.5,0.0086162,0.000011694,0.00012542,1.532,0.61847,85513.9387720198,0.0013451493,0.0008780348
6006,10.1002/adma.201004200,80,1(a),324,Na0.007Pb0.993Se1,Na0.007Pb0.993Se1,639,0.0086014,0.000011718,0.00012562,1.5303,0.61966,85338.7950162144,0.001346679,0.0008800098
6006,10.1002/adma.201004200,80,1(a),324,Na0.007Pb0.993Se1,Na0.007Pb0.993Se1,639.5,0.0085865,0.000011742,0.00012582,1.5286,0.62085,85164.3672287515,0.0013482092,0.0008819895
6006,10.1002/adma.201004200,80,1(a),324,Na0.007Pb0.993Se1,Na0.007Pb0.993Se1,640,0.0085717,0.000011766,0.00012602,1.527,0.62204,84990.6510283869,0.00134974,0.0008839162
6006,10.1002/adma.201004200,80,1(a),324,Na0.007Pb0.993Se1,Na0.007Pb0.993Se1,640.5,0.0085569,0.00001179,0.00012622,1.5253,0.62322,84817.6420695505,0.0013512713,0.0008859053
6006,10.1002/adma.201004200,80,1(a),324,Na0.007Pb0.993Se1,Na0.007Pb0.993Se1,641,0.0085421,0.000011814,0.00012642,1.5237,0.62441,84645.3360419841,0.0013528031,0.0008878409
6006,10.1002/adma.201004200,80,1(a),324,Na0.007Pb0.993Se1,Na0.007Pb0.993Se1,641.5,0.0085272,0.000011838,0.00012662,1.522,0.6256,84473.7286703835,0.0013543356,0.0008898394
6006,10.1002/adma.201004200,80,1(a),324,Na0.007Pb0.993Se1,Na0.007Pb0.993Se1,642,0.0085124,0.000011862,0.00012682,1.5203,0.62679,84302.8157140449,0.0013558685,0.0008918427
6006,10.1002/adma.201004200,80,1(a),324,Na0.007Pb0.993Se1,Na0.007Pb0.993Se1,642.5,0.0084976,0.000011886,0.00012702,1.5187,0.62798,84132.5929665152,0.001357402,0.0008937921
6006,10.1002/adma.201004200,80,1(a),324,Na0.007Pb0.993Se1,Na0.007Pb0.993Se1,643,0.0084827,0.000011911,0.00012722,1.517,0.62917,83956.0070523046,0.001358822,0.0008957297
6006,10.1002/adma.201004200,80,1(a),324,Na0.007Pb0.993Se1,Na0.007Pb0.993Se1,643.5,0.0084679,0.000011935,0.00012743,1.5154,0.63035,83787.1805613741,0.0013605702,0.0008978291
6006,10.1002/adma.201004200,80,1(a),324,Na0.007Pb0.993Se1,Na0.007Pb0.993Se1,644,0.0084531,0.000011959,0.00012763,1.5137,0.63154,83619.031691613,0.0013621053,0.0008998515
6006,10.1002/adma.201004200,80,1(a),324,Na0.007Pb0.993Se1,Na0.007Pb0.993Se1,644.5,0.0084383,0.000011984,0.00012783,1.5121,0.63273,83444.5927903872,0.0013635271,0.000901744
6006,10.1002/adma.201004200,80,1(a),324,Na0.007Pb0.993Se1,Na0.007Pb0.993Se1,645,0.0084234,0.000012008,0.00012803,1.5105,0.63392,83277.8147901399,0.0013650634,0.0009037162
6006,10.1002/adma.201004200,80,1(a),324,Na0.007Pb0.993Se1,Na0.007Pb0.993Se1,645.5,0.0084086,0.000012033,0.00012823,1.5088,0.63511,83104.79514668,0.0013664866,0.0009056777
6006,10.1002/adma.201004200,80,1(a),324,Na0.007Pb0.993Se1,Na0.007Pb0.993Se1,646,0.0083938,0.000012058,0.00012844,1.5072,0.6363,82932.4929507381,0.0013681235,0.0009077253
6006,10.1002/adma.201004200,80,1(a),324,Na0.007Pb0.993Se1,Na0.007Pb0.993Se1,646.5,0.008379,0.000012083,0.00012864,1.5056,0.63748,82760.903749069,0.0013695481,0.0009096361
6006,10.1002/adma.201004200,80,1(a),324,Na0.007Pb0.993Se1,Na0.007Pb0.993Se1,647,0.0083641,0.000012107,0.00012884,1.5039,0.63867,82596.8448005286,0.0013710866,0.0009116874
6006,10.1002/adma.201004200,80,1(a),324,Na0.007Pb0.993Se1,Na0.007Pb0.993Se1,647.5,0.0083493,0.000012132,0.00012904,1.5023,0.63986,82426.6402901418,0.0013725125,0.0009136075
6006,10.1002/adma.201004200,80,1(a),324,Na0.007Pb0.993Se1,Na0.007Pb0.993Se1,648,0.0083345,0.000012157,0.00012924,1.5007,0.64105,82257.1358065312,0.0013739391,0.0009155321
6006,10.1002/adma.201004200,80,1(a),324,Na0.007Pb0.993Se1,Na0.007Pb0.993Se1,648.5,0.0083196,0.000012182,0.00012945,1.4991,0.64224,82088.3270398949,0.0013755789,0.0009176032
6006,10.1002/adma.201004200,80,1(a),324,Na0.007Pb0.993Se1,Na0.007Pb0.993Se1,649,0.0083048,0.000012207,0.00012965,1.4974,0.64343,81920.2097157369,0.0013770068,0.0009195985
6006,10.1002/adma.201004200,80,1(a),324,Na0.007Pb0.993Se1,Na0.007Pb0.993Se1,649.5,0.00829,0.000012232,0.00012985,1.4958,0.64461,81752.7795945062,0.0013784355,0.0009215373
6006,10.1002/adma.201004200,80,1(a),324,Na0.007Pb0.993Se1,Na0.007Pb0.993Se1,650,0.0082752,0.000012257,0.00013006,1.4942,0.6458,81586.0324712409,0.001380077,0.0009236227
6006,10.1002/adma.201004200,80,1(a),324,Na0.007Pb0.993Se1,Na0.007Pb0.993Se1,650.5,0.0082603,0.000012283,0.00013026,1.4926,0.64699,81413.3355043556,0.0013813944,0.0009254954
6006,10.1002/adma.201004200,80,1(a),324,Na0.007Pb0.993Se1,Na0.007Pb0.993Se1,651,0.0082455,0.000012308,0.00013046,1.491,0.64818,81247.96880078,0.0013828251,0.0009274481
6006,10.1002/adma.201004200,80,1(a),324,Na0.007Pb0.993Se1,Na0.007Pb0.993Se1,651.5,0.0082307,0.000012333,0.00013066,1.4894,0.64937,81083.2725208789,0.0013842565,0.0009294055
6006,10.1002/adma.201004200,80,1(a),324,Na0.007Pb0.993Se1,Na0.007Pb0.993Se1,652,0.0082158,0.000012359,0.00013087,1.4878,0.65056,80912.6952018772,0.0013857882,0.0009314345
6006,10.1002/adma.201004200,80,1(a),324,Na0.007Pb0.993Se1,Na0.007Pb0.993Se1,652.5,0.008201,0.000012384,0.00013107,1.4862,0.65174,80749.354005168,0.001387221,0.0009334013
6006,10.1002/adma.201004200,80,1(a),324,Na0.007Pb0.993Se1,Na0.007Pb0.993Se1,653,0.0081862,0.00001241,0.00013127,1.4846,0.65293,80580.17727639,0.0013885425,0.0009352974
6006,10.1002/adma.201004200,80,1(a),324,Na0.007Pb0.993Se1,Na0.007Pb0.993Se1,653.5,0.0081714,0.000012435,0.00013148,1.483,0.65412,80418.1745074387,0.0013901882,0.0009374162
6006,10.1002/adma.201004200,80,1(a),324,Na0.007Pb0.993Se1,Na0.007Pb0.993Se1,654,0.0081565,0.000012461,0.00013168,1.4814,0.65531,80250.3811893106,0.0013915113,0.0009393218
6006,10.1002/adma.201004200,80,1(a),324,Na0.007Pb0.993Se1,Na0.007Pb0.993Se1,654.5,0.0081417,0.000012487,0.00013189,1.4798,0.6565,80083.2866180828,0.0013930465,0.0009413749
6006,10.1002/adma.201004200,80,1(a),324,Na0.007Pb0.993Se1,Na0.007Pb0.993Se1,655,0.0081269,0.000012513,0.00013209,1.4782,0.65769,79916.8864381044,0.0013943713,0.00094329
6006,10.1002/adma.201004200,80,1(a),324,Na0.007Pb0.993Se1,Na0.007Pb0.993Se1,655.5,0.0081121,0.000012538,0.00013229,1.4766,0.65887,79757.5370872548,0.0013958083,0.0009452853
6006,10.1002/adma.201004200,80,1(a),324,Na0.007Pb0.993Se1,Na0.007Pb0.993Se1,656,0.0080972,0.000012564,0.0001325,1.475,0.66006,79592.4864692773,0.0013973456,0.0009473529
6006,10.1002/adma.201004200,80,1(a),324,Na0.007Pb0.993Se1,Na0.007Pb0.993Se1,656.5,0.0080824,0.00001259,0.0001327,1.4734,0.66125,79428.117553614,0.0013986728,0.0009492824
6006,10.1002/adma.201004200,80,1(a),324,Na0.007Pb0.993Se1,Na0.007Pb0.993Se1,657,0.0080676,0.000012616,0.00013291,1.4719,0.66244,79264.4261255548,0.0014002115,0.0009512953
6006,10.1002/adma.201004200,80,1(a),324,Na0.007Pb0.993Se1,Na0.007Pb0.993Se1,657.5,0.0080527,0.000012642,0.00013311,1.4703,0.66363,79101.4080050625,0.0014015403,0.0009532342
6006,10.1002/adma.201004200,80,1(a),324,Na0.007Pb0.993Se1,Na0.007Pb0.993Se1,658,0.0080379,0.000012669,0.00013332,1.4687,0.66482,78932.8281632331,0.0014029696,0.0009552459
6006,10.1002/adma.201004200,80,1(a),324,Na0.007Pb0.993Se1,Na0.007Pb0.993Se1,658.5,0.0080231,0.000012695,0.00013352,1.4671,0.666,78771.1697518708,0.0014043001,0.0009571946
6006,10.1002/adma.201004200,80,1(a),324,Na0.007Pb0.993Se1,Na0.007Pb0.993Se1,659,0.0080083,0.000012721,0.00013372,1.4656,0.66719,78610.172156277,0.0014056315,0.0009590826
6006,10.1002/adma.201004200,80,1(a),324,Na0.007Pb0.993Se1,Na0.007Pb0.993Se1,659.5,0.0079934,0.000012748,0.00013393,1.464,0.66838,78443.6774395984,0.0014070635,0.0009611089
6006,10.1002/adma.201004200,80,1(a),324,Na0.007Pb0.993Se1,Na0.007Pb0.993Se1,660,0.0079786,0.000012774,0.00013413,1.4624,0.66957,78284.0144042586,0.0014083965,0.000963072
6006,10.1002/adma.201004200,80,1(a),324,Na0.007Pb0.993Se1,Na0.007Pb0.993Se1,660.5,0.0079638,0.0000128,0.00013434,1.4609,0.67076,78125,0.0014099403,0.0009651176
6006,10.1002/adma.201004200,80,1(a),324,Na0.007Pb0.993Se1,Na0.007Pb0.993Se1,661,0.0079489,0.000012827,0.00013454,1.4593,0.67195,77960.5519607079,0.0014111649,0.0009670149
6006,10.1002/adma.201004200,80,1(a),324,Na0.007Pb0.993Se1,Na0.007Pb0.993Se1,661.5,0.0079341,0.000012854,0.00013475,1.4578,0.67313,77796.7947720554,0.0014126002,0.0009689945
6006,10.1002/adma.201004200,80,1(a),324,Na0.007Pb0.993Se1,Na0.007Pb0.993Se1,662,0.0079193,0.00001288,0.00013495,1.4562,0.67432,77639.751552795,0.0014139365,0.0009709769
6006,10.1002/adma.201004200,80,1(a),324,Na0.007Pb0.993Se1,Na0.007Pb0.993Se1,662.5,0.0079045,0.000012907,0.00013516,1.4546,0.67551,77477.3378786705,0.0014153735,0.0009730328
6006,10.1002/adma.201004200,80,1(a),324,Na0.007Pb0.993Se1,Na0.007Pb0.993Se1,663,0.0078896,0.000012934,0.00013537,1.4531,0.6767,77315.6022885418,0.0014168113,0.0009750267
6006,10.1002/adma.201004200,80,1(a),324,Na0.007Pb0.993Se1,Na0.007Pb0.993Se1,663.5,0.0078748,0.000012961,0.00013557,1.4516,0.67789,77154.5405447111,0.0014180407,0.0009768811
6006,10.1002/adma.201004200,80,1(a),324,Na0.007Pb0.993Se1,Na0.007Pb0.993Se1,664,0.00786,0.000012988,0.00013578,1.45,0.67908,76994.1484447182,0.0014194802,0.0009789518
6006,10.1002/adma.201004200,80,1(a),324,Na0.007Pb0.993Se1,Na0.007Pb0.993Se1,664.5,0.0078451,0.000013015,0.00013598,1.4485,0.68026,76834.4218209758,0.0014207115,0.0009808157
6006,10.1002/adma.201004200,80,1(a),324,Na0.007Pb0.993Se1,Na0.007Pb0.993Se1,665,0.0078303,0.000013042,0.00013619,1.4469,0.68145,76675.3565404079,0.0014221527,0.0009828964
6006,10.1002/adma.201004200,80,1(a),324,Na0.007Pb0.993Se1,Na0.007Pb0.993Se1,665.5,0.0078155,0.000013069,0.00013639,1.4454,0.68264,76516.9485040937,0.001423386,0.0009847696
6006,10.1002/adma.201004200,80,1(a),324,Na0.007Pb0.993Se1,Na0.007Pb0.993Se1,666,0.0078007,0.000013096,0.0001366,1.4439,0.68383,76359.1936469151,0.001424829,0.000986792
6006,10.1002/adma.201004200,80,1(a),324,Na0.007Pb0.993Se1,Na0.007Pb0.993Se1,666.5,0.0077858,0.000013123,0.0001368,1.4423,0.68502,76202.0879372095,0.0014260642,0.0009887431
6006,10.1002/adma.201004200,80,1(a),324,Na0.007Pb0.993Se1,Na0.007Pb0.993Se1,667,0.007771,0.000013151,0.00013701,1.4408,0.68621,76039.8448787165,0.0014274002,0.0009906998
6006,10.1002/adma.201004200,80,1(a),324,Na0.007Pb0.993Se1,Na0.007Pb0.993Se1,667.5,0.0077562,0.000013178,0.00013722,1.4393,0.68739,75884.0491728639,0.0014288457,0.0009927365
6006,10.1002/adma.201004200,80,1(a),324,Na0.007Pb0.993Se1,Na0.007Pb0.993Se1,668,0.0077414,0.000013206,0.00013742,1.4378,0.68858,75723.156141148,0.0014299755,0.000994558
6006,10.1002/adma.201004200,80,1(a),324,Na0.007Pb0.993Se1,Na0.007Pb0.993Se1,668.5,0.0077265,0.000013233,0.00013763,1.4362,0.68977,75568.6541222701,0.0014314227,0.0009966737
6006,10.1002/adma.201004200,80,1(a),324,Na0.007Pb0.993Se1,Na0.007Pb0.993Se1,669,0.0077117,0.000013261,0.00013784,1.4347,0.69096,75409.094336777,0.0014327627,0.0009986497
6006,10.1002/adma.201004200,80,1(a),324,Na0.007Pb0.993Se1,Na0.007Pb0.993Se1,669.5,0.0076969,0.000013289,0.00013804,1.4332,0.69215,75250.2069380691,0.0014338958,0.0010004855
6006,10.1002/adma.201004200,80,1(a),324,Na0.007Pb0.993Se1,Na0.007Pb0.993Se1,670,0.007682,0.000013316,0.00013825,1.4317,0.69334,75097.6269149895,0.0014353456,0.0010025464
6006,10.1002/adma.201004200,80,1(a),324,Na0.007Pb0.993Se1,Na0.007Pb0.993Se1,670.5,0.0076672,0.000013344,0.00013846,1.4302,0.69452,74940.0479616307,0.0014366885,0.0010045368
6006,10.1002/adma.201004200,80,1(a),324,Na0.007Pb0.993Se1,Na0.007Pb0.993Se1,671,0.0076524,0.000013372,0.00013866,1.4287,0.69571,74783.1289261143,0.001437825,0.0010063869
6006,10.1002/adma.201004200,80,1(a),324,Na0.007Pb0.993Se1,Na0.007Pb0.993Se1,671.5,0.0076376,0.0000134,0.00013887,1.4272,0.6969,74626.8656716418,0.0014391699,0.001008387
6006,10.1002/adma.201004200,80,1(a),324,Na0.007Pb0.993Se1,Na0.007Pb0.993Se1,672,0.0076227,0.000013428,0.00013908,1.4257,0.69809,74471.254095919,0.0014405158,0.001010392
6006,10.1002/adma.201004200,80,1(a),324,Na0.007Pb0.993Se1,Na0.007Pb0.993Se1,672.5,0.0076079,0.000013456,0.00013928,1.4242,0.69928,74316.2901307967,0.0014416556,0.0010122565
6006,10.1002/adma.201004200,80,1(a),324,Na0.007Pb0.993Se1,Na0.007Pb0.993Se1,673,0.0075931,0.000013484,0.00013949,1.4227,0.70047,74161.9697419163,0.0014430036,0.0010142712
6006,10.1002/adma.201004200,80,1(a),324,Na0.007Pb0.993Se1,Na0.007Pb0.993Se1,673.5,0.0075782,0.000013512,0.0001397,1.4212,0.70165,74008.28892836,0.0014443524,0.0010162908
6006,10.1002/adma.201004200,80,1(a),324,Na0.007Pb0.993Se1,Na0.007Pb0.993Se1,674,0.0075634,0.000013541,0.0001399,1.4197,0.70284,73849.7895280998,0.0014453888,0.0010180945
6006,10.1002/adma.201004200,80,1(a),324,Na0.007Pb0.993Se1,Na0.007Pb0.993Se1,674.5,0.0075486,0.000013569,0.00014011,1.4182,0.70403,73697.3984818336,0.0014467398,0.0010201239
6006,10.1002/adma.201004200,80,1(a),324,Na0.007Pb0.993Se1,Na0.007Pb0.993Se1,675,0.0075338,0.000013597,0.00014032,1.4167,0.70522,73545.6350665588,0.0014480917,0.0010221583
6006,10.1002/adma.201004200,80,1(a),324,Na0.007Pb0.993Se1,Na0.007Pb0.993Se1,675.5,0.0075189,0.000013626,0.00014052,1.4152,0.70641,73389.1090562161,0.0014491318,0.0010239767
6006,10.1002/adma.201004200,80,1(a),324,Na0.007Pb0.993Se1,Na0.007Pb0.993Se1,676,0.0075041,0.000013654,0.00014073,1.4138,0.7076,73238.6113959279,0.0014504858,0.0010259484
6006,10.1002/adma.201004200,80,1(a),324,Na0.007Pb0.993Se1,Na0.007Pb0.993Se1,676.5,0.0074893,0.000013683,0.00014094,1.4123,0.70878,73083.3881458744,0.0014517345,0.0010279222
6006,10.1002/adma.201004200,80,1(a),324,Na0.007Pb0.993Se1,Na0.007Pb0.993Se1,677,0.0074745,0.000013712,0.00014115,1.4108,0.70997,72928.821470245,0.0014529844,0.0010299011
6006,10.1002/adma.201004200,80,1(a),324,Na0.007Pb0.993Se1,Na0.007Pb0.993Se1,677.5,0.0074596,0.000013741,0.00014135,1.4093,0.71116,72774.9072119933,0.0014540297,0.001031739
6006,10.1002/adma.201004200,80,1(a),324,Na0.007Pb0.993Se1,Na0.007Pb0.993Se1,678,0.0074448,0.000013769,0.00014156,1.4079,0.71235,72626.9155348972,0.0014553877,0.0010337295
6006,10.1002/adma.201004200,80,1(a),324,Na0.007Pb0.993Se1,Na0.007Pb0.993Se1,678.5,0.00743,0.000013798,0.00014177,1.4064,0.71354,72474.2716335701,0.001456641,0.0010357231
6006,10.1002/adma.201004200,80,1(a),324,Na0.007Pb0.993Se1,Na0.007Pb0.993Se1,679,0.0074151,0.000013827,0.00014198,1.4049,0.71473,72322.2680263253,0.0014578955,0.0010377219
6006,10.1002/adma.201004200,80,1(a),324,Na0.007Pb0.993Se1,Na0.007Pb0.993Se1,679.5,0.0074003,0.000013856,0.00014218,1.4035,0.71591,72170.9006928406,0.0014589458,0.0010395053
6006,10.1002/adma.201004200,80,1(a),324,Na0.007Pb0.993Se1,Na0.007Pb0.993Se1,680,0.0073855,0.000013885,0.00014239,1.402,0.7171,72020.165646381,0.0014602025,0.0010415139
6006,10.1002/adma.201004200,80,1(a),324,Na0.007Pb0.993Se1,Na0.007Pb0.993Se1,680.5,0.0073707,0.000013915,0.0001426,1.4006,0.71829,71864.8939992814,0.0014613554,0.0010433781
6006,10.1002/adma.201004200,80,1(a),324,Na0.007Pb0.993Se1,Na0.007Pb0.993Se1,681,0.0073558,0.000013944,0.00014281,1.3991,0.71948,71715.4331612163,0.0014626145,0.0010453967
6006,10.1002/adma.201004200,80,1(a),324,Na0.007Pb0.993Se1,Na0.007Pb0.993Se1,681.5,0.007341,0.000013973,0.00014302,1.3977,0.72067,71566.5927145209,0.0014638746,0.0010473454
6006,10.1002/adma.201004200,80,1(a),324,Na0.007Pb0.993Se1,Na0.007Pb0.993Se1,682,0.0073262,0.000014002,0.00014322,1.3962,0.72186,71418.3688044565,0.0014649313,0.0010492274
6006,10.1002/adma.201004200,80,1(a),324,Na0.007Pb0.993Se1,Na0.007Pb0.993Se1,682.5,0.0073113,0.000014032,0.00014343,1.3948,0.72304,71265.6784492588,0.0014660893,0.0010511108
6006,10.1002/adma.201004200,80,1(a),324,Na0.007Pb0.993Se1,Na0.007Pb0.993Se1,683,0.0072965,0.000014061,0.00014364,1.3933,0.72423,71118.697105469,0.0014673529,0.0010531493
6006,10.1002/adma.201004200,80,1(a),324,Na0.007Pb0.993Se1,Na0.007Pb0.993Se1,683.5,0.0072817,0.000014091,0.00014385,1.3919,0.72542,70967.2840820382,0.0014685134,0.0010550423
6006,10.1002/adma.201004200,80,1(a),324,Na0.007Pb0.993Se1,Na0.007Pb0.993Se1,684,0.0072669,0.000014121,0.00014406,1.3905,0.72661,70816.5144111607,0.0014696752,0.0010569401
6006,10.1002/adma.201004200,80,1(a),324,Na0.007Pb0.993Se1,Na0.007Pb0.993Se1,684.5,0.007252,0.00001415,0.00014426,1.389,0.7278,70671.3780918728,0.0014707383,0.0010588469
6006,10.1002/adma.201004200,80,1(a),324,Na0.007Pb0.993Se1,Na0.007Pb0.993Se1,685,0.0072372,0.00001418,0.00014447,1.3876,0.72899,70521.8617771509,0.0014719027,0.0010607544
6006,10.1002/adma.201004200,80,1(a),324,Na0.007Pb0.993Se1,Na0.007Pb0.993Se1,685.5,0.0072224,0.00001421,0.00014468,1.3862,0.73017,70372.9767769177,0.0014730684,0.0010626666
6006,10.1002/adma.201004200,80,1(a),324,Na0.007Pb0.993Se1,Na0.007Pb0.993Se1,686,0.0072075,0.00001424,0.00014489,1.3848,0.73136,70224.7191011236,0.0014742354,0.0010645836
6006,10.1002/adma.201004200,80,1(a),324,Na0.007Pb0.993Se1,Na0.007Pb0.993Se1,686.5,0.0071927,0.00001427,0.0001451,1.3833,0.73255,70077.0847932726,0.0014754036,0.0010665826
6006,10.1002/adma.201004200,80,1(a),324,Na0.007Pb0.993Se1,Na0.007Pb0.993Se1,687,0.0071779,0.0000143,0.00014531,1.3819,0.73374,69930.0699300699,0.0014765732,0.0010685094
6006,10.1002/adma.201004200,80,1(a),324,Na0.007Pb0.993Se1,Na0.007Pb0.993Se1,687.5,0.0071631,0.00001433,0.00014551,1.3805,0.73493,69783.6706210747,0.0014775408,0.001070294
6006,10.1002/adma.201004200,80,1(a),324,Na0.007Pb0.993Se1,Na0.007Pb0.993Se1,688,0.0071482,0.000014361,0.00014572,1.3791,0.73612,69633.0339112875,0.00147861,0.0010721558
6006,10.1002/adma.201004200,80,1(a),324,Na0.007Pb0.993Se1,Na0.007Pb0.993Se1,688.5,0.0071334,0.000014391,0.00014593,1.3777,0.7373,69487.8743659231,0.0014797835,0.0010740971
6006,10.1002/adma.201004200,80,1(a),324,Na0.007Pb0.993Se1,Na0.007Pb0.993Se1,689,0.0071186,0.000014421,0.00014614,1.3763,0.73849,69343.3187712364,0.0014809583,0.0010760432
6006,10.1002/adma.201004200,80,1(a),324,Na0.007Pb0.993Se1,Na0.007Pb0.993Se1,689.5,0.0071038,0.000014452,0.00014635,1.3749,0.73968,69194.5751453086,0.0014820317,0.0010779196
6006,10.1002/adma.201004200,80,1(a),324,Na0.007Pb0.993Se1,Na0.007Pb0.993Se1,690,0.0070889,0.000014482,0.00014656,1.3735,0.74087,69051.2360171247,0.0014832091,0.0010798755
6006,10.1002/adma.201004200,80,1(a),324,Na0.007Pb0.993Se1,Na0.007Pb0.993Se1,690.5,0.0070741,0.000014513,0.00014677,1.3721,0.74206,68903.741473162,0.0014842853,0.0010817618
6006,10.1002/adma.201004200,80,1(a),324,Na0.007Pb0.993Se1,Na0.007Pb0.993Se1,691,0.0070593,0.000014543,0.00014697,1.3707,0.74325,68761.6035205941,0.0014852631,0.00108358
6006,10.1002/adma.201004200,80,1(a),324,Na0.007Pb0.993Se1,Na0.007Pb0.993Se1,691.5,0.0070444,0.000014574,0.00014718,1.3693,0.74443,68615.3423905585,0.0014863423,0.001085476
6006,10.1002/adma.201004200,80,1(a),324,Na0.007Pb0.993Se1,Na0.007Pb0.993Se1,692,0.0070296,0.000014605,0.00014739,1.3679,0.74562,68469.7021567956,0.0014874229,0.001087377
6006,10.1002/adma.201004200,80,1(a),324,Na0.007Pb0.993Se1,Na0.007Pb0.993Se1,692.5,0.0070148,0.000014636,0.0001476,1.3665,0.74681,68324.6788740093,0.0014885051,0.0010892829
6006,10.1002/adma.201004200,80,1(a),324,Na0.007Pb0.993Se1,Na0.007Pb0.993Se1,693,0.007,0.000014667,0.00014781,1.3651,0.748,68180.2686302584,0.0014895886,0.0010911938
6006,10.1002/adma.201004200,80,1(a),324,Na0.007Pb0.993Se1,Na0.007Pb0.993Se1,693.5,0.0069851,0.000014698,0.00014802,1.3638,0.74919,68036.467546605,0.0014906736,0.0010930295
6006,10.1002/adma.201004200,80,1(a),324,Na0.007Pb0.993Se1,Na0.007Pb0.993Se1,694,0.0069703,0.000014729,0.00014823,1.3624,0.75038,67893.2717767669,0.00149176,0.0010949501