sid,DOI,figureid,fignum,sampleid,samplename,composition,Temperature,Carrier mobility,Electrical resistivity,Seebeck coefficient,Thermal conductivity,ZT,Electrical conductivity,Power factor,Figure of merit Z
6006,10.1002/adma.201004200,80,1(a),367,Pb1Se1,Pb1Se1,584,,,0.000093918,1.1802,,,,
6006,10.1002/adma.201004200,80,1(a),367,Pb1Se1,Pb1Se1,584.5,,,0.000093337,1.1803,,,,
6006,10.1002/adma.201004200,80,1(a),367,Pb1Se1,Pb1Se1,585,,,0.000092758,1.1805,,,,
6006,10.1002/adma.201004200,80,1(a),367,Pb1Se1,Pb1Se1,585.5,,,0.00009218,1.1806,,,,
6006,10.1002/adma.201004200,80,1(a),367,Pb1Se1,Pb1Se1,586,,,0.000091603,1.1808,,,,
6006,10.1002/adma.201004200,80,1(a),367,Pb1Se1,Pb1Se1,586.5,,,0.000091027,1.181,,,,
6006,10.1002/adma.201004200,80,1(a),367,Pb1Se1,Pb1Se1,587,,,0.000090453,1.1811,,,,
6006,10.1002/adma.201004200,80,1(a),367,Pb1Se1,Pb1Se1,587.5,,,0.00008988,1.1813,,,,
6006,10.1002/adma.201004200,80,1(a),367,Pb1Se1,Pb1Se1,588,,,0.000089308,1.1815,,,,
6006,10.1002/adma.201004200,80,1(a),367,Pb1Se1,Pb1Se1,588.5,,,0.000088737,1.1816,,,,
6006,10.1002/adma.201004200,80,1(a),367,Pb1Se1,Pb1Se1,589,,,0.000088168,1.1818,,,,
6006,10.1002/adma.201004200,80,1(a),367,Pb1Se1,Pb1Se1,589.5,,,0.0000876,1.182,,,,
6006,10.1002/adma.201004200,80,1(a),367,Pb1Se1,Pb1Se1,590,,,0.000087034,1.1821,,,,
6006,10.1002/adma.201004200,80,1(a),367,Pb1Se1,Pb1Se1,590.5,,,0.000086469,1.1823,,,,
6006,10.1002/adma.201004200,80,1(a),367,Pb1Se1,Pb1Se1,591,,,0.000085905,1.1825,,,,
6006,10.1002/adma.201004200,80,1(a),367,Pb1Se1,Pb1Se1,591.5,,,0.000085343,1.1826,,,,
6006,10.1002/adma.201004200,80,1(a),367,Pb1Se1,Pb1Se1,592,,,0.000084782,1.1828,,,,
6006,10.1002/adma.201004200,80,1(a),367,Pb1Se1,Pb1Se1,592.5,,,0.000084222,1.183,,,,
6006,10.1002/adma.201004200,80,1(a),367,Pb1Se1,Pb1Se1,593,,,0.000083664,1.1832,,,,
6006,10.1002/adma.201004200,80,1(a),367,Pb1Se1,Pb1Se1,593.5,,,0.000083108,1.1833,,,,
6006,10.1002/adma.201004200,80,1(a),367,Pb1Se1,Pb1Se1,594,,,0.000082553,1.1835,,,,
6006,10.1002/adma.201004200,80,1(a),367,Pb1Se1,Pb1Se1,594.5,,,0.000082,1.1837,,,,
6006,10.1002/adma.201004200,80,1(a),367,Pb1Se1,Pb1Se1,595,,,0.000081448,1.1839,,,,
6006,10.1002/adma.201004200,80,1(a),367,Pb1Se1,Pb1Se1,595.5,,,0.000080897,1.184,,,,
6006,10.1002/adma.201004200,80,1(a),367,Pb1Se1,Pb1Se1,596,,,0.000080349,1.1842,,,,
6006,10.1002/adma.201004200,80,1(a),367,Pb1Se1,Pb1Se1,596.5,,,0.000079802,1.1844,,,,
6006,10.1002/adma.201004200,80,1(a),367,Pb1Se1,Pb1Se1,597,,,0.000079256,1.1846,,,,
6006,10.1002/adma.201004200,80,1(a),367,Pb1Se1,Pb1Se1,597.5,,,0.000078712,1.1848,,,,
6006,10.1002/adma.201004200,80,1(a),367,Pb1Se1,Pb1Se1,598,,,0.00007817,1.1849,,,,
6006,10.1002/adma.201004200,80,1(a),367,Pb1Se1,Pb1Se1,598.5,,,0.000077629,1.1851,,,,
6006,10.1002/adma.201004200,80,1(a),367,Pb1Se1,Pb1Se1,599,,,0.000077091,1.1853,,,,
6006,10.1002/adma.201004200,80,1(a),367,Pb1Se1,Pb1Se1,599.5,,,0.000076553,1.1855,,,,
6006,10.1002/adma.201004200,80,1(a),367,Pb1Se1,Pb1Se1,600,,,0.000076018,1.1857,,,,
6006,10.1002/adma.201004200,80,1(a),367,Pb1Se1,Pb1Se1,600.5,,,0.000075484,1.1859,,,,
6006,10.1002/adma.201004200,80,1(a),367,Pb1Se1,Pb1Se1,601,,,0.000074952,1.1861,,,,
6006,10.1002/adma.201004200,80,1(a),367,Pb1Se1,Pb1Se1,601.5,,,0.000074422,1.1862,,,,
6006,10.1002/adma.201004200,80,1(a),367,Pb1Se1,Pb1Se1,602,,,0.000073894,1.1864,,,,
6006,10.1002/adma.201004200,80,1(a),367,Pb1Se1,Pb1Se1,602.5,,,0.000073367,1.1866,,,,
6006,10.1002/adma.201004200,80,1(a),367,Pb1Se1,Pb1Se1,603,,,0.000072842,1.1868,,,,
6006,10.1002/adma.201004200,80,1(a),367,Pb1Se1,Pb1Se1,603.5,,,0.000072319,1.187,,,,
6006,10.1002/adma.201004200,80,1(a),367,Pb1Se1,Pb1Se1,604,,,0.000071798,1.1872,,,,
6006,10.1002/adma.201004200,80,1(a),367,Pb1Se1,Pb1Se1,604.5,,,0.000071279,1.1874,,,,
6006,10.1002/adma.201004200,80,1(a),367,Pb1Se1,Pb1Se1,605,,,0.000070762,1.1876,,,,
6006,10.1002/adma.201004200,80,1(a),367,Pb1Se1,Pb1Se1,605.5,,,0.000070246,1.1878,,,,
6006,10.1002/adma.201004200,80,1(a),367,Pb1Se1,Pb1Se1,606,,,0.000069733,1.188,,,,
6006,10.1002/adma.201004200,80,1(a),367,Pb1Se1,Pb1Se1,606.5,,,0.000069221,1.1882,,,,
6006,10.1002/adma.201004200,80,1(a),367,Pb1Se1,Pb1Se1,607,,,0.000068712,1.1884,,,,
6006,10.1002/adma.201004200,80,1(a),367,Pb1Se1,Pb1Se1,607.5,,,0.000068204,1.1886,,,,
6006,10.1002/adma.201004200,80,1(a),367,Pb1Se1,Pb1Se1,608,,,0.000067698,1.1887,,,,
6006,10.1002/adma.201004200,80,1(a),367,Pb1Se1,Pb1Se1,608.5,,,0.000067194,1.1889,,,,
6006,10.1002/adma.201004200,80,1(a),367,Pb1Se1,Pb1Se1,609,,,0.000066693,1.1891,,,,
6006,10.1002/adma.201004200,80,1(a),367,Pb1Se1,Pb1Se1,609.5,,,0.000066193,1.1893,,,,
6006,10.1002/adma.201004200,80,1(a),367,Pb1Se1,Pb1Se1,610,,,0.000065695,1.1895,,,,
6006,10.1002/adma.201004200,80,1(a),367,Pb1Se1,Pb1Se1,610.5,,,0.0000652,1.1897,,,,
6006,10.1002/adma.201004200,80,1(a),367,Pb1Se1,Pb1Se1,611,,,0.000064706,1.1899,,,,
6006,10.1002/adma.201004200,80,1(a),367,Pb1Se1,Pb1Se1,611.5,,,0.000064215,1.1901,,,,
6006,10.1002/adma.201004200,80,1(a),367,Pb1Se1,Pb1Se1,612,,,0.000063726,1.1904,,,,
6006,10.1002/adma.201004200,80,1(a),367,Pb1Se1,Pb1Se1,612.5,,,0.000063239,1.1906,,,,
6006,10.1002/adma.201004200,80,1(a),367,Pb1Se1,Pb1Se1,613,,,0.000062754,1.1908,,,,
6006,10.1002/adma.201004200,80,1(a),367,Pb1Se1,Pb1Se1,613.5,,,0.000062271,1.191,,,,
6006,10.1002/adma.201004200,80,1(a),367,Pb1Se1,Pb1Se1,614,,,0.00006179,1.1912,,,,
6006,10.1002/adma.201004200,80,1(a),367,Pb1Se1,Pb1Se1,614.5,,,0.000061312,1.1914,,,,
6006,10.1002/adma.201004200,80,1(a),367,Pb1Se1,Pb1Se1,615,,,0.000060835,1.1916,,,,
6006,10.1002/adma.201004200,80,1(a),367,Pb1Se1,Pb1Se1,615.5,,,0.000060361,1.1918,,,,
6006,10.1002/adma.201004200,80,1(a),367,Pb1Se1,Pb1Se1,616,,,0.000059889,1.192,,,,
6006,10.1002/adma.201004200,80,1(a),367,Pb1Se1,Pb1Se1,616.5,,,0.00005942,1.1922,,,,
6006,10.1002/adma.201004200,80,1(a),367,Pb1Se1,Pb1Se1,617,,,0.000058952,1.1924,,,,
6006,10.1002/adma.201004200,80,1(a),367,Pb1Se1,Pb1Se1,617.5,,,0.000058487,1.1926,,,,
6006,10.1002/adma.201004200,80,1(a),367,Pb1Se1,Pb1Se1,618,,,0.000058024,1.1928,,,,
6006,10.1002/adma.201004200,80,1(a),367,Pb1Se1,Pb1Se1,618.5,,,0.000057564,1.1931,,,,
6006,10.1002/adma.201004200,80,1(a),367,Pb1Se1,Pb1Se1,619,,,0.000057105,1.1933,,,,
6006,10.1002/adma.201004200,80,1(a),367,Pb1Se1,Pb1Se1,619.5,,,0.000056649,1.1935,,,,
6006,10.1002/adma.201004200,80,1(a),367,Pb1Se1,Pb1Se1,620,,,0.000056196,1.1937,,,,
6006,10.1002/adma.201004200,80,1(a),367,Pb1Se1,Pb1Se1,620.5,,,0.000055745,1.1939,,,,
6006,10.1002/adma.201004200,80,1(a),367,Pb1Se1,Pb1Se1,621,,,0.000055296,1.1941,,,,
6006,10.1002/adma.201004200,80,1(a),367,Pb1Se1,Pb1Se1,621.5,,,0.000054849,1.1943,,,,
6006,10.1002/adma.201004200,80,1(a),367,Pb1Se1,Pb1Se1,622,,,0.000054405,1.1946,,,,
6006,10.1002/adma.201004200,80,1(a),367,Pb1Se1,Pb1Se1,622.5,,,0.000053964,1.1948,,,,
6006,10.1002/adma.201004200,80,1(a),367,Pb1Se1,Pb1Se1,623,,,0.000053524,1.195,,,,
6006,10.1002/adma.201004200,80,1(a),367,Pb1Se1,Pb1Se1,623.5,,,0.000053088,1.1952,,,,
6006,10.1002/adma.201004200,80,1(a),367,Pb1Se1,Pb1Se1,624,,,0.000052653,1.1954,,,,
6006,10.1002/adma.201004200,80,1(a),367,Pb1Se1,Pb1Se1,624.5,,,0.000052221,1.1957,,,,
6006,10.1002/adma.201004200,80,1(a),367,Pb1Se1,Pb1Se1,625,,,0.000051792,1.1959,,,,
6006,10.1002/adma.201004200,80,1(a),367,Pb1Se1,Pb1Se1,625.5,,,0.000051365,1.1961,,,,
6006,10.1002/adma.201004200,80,1(a),367,Pb1Se1,Pb1Se1,626,,,0.00005094,1.1963,,,,
6006,10.1002/adma.201004200,80,1(a),367,Pb1Se1,Pb1Se1,626.5,,,0.000050519,1.1966,,,,
6006,10.1002/adma.201004200,80,1(a),367,Pb1Se1,Pb1Se1,627,,,0.000050099,1.1968,,,,
6006,10.1002/adma.201004200,80,1(a),367,Pb1Se1,Pb1Se1,627.5,,,0.000049682,1.197,,,,
6006,10.1002/adma.201004200,80,1(a),367,Pb1Se1,Pb1Se1,628,,,0.000049268,1.1972,,,,
6006,10.1002/adma.201004200,80,1(a),367,Pb1Se1,Pb1Se1,628.5,,,0.000048856,1.1975,,,,
6006,10.1002/adma.201004200,80,1(a),367,Pb1Se1,Pb1Se1,629,,,0.000048447,1.1977,,,,
6006,10.1002/adma.201004200,80,1(a),367,Pb1Se1,Pb1Se1,629.5,,,0.00004804,1.1979,,,,
6006,10.1002/adma.201004200,80,1(a),367,Pb1Se1,Pb1Se1,630,,,0.000047636,1.1981,,,,
6006,10.1002/adma.201004200,80,1(a),367,Pb1Se1,Pb1Se1,630.5,,,0.000047235,1.1984,,,,
6006,10.1002/adma.201004200,80,1(a),367,Pb1Se1,Pb1Se1,631,,,0.000046836,1.1986,,,,
6006,10.1002/adma.201004200,80,1(a),367,Pb1Se1,Pb1Se1,631.5,,,0.00004644,1.1988,,,,
6006,10.1002/adma.201004200,80,1(a),367,Pb1Se1,Pb1Se1,632,,,0.000046046,1.1991,,,,
6006,10.1002/adma.201004200,80,1(a),367,Pb1Se1,Pb1Se1,632.5,,,0.000045656,1.1993,,,,
6006,10.1002/adma.201004200,80,1(a),367,Pb1Se1,Pb1Se1,633,,,0.000045267,1.1995,,,,
6006,10.1002/adma.201004200,80,1(a),367,Pb1Se1,Pb1Se1,633.5,,,0.000044882,1.1998,,,,
6006,10.1002/adma.201004200,80,1(a),367,Pb1Se1,Pb1Se1,634,,,0.000044499,1.2,,,,
6006,10.1002/adma.201004200,80,1(a),367,Pb1Se1,Pb1Se1,634.5,,,0.000044119,1.2002,,,,
6006,10.1002/adma.201004200,80,1(a),367,Pb1Se1,Pb1Se1,635,,,0.000043741,1.2005,,,,
6006,10.1002/adma.201004200,80,1(a),367,Pb1Se1,Pb1Se1,635.5,,,0.000043367,1.2007,,,,
6006,10.1002/adma.201004200,80,1(a),367,Pb1Se1,Pb1Se1,636,,,0.000042995,1.2009,,,,
6006,10.1002/adma.201004200,80,1(a),367,Pb1Se1,Pb1Se1,636.5,,,0.000042625,1.2012,,,,
6006,10.1002/adma.201004200,80,1(a),367,Pb1Se1,Pb1Se1,637,,,0.000042259,1.2014,,,,
6006,10.1002/adma.201004200,80,1(a),367,Pb1Se1,Pb1Se1,637.5,,,0.000041895,1.2016,,,,
6006,10.1002/adma.201004200,80,1(a),367,Pb1Se1,Pb1Se1,638,,,0.000041534,1.2019,,,,
6006,10.1002/adma.201004200,80,1(a),367,Pb1Se1,Pb1Se1,638.5,,,0.000041176,1.2021,,,,
6006,10.1002/adma.201004200,80,1(a),367,Pb1Se1,Pb1Se1,639,,,0.00004082,1.2024,,,,
6006,10.1002/adma.201004200,80,1(a),367,Pb1Se1,Pb1Se1,639.5,,,0.000040468,1.2026,,,,
6006,10.1002/adma.201004200,80,1(a),367,Pb1Se1,Pb1Se1,640,,,0.000040118,1.2028,,,,
6006,10.1002/adma.201004200,80,1(a),367,Pb1Se1,Pb1Se1,640.5,,,0.000039771,1.2031,,,,
6006,10.1002/adma.201004200,80,1(a),367,Pb1Se1,Pb1Se1,641,,,0.000039427,1.2033,,,,
6006,10.1002/adma.201004200,80,1(a),367,Pb1Se1,Pb1Se1,641.5,,,0.000039086,1.2036,,,,
6006,10.1002/adma.201004200,80,1(a),367,Pb1Se1,Pb1Se1,642,,,0.000038747,1.2038,,,,
6006,10.1002/adma.201004200,80,1(a),367,Pb1Se1,Pb1Se1,642.5,,,0.000038411,1.2041,,,,
6006,10.1002/adma.201004200,80,1(a),367,Pb1Se1,Pb1Se1,643,,,0.000038079,1.2043,,,,
6006,10.1002/adma.201004200,80,1(a),367,Pb1Se1,Pb1Se1,643.5,,,0.000037749,1.2046,,,,
6006,10.1002/adma.201004200,80,1(a),367,Pb1Se1,Pb1Se1,644,,,0.000037422,1.2048,,,,
6006,10.1002/adma.201004200,80,1(a),367,Pb1Se1,Pb1Se1,644.5,,,0.000037097,1.2051,,,,
6006,10.1002/adma.201004200,80,1(a),367,Pb1Se1,Pb1Se1,645,,,0.000036776,1.2053,,,,
6006,10.1002/adma.201004200,80,1(a),367,Pb1Se1,Pb1Se1,645.5,,,0.000036458,1.2056,,,,
6006,10.1002/adma.201004200,80,1(a),367,Pb1Se1,Pb1Se1,646,,,0.000036142,1.2058,,,,
6006,10.1002/adma.201004200,80,1(a),367,Pb1Se1,Pb1Se1,646.5,,,0.00003583,1.2061,,,,
6006,10.1002/adma.201004200,80,1(a),367,Pb1Se1,Pb1Se1,647,,,0.00003552,1.2063,,,,
6006,10.1002/adma.201004200,80,1(a),367,Pb1Se1,Pb1Se1,647.5,,,0.000035214,1.2066,,,,
6006,10.1002/adma.201004200,80,1(a),367,Pb1Se1,Pb1Se1,648,,,0.00003491,1.2068,,,,
6006,10.1002/adma.201004200,80,1(a),367,Pb1Se1,Pb1Se1,648.5,,,0.000034609,1.2071,,,,
6006,10.1002/adma.201004200,80,1(a),367,Pb1Se1,Pb1Se1,649,,,0.000034311,1.2073,,,,
6006,10.1002/adma.201004200,80,1(a),367,Pb1Se1,Pb1Se1,649.5,,,0.000034016,1.2076,,,,
6006,10.1002/adma.201004200,80,1(a),367,Pb1Se1,Pb1Se1,650,,,0.000033724,1.2078,,,,
6006,10.1002/adma.201004200,80,1(a),367,Pb1Se1,Pb1Se1,650.5,,,0.000033435,1.2081,,,,
6006,10.1002/adma.201004200,80,1(a),367,Pb1Se1,Pb1Se1,651,,,0.000033149,1.2083,,,,
6006,10.1002/adma.201004200,80,1(a),367,Pb1Se1,Pb1Se1,651.5,,,0.000032866,1.2086,,,,
6006,10.1002/adma.201004200,80,1(a),367,Pb1Se1,Pb1Se1,652,,,0.000032586,1.2088,,,,
6006,10.1002/adma.201004200,80,1(a),367,Pb1Se1,Pb1Se1,652.5,,,0.000032309,1.2091,,,,
6006,10.1002/adma.201004200,80,1(a),367,Pb1Se1,Pb1Se1,653,,,0.000032035,1.2094,,,,
6006,10.1002/adma.201004200,80,1(a),367,Pb1Se1,Pb1Se1,653.5,,,0.000031764,1.2096,,,,
6006,10.1002/adma.201004200,80,1(a),367,Pb1Se1,Pb1Se1,654,,,0.000031496,1.2099,,,,
6006,10.1002/adma.201004200,80,1(a),367,Pb1Se1,Pb1Se1,654.5,,,0.000031231,1.2101,,,,
6006,10.1002/adma.201004200,80,1(a),367,Pb1Se1,Pb1Se1,655,,,0.000030969,1.2104,,,,
6006,10.1002/adma.201004200,80,1(a),367,Pb1Se1,Pb1Se1,655.5,,,0.00003071,1.2107,,,,
6006,10.1002/adma.201004200,80,1(a),367,Pb1Se1,Pb1Se1,656,,,0.000030455,1.2109,,,,
6006,10.1002/adma.201004200,80,1(a),367,Pb1Se1,Pb1Se1,656.5,,,0.000030202,1.2112,,,,
6006,10.1002/adma.201004200,80,1(a),367,Pb1Se1,Pb1Se1,657,,,0.000029952,1.2115,,,,
6006,10.1002/adma.201004200,80,1(a),367,Pb1Se1,Pb1Se1,657.5,,,0.000029705,1.2117,,,,
6006,10.1002/adma.201004200,80,1(a),367,Pb1Se1,Pb1Se1,658,,,0.000029461,1.212,,,,
6006,10.1002/adma.201004200,80,1(a),367,Pb1Se1,Pb1Se1,658.5,,,0.000029221,1.2122,,,,
6006,10.1002/adma.201004200,80,1(a),367,Pb1Se1,Pb1Se1,659,,,0.000028983,1.2125,,,,
6006,10.1002/adma.201004200,80,1(a),367,Pb1Se1,Pb1Se1,659.5,,,0.000028749,1.2128,,,,
6006,10.1002/adma.201004200,80,1(a),367,Pb1Se1,Pb1Se1,660,,,0.000028517,1.213,,,,
6006,10.1002/adma.201004200,80,1(a),367,Pb1Se1,Pb1Se1,660.5,,,0.000028289,1.2133,,,,
6006,10.1002/adma.201004200,80,1(a),367,Pb1Se1,Pb1Se1,661,,,0.000028063,1.2136,,,,
6006,10.1002/adma.201004200,80,1(a),367,Pb1Se1,Pb1Se1,661.5,,,0.000027841,1.2139,,,,
6006,10.1002/adma.201004200,80,1(a),367,Pb1Se1,Pb1Se1,662,,,0.000027622,1.2141,,,,
6006,10.1002/adma.201004200,80,1(a),367,Pb1Se1,Pb1Se1,662.5,,,0.000027406,1.2144,,,,
6006,10.1002/adma.201004200,80,1(a),367,Pb1Se1,Pb1Se1,663,,,0.000027193,1.2147,,,,
6006,10.1002/adma.201004200,80,1(a),367,Pb1Se1,Pb1Se1,663.5,,,0.000026983,1.2149,,,,
6006,10.1002/adma.201004200,80,1(a),367,Pb1Se1,Pb1Se1,664,,,0.000026776,1.2152,,,,
6006,10.1002/adma.201004200,80,1(a),367,Pb1Se1,Pb1Se1,664.5,,,0.000026572,1.2155,,,,
6006,10.1002/adma.201004200,80,1(a),367,Pb1Se1,Pb1Se1,665,,,0.000026372,1.2158,,,,
6006,10.1002/adma.201004200,80,1(a),367,Pb1Se1,Pb1Se1,665.5,,,0.000026174,1.216,,,,
6006,10.1002/adma.201004200,80,1(a),367,Pb1Se1,Pb1Se1,666,,,0.00002598,1.2163,,,,
6006,10.1002/adma.201004200,80,1(a),367,Pb1Se1,Pb1Se1,666.5,,,0.000025788,1.2166,,,,
6006,10.1002/adma.201004200,80,1(a),367,Pb1Se1,Pb1Se1,667,,,0.0000256,1.2168,,,,
6006,10.1002/adma.201004200,80,1(a),367,Pb1Se1,Pb1Se1,667.5,,,0.000025415,1.2171,,,,
6006,10.1002/adma.201004200,80,1(a),367,Pb1Se1,Pb1Se1,668,,,0.000025233,1.2174,,,,
6006,10.1002/adma.201004200,80,1(a),367,Pb1Se1,Pb1Se1,668.5,,,0.000025054,1.2177,,,,
6006,10.1002/adma.201004200,80,1(a),367,Pb1Se1,Pb1Se1,669,,,0.000024878,1.218,,,,
6006,10.1002/adma.201004200,80,1(a),367,Pb1Se1,Pb1Se1,669.5,,,0.000024705,1.2182,,,,
6006,10.1002/adma.201004200,80,1(a),367,Pb1Se1,Pb1Se1,670,,,0.000024535,1.2185,,,,
6006,10.1002/adma.201004200,80,1(a),367,Pb1Se1,Pb1Se1,670.5,,,0.000024369,1.2188,,,,
6006,10.1002/adma.201004200,80,1(a),367,Pb1Se1,Pb1Se1,671,,,0.000024205,1.2191,,,,
6006,10.1002/adma.201004200,80,1(a),367,Pb1Se1,Pb1Se1,671.5,,,0.000024045,1.2194,,,,
6006,10.1002/adma.201004200,80,1(a),367,Pb1Se1,Pb1Se1,672,,,0.000023887,1.2196,,,,
6006,10.1002/adma.201004200,80,1(a),367,Pb1Se1,Pb1Se1,672.5,,,0.000023733,1.2199,,,,
6006,10.1002/adma.201004200,80,1(a),367,Pb1Se1,Pb1Se1,673,,,0.000023582,1.2202,,,,
6006,10.1002/adma.201004200,80,1(a),367,Pb1Se1,Pb1Se1,673.5,,,0.000023434,1.2205,,,,
6006,10.1002/adma.201004200,80,1(a),367,Pb1Se1,Pb1Se1,674,,,0.000023289,1.2208,,,,
6006,10.1002/adma.201004200,80,1(a),367,Pb1Se1,Pb1Se1,674.5,,,0.000023147,1.2211,,,,
6006,10.1002/adma.201004200,80,1(a),367,Pb1Se1,Pb1Se1,675,,,0.000023009,1.2213,,,,
6006,10.1002/adma.201004200,80,1(a),367,Pb1Se1,Pb1Se1,675.5,,,0.000022873,1.2216,,,,
6006,10.1002/adma.201004200,80,1(a),367,Pb1Se1,Pb1Se1,676,,,0.00002274,1.2219,,,,
6006,10.1002/adma.201004200,80,1(a),367,Pb1Se1,Pb1Se1,676.5,,,0.000022611,1.2222,,,,
6006,10.1002/adma.201004200,80,1(a),367,Pb1Se1,Pb1Se1,677,,,0.000022485,1.2225,,,,
6006,10.1002/adma.201004200,80,1(a),367,Pb1Se1,Pb1Se1,677.5,,,0.000022361,1.2228,,,,
6006,10.1002/adma.201004200,80,1(a),367,Pb1Se1,Pb1Se1,678,,,0.000022241,1.2231,,,,
6006,10.1002/adma.201004200,80,1(a),367,Pb1Se1,Pb1Se1,678.5,,,0.000022124,1.2233,,,,
6006,10.1002/adma.201004200,80,1(a),367,Pb1Se1,Pb1Se1,679,,,0.00002201,1.2236,,,,
6006,10.1002/adma.201004200,80,1(a),367,Pb1Se1,Pb1Se1,679.5,,,0.000021899,1.2239,,,,
6006,10.1002/adma.201004200,80,1(a),367,Pb1Se1,Pb1Se1,680,,,0.000021791,1.2242,,,,
6006,10.1002/adma.201004200,80,1(a),367,Pb1Se1,Pb1Se1,680.5,,,0.000021686,1.2245,,,,
6006,10.1002/adma.201004200,80,1(a),367,Pb1Se1,Pb1Se1,681,,,0.000021584,1.2248,,,,
6006,10.1002/adma.201004200,80,1(a),367,Pb1Se1,Pb1Se1,681.5,,,0.000021485,1.2251,,,,
6006,10.1002/adma.201004200,80,1(a),367,Pb1Se1,Pb1Se1,682,,,0.000021389,1.2254,,,,
6006,10.1002/adma.201004200,80,1(a),367,Pb1Se1,Pb1Se1,682.5,,,0.000021297,1.2257,,,,
6006,10.1002/adma.201004200,80,1(a),367,Pb1Se1,Pb1Se1,683,,,0.000021207,1.226,,,,
6006,10.1002/adma.201004200,80,1(a),367,Pb1Se1,Pb1Se1,683.5,,,0.00002112,1.2263,,,,
6006,10.1002/adma.201004200,80,1(a),367,Pb1Se1,Pb1Se1,684,,,0.000021037,1.2266,,,,
6006,10.1002/adma.201004200,80,1(a),367,Pb1Se1,Pb1Se1,684.5,,,0.000020956,1.2268,,,,
6006,10.1002/adma.201004200,80,1(a),367,Pb1Se1,Pb1Se1,685,,,0.000020878,1.2271,,,,
6006,10.1002/adma.201004200,80,1(a),367,Pb1Se1,Pb1Se1,685.5,,,0.000020804,1.2274,,,,
6006,10.1002/adma.201004200,80,1(a),367,Pb1Se1,Pb1Se1,686,,,0.000020732,1.2277,,,,
6006,10.1002/adma.201004200,80,1(a),367,Pb1Se1,Pb1Se1,686.5,,,0.000020663,1.228,,,,
6006,10.1002/adma.201004200,80,1(a),367,Pb1Se1,Pb1Se1,687,,,0.000020598,1.2283,,,,
6006,10.1002/adma.201004200,80,1(a),367,Pb1Se1,Pb1Se1,687.5,,,0.000020535,1.2286,,,,
6006,10.1002/adma.201004200,80,1(a),367,Pb1Se1,Pb1Se1,688,,,0.000020476,1.2289,,,,
6006,10.1002/adma.201004200,80,1(a),367,Pb1Se1,Pb1Se1,688.5,,,0.000020419,1.2292,,,,
6006,10.1002/adma.201004200,80,1(a),367,Pb1Se1,Pb1Se1,689,,,0.000020365,1.2295,,,,
6006,10.1002/adma.201004200,80,1(a),367,Pb1Se1,Pb1Se1,689.5,,,0.000020314,1.2298,,,,
6006,10.1002/adma.201004200,80,1(a),367,Pb1Se1,Pb1Se1,690,,,0.000020266,1.2301,,,,
6006,10.1002/adma.201004200,80,1(a),367,Pb1Se1,Pb1Se1,690.5,,,0.000020222,1.2304,,,,
6006,10.1002/adma.201004200,80,1(a),367,Pb1Se1,Pb1Se1,691,,,0.00002018,1.2307,,,,
6006,10.1002/adma.201004200,80,1(a),367,Pb1Se1,Pb1Se1,691.5,,,0.000020141,1.231,,,,
6006,10.1002/adma.201004200,80,1(a),367,Pb1Se1,Pb1Se1,692,,,0.000020104,1.2313,,,,
6006,10.1002/adma.201004200,80,1(a),367,Pb1Se1,Pb1Se1,692.5,,,0.000020071,1.2316,,,,
6006,10.1002/adma.201004200,80,1(a),367,Pb1Se1,Pb1Se1,693,,,0.000020041,1.2319,,,,
6006,10.1002/adma.201004200,80,1(a),367,Pb1Se1,Pb1Se1,693.5,,,0.000020013,1.2322,,,,
6006,10.1002/adma.201004200,80,1(a),367,Pb1Se1,Pb1Se1,694,,,0.000019989,1.2325,,,,
6006,10.1002/adma.201004200,80,1(a),367,Pb1Se1,Pb1Se1,694.5,,,0.000019967,1.2328,,,,
6006,10.1002/adma.201004200,80,1(a),367,Pb1Se1,Pb1Se1,695,,,0.000019948,1.2332,,,,
6006,10.1002/adma.201004200,80,1(a),367,Pb1Se1,Pb1Se1,695.5,,,0.000019932,1.2335,,,,
6006,10.1002/adma.201004200,80,1(a),367,Pb1Se1,Pb1Se1,696,,,0.000019919,1.2338,,,,
6006,10.1002/adma.201004200,80,1(a),367,Pb1Se1,Pb1Se1,696.5,,,0.000019908,1.2341,,,,
6006,10.1002/adma.201004200,80,1(a),367,Pb1Se1,Pb1Se1,697,,,0.000019901,1.2344,,,,
6006,10.1002/adma.201004200,80,1(a),367,Pb1Se1,Pb1Se1,697.5,,,0.000019896,1.2347,,,,
6006,10.1002/adma.201004200,80,1(a),367,Pb1Se1,Pb1Se1,698,,,0.000019894,1.235,,,,
6006,10.1002/adma.201004200,80,1(a),367,Pb1Se1,Pb1Se1,698.5,,,0.000019895,1.2353,,,,
6006,10.1002/adma.201004200,80,1(a),367,Pb1Se1,Pb1Se1,699,,,0.000019899,1.2356,,,,
6006,10.1002/adma.201004200,80,1(a),367,Pb1Se1,Pb1Se1,699.5,,,0.000019905,1.2359,,,,
6006,10.1002/adma.201004200,80,1(a),367,Pb1Se1,Pb1Se1,700,,,0.000019914,1.2362,,,,
6006,10.1002/adma.201004200,80,1(a),367,Pb1Se1,Pb1Se1,700.5,,,0.000019926,1.2365,,,,
6006,10.1002/adma.201004200,80,1(a),367,Pb1Se1,Pb1Se1,701,,,0.00001994,1.2369,,,,
6006,10.1002/adma.201004200,80,1(a),367,Pb1Se1,Pb1Se1,701.5,,,0.000019957,1.2372,,,,