sid,DOI,figureid,fignum,sampleid,samplename,composition,Temperature,Carrier mobility,Electrical resistivity,Seebeck coefficient,Thermal conductivity,ZT,Electrical conductivity,Power factor,Figure of merit Z
6006,10.1002/adma.201004200,80,1(a),367,Pb1Se1,Pb1Se1,465,,,0.00022405,1.1825,,,,
6006,10.1002/adma.201004200,80,1(a),367,Pb1Se1,Pb1Se1,465.5,,,0.00022368,1.1822,,,,
6006,10.1002/adma.201004200,80,1(a),367,Pb1Se1,Pb1Se1,466,,,0.00022332,1.1819,,,,
6006,10.1002/adma.201004200,80,1(a),367,Pb1Se1,Pb1Se1,466.5,,,0.00022295,1.1817,,,,
6006,10.1002/adma.201004200,80,1(a),367,Pb1Se1,Pb1Se1,467,,,0.00022257,1.1814,,,,
6006,10.1002/adma.201004200,80,1(a),367,Pb1Se1,Pb1Se1,467.5,,,0.0002222,1.1811,,,,
6006,10.1002/adma.201004200,80,1(a),367,Pb1Se1,Pb1Se1,468,,,0.00022182,1.1809,,,,
6006,10.1002/adma.201004200,80,1(a),367,Pb1Se1,Pb1Se1,468.5,,,0.00022144,1.1806,,,,
6006,10.1002/adma.201004200,80,1(a),367,Pb1Se1,Pb1Se1,469,,,0.00022106,1.1803,,,,
6006,10.1002/adma.201004200,80,1(a),367,Pb1Se1,Pb1Se1,469.5,,,0.00022068,1.1801,,,,
6006,10.1002/adma.201004200,80,1(a),367,Pb1Se1,Pb1Se1,470,,,0.00022029,1.1798,,,,
6006,10.1002/adma.201004200,80,1(a),367,Pb1Se1,Pb1Se1,470.5,,,0.0002199,1.1796,,,,
6006,10.1002/adma.201004200,80,1(a),367,Pb1Se1,Pb1Se1,471,,,0.00021951,1.1793,,,,
6006,10.1002/adma.201004200,80,1(a),367,Pb1Se1,Pb1Se1,471.5,,,0.00021911,1.1791,,,,
6006,10.1002/adma.201004200,80,1(a),367,Pb1Se1,Pb1Se1,472,,,0.00021872,1.1788,,,,
6006,10.1002/adma.201004200,80,1(a),367,Pb1Se1,Pb1Se1,472.5,,,0.00021832,1.1786,,,,
6006,10.1002/adma.201004200,80,1(a),367,Pb1Se1,Pb1Se1,473,,,0.00021792,1.1784,,,,
6006,10.1002/adma.201004200,80,1(a),367,Pb1Se1,Pb1Se1,473.5,,,0.00021752,1.1781,,,,
6006,10.1002/adma.201004200,80,1(a),367,Pb1Se1,Pb1Se1,474,,,0.00021711,1.1779,,,,
6006,10.1002/adma.201004200,80,1(a),367,Pb1Se1,Pb1Se1,474.5,,,0.0002167,1.1777,,,,
6006,10.1002/adma.201004200,80,1(a),367,Pb1Se1,Pb1Se1,475,,,0.00021629,1.1775,,,,
6006,10.1002/adma.201004200,80,1(a),367,Pb1Se1,Pb1Se1,475.5,,,0.00021588,1.1773,,,,
6006,10.1002/adma.201004200,80,1(a),367,Pb1Se1,Pb1Se1,476,,,0.00021547,1.177,,,,
6006,10.1002/adma.201004200,80,1(a),367,Pb1Se1,Pb1Se1,476.5,,,0.00021505,1.1768,,,,
6006,10.1002/adma.201004200,80,1(a),367,Pb1Se1,Pb1Se1,477,,,0.00021463,1.1766,,,,
6006,10.1002/adma.201004200,80,1(a),367,Pb1Se1,Pb1Se1,477.5,,,0.00021421,1.1764,,,,
6006,10.1002/adma.201004200,80,1(a),367,Pb1Se1,Pb1Se1,478,,,0.00021379,1.1762,,,,
6006,10.1002/adma.201004200,80,1(a),367,Pb1Se1,Pb1Se1,478.5,,,0.00021336,1.176,,,,
6006,10.1002/adma.201004200,80,1(a),367,Pb1Se1,Pb1Se1,479,,,0.00021293,1.1758,,,,
6006,10.1002/adma.201004200,80,1(a),367,Pb1Se1,Pb1Se1,479.5,,,0.0002125,1.1756,,,,
6006,10.1002/adma.201004200,80,1(a),367,Pb1Se1,Pb1Se1,480,,,0.00021207,1.1755,,,,
6006,10.1002/adma.201004200,80,1(a),367,Pb1Se1,Pb1Se1,480.5,,,0.00021164,1.1753,,,,
6006,10.1002/adma.201004200,80,1(a),367,Pb1Se1,Pb1Se1,481,,,0.0002112,1.1751,,,,
6006,10.1002/adma.201004200,80,1(a),367,Pb1Se1,Pb1Se1,481.5,,,0.00021076,1.1749,,,,
6006,10.1002/adma.201004200,80,1(a),367,Pb1Se1,Pb1Se1,482,,,0.00021032,1.1747,,,,
6006,10.1002/adma.201004200,80,1(a),367,Pb1Se1,Pb1Se1,482.5,,,0.00020988,1.1746,,,,
6006,10.1002/adma.201004200,80,1(a),367,Pb1Se1,Pb1Se1,483,,,0.00020943,1.1744,,,,
6006,10.1002/adma.201004200,80,1(a),367,Pb1Se1,Pb1Se1,483.5,,,0.00020898,1.1742,,,,
6006,10.1002/adma.201004200,80,1(a),367,Pb1Se1,Pb1Se1,484,,,0.00020853,1.1741,,,,
6006,10.1002/adma.201004200,80,1(a),367,Pb1Se1,Pb1Se1,484.5,,,0.00020808,1.1739,,,,
6006,10.1002/adma.201004200,80,1(a),367,Pb1Se1,Pb1Se1,485,,,0.00020763,1.1737,,,,
6006,10.1002/adma.201004200,80,1(a),367,Pb1Se1,Pb1Se1,485.5,,,0.00020717,1.1736,,,,
6006,10.1002/adma.201004200,80,1(a),367,Pb1Se1,Pb1Se1,486,,,0.00020671,1.1734,,,,
6006,10.1002/adma.201004200,80,1(a),367,Pb1Se1,Pb1Se1,486.5,,,0.00020625,1.1733,,,,
6006,10.1002/adma.201004200,80,1(a),367,Pb1Se1,Pb1Se1,487,,,0.00020579,1.1731,,,,
6006,10.1002/adma.201004200,80,1(a),367,Pb1Se1,Pb1Se1,487.5,,,0.00020533,1.173,,,,
6006,10.1002/adma.201004200,80,1(a),367,Pb1Se1,Pb1Se1,488,,,0.00020486,1.1728,,,,
6006,10.1002/adma.201004200,80,1(a),367,Pb1Se1,Pb1Se1,488.5,,,0.00020439,1.1727,,,,
6006,10.1002/adma.201004200,80,1(a),367,Pb1Se1,Pb1Se1,489,,,0.00020392,1.1726,,,,
6006,10.1002/adma.201004200,80,1(a),367,Pb1Se1,Pb1Se1,489.5,,,0.00020345,1.1724,,,,
6006,10.1002/adma.201004200,80,1(a),367,Pb1Se1,Pb1Se1,490,,,0.00020297,1.1723,,,,
6006,10.1002/adma.201004200,80,1(a),367,Pb1Se1,Pb1Se1,490.5,,,0.00020249,1.1722,,,,
6006,10.1002/adma.201004200,80,1(a),367,Pb1Se1,Pb1Se1,491,,,0.00020202,1.172,,,,
6006,10.1002/adma.201004200,80,1(a),367,Pb1Se1,Pb1Se1,491.5,,,0.00020153,1.1719,,,,
6006,10.1002/adma.201004200,80,1(a),367,Pb1Se1,Pb1Se1,492,,,0.00020105,1.1718,,,,
6006,10.1002/adma.201004200,80,1(a),367,Pb1Se1,Pb1Se1,492.5,,,0.00020057,1.1717,,,,
6006,10.1002/adma.201004200,80,1(a),367,Pb1Se1,Pb1Se1,493,,,0.00020008,1.1716,,,,
6006,10.1002/adma.201004200,80,1(a),367,Pb1Se1,Pb1Se1,493.5,,,0.00019959,1.1714,,,,
6006,10.1002/adma.201004200,80,1(a),367,Pb1Se1,Pb1Se1,494,,,0.0001991,1.1713,,,,
6006,10.1002/adma.201004200,80,1(a),367,Pb1Se1,Pb1Se1,494.5,,,0.00019861,1.1712,,,,
6006,10.1002/adma.201004200,80,1(a),367,Pb1Se1,Pb1Se1,495,,,0.00019811,1.1711,,,,
6006,10.1002/adma.201004200,80,1(a),367,Pb1Se1,Pb1Se1,495.5,,,0.00019762,1.171,,,,
6006,10.1002/adma.201004200,80,1(a),367,Pb1Se1,Pb1Se1,496,,,0.00019712,1.1709,,,,
6006,10.1002/adma.201004200,80,1(a),367,Pb1Se1,Pb1Se1,496.5,,,0.00019662,1.1708,,,,
6006,10.1002/adma.201004200,80,1(a),367,Pb1Se1,Pb1Se1,497,,,0.00019611,1.1707,,,,
6006,10.1002/adma.201004200,80,1(a),367,Pb1Se1,Pb1Se1,497.5,,,0.00019561,1.1706,,,,
6006,10.1002/adma.201004200,80,1(a),367,Pb1Se1,Pb1Se1,498,,,0.0001951,1.1705,,,,
6006,10.1002/adma.201004200,80,1(a),367,Pb1Se1,Pb1Se1,498.5,,,0.0001946,1.1705,,,,
6006,10.1002/adma.201004200,80,1(a),367,Pb1Se1,Pb1Se1,499,,,0.00019409,1.1704,,,,
6006,10.1002/adma.201004200,80,1(a),367,Pb1Se1,Pb1Se1,499.5,,,0.00019357,1.1703,,,,
6006,10.1002/adma.201004200,80,1(a),367,Pb1Se1,Pb1Se1,500,,,0.00019306,1.1702,,,,
6006,10.1002/adma.201004200,80,1(a),367,Pb1Se1,Pb1Se1,500.5,,,0.00019255,1.1701,,,,
6006,10.1002/adma.201004200,80,1(a),367,Pb1Se1,Pb1Se1,501,,,0.00019203,1.17,,,,
6006,10.1002/adma.201004200,80,1(a),367,Pb1Se1,Pb1Se1,501.5,,,0.00019151,1.17,,,,
6006,10.1002/adma.201004200,80,1(a),367,Pb1Se1,Pb1Se1,502,,,0.00019099,1.1699,,,,
6006,10.1002/adma.201004200,80,1(a),367,Pb1Se1,Pb1Se1,502.5,,,0.00019047,1.1698,,,,
6006,10.1002/adma.201004200,80,1(a),367,Pb1Se1,Pb1Se1,503,,,0.00018994,1.1698,,,,
6006,10.1002/adma.201004200,80,1(a),367,Pb1Se1,Pb1Se1,503.5,,,0.00018942,1.1697,,,,
6006,10.1002/adma.201004200,80,1(a),367,Pb1Se1,Pb1Se1,504,,,0.00018889,1.1696,,,,
6006,10.1002/adma.201004200,80,1(a),367,Pb1Se1,Pb1Se1,504.5,,,0.00018836,1.1696,,,,
6006,10.1002/adma.201004200,80,1(a),367,Pb1Se1,Pb1Se1,505,,,0.00018783,1.1695,,,,
6006,10.1002/adma.201004200,80,1(a),367,Pb1Se1,Pb1Se1,505.5,,,0.0001873,1.1695,,,,
6006,10.1002/adma.201004200,80,1(a),367,Pb1Se1,Pb1Se1,506,,,0.00018676,1.1694,,,,
6006,10.1002/adma.201004200,80,1(a),367,Pb1Se1,Pb1Se1,506.5,,,0.00018623,1.1693,,,,
6006,10.1002/adma.201004200,80,1(a),367,Pb1Se1,Pb1Se1,507,,,0.00018569,1.1693,,,,
6006,10.1002/adma.201004200,80,1(a),367,Pb1Se1,Pb1Se1,507.5,,,0.00018515,1.1692,,,,
6006,10.1002/adma.201004200,80,1(a),367,Pb1Se1,Pb1Se1,508,,,0.00018461,1.1692,,,,
6006,10.1002/adma.201004200,80,1(a),367,Pb1Se1,Pb1Se1,508.5,,,0.00018407,1.1692,,,,
6006,10.1002/adma.201004200,80,1(a),367,Pb1Se1,Pb1Se1,509,,,0.00018352,1.1691,,,,
6006,10.1002/adma.201004200,80,1(a),367,Pb1Se1,Pb1Se1,509.5,,,0.00018298,1.1691,,,,
6006,10.1002/adma.201004200,80,1(a),367,Pb1Se1,Pb1Se1,510,,,0.00018243,1.169,,,,
6006,10.1002/adma.201004200,80,1(a),367,Pb1Se1,Pb1Se1,510.5,,,0.00018188,1.169,,,,
6006,10.1002/adma.201004200,80,1(a),367,Pb1Se1,Pb1Se1,511,,,0.00018133,1.169,,,,
6006,10.1002/adma.201004200,80,1(a),367,Pb1Se1,Pb1Se1,511.5,,,0.00018078,1.1689,,,,
6006,10.1002/adma.201004200,80,1(a),367,Pb1Se1,Pb1Se1,512,,,0.00018023,1.1689,,,,
6006,10.1002/adma.201004200,80,1(a),367,Pb1Se1,Pb1Se1,512.5,,,0.00017968,1.1689,,,,
6006,10.1002/adma.201004200,80,1(a),367,Pb1Se1,Pb1Se1,513,,,0.00017912,1.1689,,,,
6006,10.1002/adma.201004200,80,1(a),367,Pb1Se1,Pb1Se1,513.5,,,0.00017856,1.1688,,,,
6006,10.1002/adma.201004200,80,1(a),367,Pb1Se1,Pb1Se1,514,,,0.000178,1.1688,,,,
6006,10.1002/adma.201004200,80,1(a),367,Pb1Se1,Pb1Se1,514.5,,,0.00017744,1.1688,,,,
6006,10.1002/adma.201004200,80,1(a),367,Pb1Se1,Pb1Se1,515,,,0.00017688,1.1688,,,,
6006,10.1002/adma.201004200,80,1(a),367,Pb1Se1,Pb1Se1,515.5,,,0.00017632,1.1687,,,,
6006,10.1002/adma.201004200,80,1(a),367,Pb1Se1,Pb1Se1,516,,,0.00017576,1.1687,,,,
6006,10.1002/adma.201004200,80,1(a),367,Pb1Se1,Pb1Se1,516.5,,,0.00017519,1.1687,,,,
6006,10.1002/adma.201004200,80,1(a),367,Pb1Se1,Pb1Se1,517,,,0.00017462,1.1687,,,,
6006,10.1002/adma.201004200,80,1(a),367,Pb1Se1,Pb1Se1,517.5,,,0.00017406,1.1687,,,,
6006,10.1002/adma.201004200,80,1(a),367,Pb1Se1,Pb1Se1,518,,,0.00017349,1.1687,,,,
6006,10.1002/adma.201004200,80,1(a),367,Pb1Se1,Pb1Se1,518.5,,,0.00017292,1.1687,,,,
6006,10.1002/adma.201004200,80,1(a),367,Pb1Se1,Pb1Se1,519,,,0.00017234,1.1687,,,,
6006,10.1002/adma.201004200,80,1(a),367,Pb1Se1,Pb1Se1,519.5,,,0.00017177,1.1687,,,,
6006,10.1002/adma.201004200,80,1(a),367,Pb1Se1,Pb1Se1,520,,,0.0001712,1.1687,,,,
6006,10.1002/adma.201004200,80,1(a),367,Pb1Se1,Pb1Se1,520.5,,,0.00017062,1.1687,,,,
6006,10.1002/adma.201004200,80,1(a),367,Pb1Se1,Pb1Se1,521,,,0.00017004,1.1687,,,,
6006,10.1002/adma.201004200,80,1(a),367,Pb1Se1,Pb1Se1,521.5,,,0.00016947,1.1687,,,,
6006,10.1002/adma.201004200,80,1(a),367,Pb1Se1,Pb1Se1,522,,,0.00016889,1.1687,,,,
6006,10.1002/adma.201004200,80,1(a),367,Pb1Se1,Pb1Se1,522.5,,,0.00016831,1.1687,,,,
6006,10.1002/adma.201004200,80,1(a),367,Pb1Se1,Pb1Se1,523,,,0.00016772,1.1687,,,,
6006,10.1002/adma.201004200,80,1(a),367,Pb1Se1,Pb1Se1,523.5,,,0.00016714,1.1687,,,,
6006,10.1002/adma.201004200,80,1(a),367,Pb1Se1,Pb1Se1,524,,,0.00016656,1.1687,,,,
6006,10.1002/adma.201004200,80,1(a),367,Pb1Se1,Pb1Se1,524.5,,,0.00016597,1.1688,,,,
6006,10.1002/adma.201004200,80,1(a),367,Pb1Se1,Pb1Se1,525,,,0.00016539,1.1688,,,,
6006,10.1002/adma.201004200,80,1(a),367,Pb1Se1,Pb1Se1,525.5,,,0.0001648,1.1688,,,,
6006,10.1002/adma.201004200,80,1(a),367,Pb1Se1,Pb1Se1,526,,,0.00016421,1.1688,,,,
6006,10.1002/adma.201004200,80,1(a),367,Pb1Se1,Pb1Se1,526.5,,,0.00016362,1.1688,,,,
6006,10.1002/adma.201004200,80,1(a),367,Pb1Se1,Pb1Se1,527,,,0.00016303,1.1689,,,,
6006,10.1002/adma.201004200,80,1(a),367,Pb1Se1,Pb1Se1,527.5,,,0.00016244,1.1689,,,,
6006,10.1002/adma.201004200,80,1(a),367,Pb1Se1,Pb1Se1,528,,,0.00016185,1.1689,,,,
6006,10.1002/adma.201004200,80,1(a),367,Pb1Se1,Pb1Se1,528.5,,,0.00016126,1.169,,,,
6006,10.1002/adma.201004200,80,1(a),367,Pb1Se1,Pb1Se1,529,,,0.00016067,1.169,,,,
6006,10.1002/adma.201004200,80,1(a),367,Pb1Se1,Pb1Se1,529.5,,,0.00016007,1.169,,,,
6006,10.1002/adma.201004200,80,1(a),367,Pb1Se1,Pb1Se1,530,,,0.00015948,1.169,,,,
6006,10.1002/adma.201004200,80,1(a),367,Pb1Se1,Pb1Se1,530.5,,,0.00015888,1.1691,,,,
6006,10.1002/adma.201004200,80,1(a),367,Pb1Se1,Pb1Se1,531,,,0.00015828,1.1691,,,,
6006,10.1002/adma.201004200,80,1(a),367,Pb1Se1,Pb1Se1,531.5,,,0.00015768,1.1692,,,,
6006,10.1002/adma.201004200,80,1(a),367,Pb1Se1,Pb1Se1,532,,,0.00015709,1.1692,,,,
6006,10.1002/adma.201004200,80,1(a),367,Pb1Se1,Pb1Se1,532.5,,,0.00015649,1.1692,,,,
6006,10.1002/adma.201004200,80,1(a),367,Pb1Se1,Pb1Se1,533,,,0.00015588,1.1693,,,,
6006,10.1002/adma.201004200,80,1(a),367,Pb1Se1,Pb1Se1,533.5,,,0.00015528,1.1693,,,,
6006,10.1002/adma.201004200,80,1(a),367,Pb1Se1,Pb1Se1,534,,,0.00015468,1.1694,,,,
6006,10.1002/adma.201004200,80,1(a),367,Pb1Se1,Pb1Se1,534.5,,,0.00015408,1.1694,,,,
6006,10.1002/adma.201004200,80,1(a),367,Pb1Se1,Pb1Se1,535,,,0.00015348,1.1695,,,,
6006,10.1002/adma.201004200,80,1(a),367,Pb1Se1,Pb1Se1,535.5,,,0.00015287,1.1695,,,,
6006,10.1002/adma.201004200,80,1(a),367,Pb1Se1,Pb1Se1,536,,,0.00015227,1.1696,,,,
6006,10.1002/adma.201004200,80,1(a),367,Pb1Se1,Pb1Se1,536.5,,,0.00015166,1.1696,,,,
6006,10.1002/adma.201004200,80,1(a),367,Pb1Se1,Pb1Se1,537,,,0.00015106,1.1697,,,,
6006,10.1002/adma.201004200,80,1(a),367,Pb1Se1,Pb1Se1,537.5,,,0.00015045,1.1697,,,,
6006,10.1002/adma.201004200,80,1(a),367,Pb1Se1,Pb1Se1,538,,,0.00014984,1.1698,,,,
6006,10.1002/adma.201004200,80,1(a),367,Pb1Se1,Pb1Se1,538.5,,,0.00014923,1.1698,,,,
6006,10.1002/adma.201004200,80,1(a),367,Pb1Se1,Pb1Se1,539,,,0.00014863,1.1699,,,,
6006,10.1002/adma.201004200,80,1(a),367,Pb1Se1,Pb1Se1,539.5,,,0.00014802,1.17,,,,
6006,10.1002/adma.201004200,80,1(a),367,Pb1Se1,Pb1Se1,540,,,0.00014741,1.17,,,,
6006,10.1002/adma.201004200,80,1(a),367,Pb1Se1,Pb1Se1,540.5,,,0.0001468,1.1701,,,,
6006,10.1002/adma.201004200,80,1(a),367,Pb1Se1,Pb1Se1,541,,,0.00014619,1.1702,,,,
6006,10.1002/adma.201004200,80,1(a),367,Pb1Se1,Pb1Se1,541.5,,,0.00014557,1.1702,,,,
6006,10.1002/adma.201004200,80,1(a),367,Pb1Se1,Pb1Se1,542,,,0.00014496,1.1703,,,,
6006,10.1002/adma.201004200,80,1(a),367,Pb1Se1,Pb1Se1,542.5,,,0.00014435,1.1704,,,,
6006,10.1002/adma.201004200,80,1(a),367,Pb1Se1,Pb1Se1,543,,,0.00014374,1.1704,,,,
6006,10.1002/adma.201004200,80,1(a),367,Pb1Se1,Pb1Se1,543.5,,,0.00014313,1.1705,,,,
6006,10.1002/adma.201004200,80,1(a),367,Pb1Se1,Pb1Se1,544,,,0.00014251,1.1706,,,,
6006,10.1002/adma.201004200,80,1(a),367,Pb1Se1,Pb1Se1,544.5,,,0.0001419,1.1707,,,,
6006,10.1002/adma.201004200,80,1(a),367,Pb1Se1,Pb1Se1,545,,,0.00014129,1.1707,,,,
6006,10.1002/adma.201004200,80,1(a),367,Pb1Se1,Pb1Se1,545.5,,,0.00014067,1.1708,,,,
6006,10.1002/adma.201004200,80,1(a),367,Pb1Se1,Pb1Se1,546,,,0.00014006,1.1709,,,,
6006,10.1002/adma.201004200,80,1(a),367,Pb1Se1,Pb1Se1,546.5,,,0.00013944,1.171,,,,
6006,10.1002/adma.201004200,80,1(a),367,Pb1Se1,Pb1Se1,547,,,0.00013883,1.1711,,,,
6006,10.1002/adma.201004200,80,1(a),367,Pb1Se1,Pb1Se1,547.5,,,0.00013821,1.1711,,,,
6006,10.1002/adma.201004200,80,1(a),367,Pb1Se1,Pb1Se1,548,,,0.0001376,1.1712,,,,
6006,10.1002/adma.201004200,80,1(a),367,Pb1Se1,Pb1Se1,548.5,,,0.00013698,1.1713,,,,
6006,10.1002/adma.201004200,80,1(a),367,Pb1Se1,Pb1Se1,549,,,0.00013637,1.1714,,,,
6006,10.1002/adma.201004200,80,1(a),367,Pb1Se1,Pb1Se1,549.5,,,0.00013575,1.1715,,,,
6006,10.1002/adma.201004200,80,1(a),367,Pb1Se1,Pb1Se1,550,,,0.00013513,1.1716,,,,
6006,10.1002/adma.201004200,80,1(a),367,Pb1Se1,Pb1Se1,550.5,,,0.00013452,1.1717,,,,
6006,10.1002/adma.201004200,80,1(a),367,Pb1Se1,Pb1Se1,551,,,0.0001339,1.1718,,,,
6006,10.1002/adma.201004200,80,1(a),367,Pb1Se1,Pb1Se1,551.5,,,0.00013328,1.1718,,,,
6006,10.1002/adma.201004200,80,1(a),367,Pb1Se1,Pb1Se1,552,,,0.00013267,1.1719,,,,
6006,10.1002/adma.201004200,80,1(a),367,Pb1Se1,Pb1Se1,552.5,,,0.00013205,1.172,,,,
6006,10.1002/adma.201004200,80,1(a),367,Pb1Se1,Pb1Se1,553,,,0.00013143,1.1721,,,,
6006,10.1002/adma.201004200,80,1(a),367,Pb1Se1,Pb1Se1,553.5,,,0.00013082,1.1722,,,,
6006,10.1002/adma.201004200,80,1(a),367,Pb1Se1,Pb1Se1,554,,,0.0001302,1.1723,,,,
6006,10.1002/adma.201004200,80,1(a),367,Pb1Se1,Pb1Se1,554.5,,,0.00012958,1.1724,,,,
6006,10.1002/adma.201004200,80,1(a),367,Pb1Se1,Pb1Se1,555,,,0.00012897,1.1725,,,,
6006,10.1002/adma.201004200,80,1(a),367,Pb1Se1,Pb1Se1,555.5,,,0.00012835,1.1726,,,,
6006,10.1002/adma.201004200,80,1(a),367,Pb1Se1,Pb1Se1,556,,,0.00012773,1.1727,,,,
6006,10.1002/adma.201004200,80,1(a),367,Pb1Se1,Pb1Se1,556.5,,,0.00012712,1.1728,,,,
6006,10.1002/adma.201004200,80,1(a),367,Pb1Se1,Pb1Se1,557,,,0.0001265,1.1729,,,,
6006,10.1002/adma.201004200,80,1(a),367,Pb1Se1,Pb1Se1,557.5,,,0.00012588,1.173,,,,
6006,10.1002/adma.201004200,80,1(a),367,Pb1Se1,Pb1Se1,558,,,0.00012527,1.1732,,,,
6006,10.1002/adma.201004200,80,1(a),367,Pb1Se1,Pb1Se1,558.5,,,0.00012465,1.1733,,,,
6006,10.1002/adma.201004200,80,1(a),367,Pb1Se1,Pb1Se1,559,,,0.00012404,1.1734,,,,
6006,10.1002/adma.201004200,80,1(a),367,Pb1Se1,Pb1Se1,559.5,,,0.00012342,1.1735,,,,
6006,10.1002/adma.201004200,80,1(a),367,Pb1Se1,Pb1Se1,560,,,0.00012281,1.1736,,,,
6006,10.1002/adma.201004200,80,1(a),367,Pb1Se1,Pb1Se1,560.5,,,0.00012219,1.1737,,,,
6006,10.1002/adma.201004200,80,1(a),367,Pb1Se1,Pb1Se1,561,,,0.00012158,1.1738,,,,
6006,10.1002/adma.201004200,80,1(a),367,Pb1Se1,Pb1Se1,561.5,,,0.00012096,1.1739,,,,
6006,10.1002/adma.201004200,80,1(a),367,Pb1Se1,Pb1Se1,562,,,0.00012035,1.1741,,,,
6006,10.1002/adma.201004200,80,1(a),367,Pb1Se1,Pb1Se1,562.5,,,0.00011973,1.1742,,,,
6006,10.1002/adma.201004200,80,1(a),367,Pb1Se1,Pb1Se1,563,,,0.00011912,1.1743,,,,
6006,10.1002/adma.201004200,80,1(a),367,Pb1Se1,Pb1Se1,563.5,,,0.00011851,1.1744,,,,
6006,10.1002/adma.201004200,80,1(a),367,Pb1Se1,Pb1Se1,564,,,0.00011789,1.1745,,,,
6006,10.1002/adma.201004200,80,1(a),367,Pb1Se1,Pb1Se1,564.5,,,0.00011728,1.1747,,,,
6006,10.1002/adma.201004200,80,1(a),367,Pb1Se1,Pb1Se1,565,,,0.00011667,1.1748,,,,
6006,10.1002/adma.201004200,80,1(a),367,Pb1Se1,Pb1Se1,565.5,,,0.00011606,1.1749,,,,
6006,10.1002/adma.201004200,80,1(a),367,Pb1Se1,Pb1Se1,566,,,0.00011545,1.175,,,,
6006,10.1002/adma.201004200,80,1(a),367,Pb1Se1,Pb1Se1,566.5,,,0.00011484,1.1752,,,,
6006,10.1002/adma.201004200,80,1(a),367,Pb1Se1,Pb1Se1,567,,,0.00011423,1.1753,,,,
6006,10.1002/adma.201004200,80,1(a),367,Pb1Se1,Pb1Se1,567.5,,,0.00011362,1.1754,,,,
6006,10.1002/adma.201004200,80,1(a),367,Pb1Se1,Pb1Se1,568,,,0.00011301,1.1755,,,,
6006,10.1002/adma.201004200,80,1(a),367,Pb1Se1,Pb1Se1,568.5,,,0.0001124,1.1757,,,,
6006,10.1002/adma.201004200,80,1(a),367,Pb1Se1,Pb1Se1,569,,,0.00011179,1.1758,,,,
6006,10.1002/adma.201004200,80,1(a),367,Pb1Se1,Pb1Se1,569.5,,,0.00011118,1.1759,,,,
6006,10.1002/adma.201004200,80,1(a),367,Pb1Se1,Pb1Se1,570,,,0.00011058,1.1761,,,,
6006,10.1002/adma.201004200,80,1(a),367,Pb1Se1,Pb1Se1,570.5,,,0.00010997,1.1762,,,,
6006,10.1002/adma.201004200,80,1(a),367,Pb1Se1,Pb1Se1,571,,,0.00010937,1.1763,,,,
6006,10.1002/adma.201004200,80,1(a),367,Pb1Se1,Pb1Se1,571.5,,,0.00010876,1.1765,,,,
6006,10.1002/adma.201004200,80,1(a),367,Pb1Se1,Pb1Se1,572,,,0.00010816,1.1766,,,,
6006,10.1002/adma.201004200,80,1(a),367,Pb1Se1,Pb1Se1,572.5,,,0.00010755,1.1767,,,,
6006,10.1002/adma.201004200,80,1(a),367,Pb1Se1,Pb1Se1,573,,,0.00010695,1.1769,,,,
6006,10.1002/adma.201004200,80,1(a),367,Pb1Se1,Pb1Se1,573.5,,,0.00010635,1.177,,,,
6006,10.1002/adma.201004200,80,1(a),367,Pb1Se1,Pb1Se1,574,,,0.00010575,1.1772,,,,
6006,10.1002/adma.201004200,80,1(a),367,Pb1Se1,Pb1Se1,574.5,,,0.00010515,1.1773,,,,
6006,10.1002/adma.201004200,80,1(a),367,Pb1Se1,Pb1Se1,575,,,0.00010455,1.1774,,,,
6006,10.1002/adma.201004200,80,1(a),367,Pb1Se1,Pb1Se1,575.5,,,0.00010395,1.1776,,,,
6006,10.1002/adma.201004200,80,1(a),367,Pb1Se1,Pb1Se1,576,,,0.00010335,1.1777,,,,
6006,10.1002/adma.201004200,80,1(a),367,Pb1Se1,Pb1Se1,576.5,,,0.00010276,1.1779,,,,
6006,10.1002/adma.201004200,80,1(a),367,Pb1Se1,Pb1Se1,577,,,0.00010216,1.178,,,,
6006,10.1002/adma.201004200,80,1(a),367,Pb1Se1,Pb1Se1,577.5,,,0.00010156,1.1782,,,,
6006,10.1002/adma.201004200,80,1(a),367,Pb1Se1,Pb1Se1,578,,,0.00010097,1.1783,,,,
6006,10.1002/adma.201004200,80,1(a),367,Pb1Se1,Pb1Se1,578.5,,,0.00010038,1.1785,,,,
6006,10.1002/adma.201004200,80,1(a),367,Pb1Se1,Pb1Se1,579,,,0.000099784,1.1786,,,,
6006,10.1002/adma.201004200,80,1(a),367,Pb1Se1,Pb1Se1,579.5,,,0.000099193,1.1788,,,,
6006,10.1002/adma.201004200,80,1(a),367,Pb1Se1,Pb1Se1,580,,,0.000098603,1.1789,,,,
6006,10.1002/adma.201004200,80,1(a),367,Pb1Se1,Pb1Se1,580.5,,,0.000098013,1.1791,,,,
6006,10.1002/adma.201004200,80,1(a),367,Pb1Se1,Pb1Se1,581,,,0.000097425,1.1792,,,,
6006,10.1002/adma.201004200,80,1(a),367,Pb1Se1,Pb1Se1,581.5,,,0.000096838,1.1794,,,,
6006,10.1002/adma.201004200,80,1(a),367,Pb1Se1,Pb1Se1,582,,,0.000096252,1.1795,,,,
6006,10.1002/adma.201004200,80,1(a),367,Pb1Se1,Pb1Se1,582.5,,,0.000095666,1.1797,,,,
6006,10.1002/adma.201004200,80,1(a),367,Pb1Se1,Pb1Se1,583,,,0.000095083,1.1798,,,,
6006,10.1002/adma.201004200,80,1(a),367,Pb1Se1,Pb1Se1,583.5,,,0.0000945,1.18,,,,