sid,DOI,figureid,fignum,sampleid,samplename,composition,Temperature,Carrier mobility,Electrical resistivity,Seebeck coefficient,Thermal conductivity,ZT,Electrical conductivity,Power factor,Figure of merit Z
6006,10.1002/adma.201004200,80,1(a),324,Na0.007Pb0.993Se1,Na0.007Pb0.993Se1,465.5,0.013747,0.000006056,0.000066808,2.2614,0.2073,165125.4953764861,0.0007370061,0.000325907
6006,10.1002/adma.201004200,80,1(a),324,Na0.007Pb0.993Se1,Na0.007Pb0.993Se1,466,0.013732,0.000006067,0.00006694,2.2587,0.20849,164826.1084555794,0.0007385798,0.0003269933
6006,10.1002/adma.201004200,80,1(a),324,Na0.007Pb0.993Se1,Na0.007Pb0.993Se1,466.5,0.013717,0.0000060781,0.000067073,2.2559,0.20968,164525.0983037462,0.0007401634,0.0003281012
6006,10.1002/adma.201004200,80,1(a),324,Na0.007Pb0.993Se1,Na0.007Pb0.993Se1,467,0.013702,0.0000060891,0.000067206,2.2532,0.21087,164227.8826099095,0.0007417593,0.0003292026
6006,10.1002/adma.201004200,80,1(a),324,Na0.007Pb0.993Se1,Na0.007Pb0.993Se1,467.5,0.013687,0.0000061002,0.000067339,2.2505,0.21206,163929.051506508,0.000743343,0.0003303013
6006,10.1002/adma.201004200,80,1(a),324,Na0.007Pb0.993Se1,Na0.007Pb0.993Se1,468,0.013673,0.0000061113,0.000067473,2.2478,0.21325,163631.3059414527,0.0007449488,0.0003314124
6006,10.1002/adma.201004200,80,1(a),324,Na0.007Pb0.993Se1,Na0.007Pb0.993Se1,468.5,0.013658,0.0000061224,0.000067606,2.2451,0.21443,163334.6400104534,0.0007465326,0.0003325164
6006,10.1002/adma.201004200,80,1(a),324,Na0.007Pb0.993Se1,Na0.007Pb0.993Se1,469,0.013643,0.0000061336,0.00006774,2.2424,0.21562,163036.389722186,0.0007481263,0.0003336275
6006,10.1002/adma.201004200,80,1(a),324,Na0.007Pb0.993Se1,Na0.007Pb0.993Se1,469.5,0.013628,0.0000061447,0.000067874,2.2397,0.21681,162741.875111885,0.0007497323,0.0003347467
6006,10.1002/adma.201004200,80,1(a),324,Na0.007Pb0.993Se1,Na0.007Pb0.993Se1,470,0.013613,0.0000061559,0.000068009,2.237,0.218,162445.7837196836,0.0007513482,0.0003358731
6006,10.1002/adma.201004200,80,1(a),324,Na0.007Pb0.993Se1,Na0.007Pb0.993Se1,470.5,0.013598,0.0000061671,0.000068143,2.2343,0.21919,162150.7677838855,0.000752942,0.0003369923
6006,10.1002/adma.201004200,80,1(a),324,Na0.007Pb0.993Se1,Na0.007Pb0.993Se1,471,0.013584,0.0000061784,0.000068278,2.2316,0.22038,161854.201735077,0.0007545457,0.0003381187
6006,10.1002/adma.201004200,80,1(a),324,Na0.007Pb0.993Se1,Na0.007Pb0.993Se1,471.5,0.013569,0.0000061896,0.000068413,2.2289,0.22156,161561.3286803671,0.0007561617,0.0003392533
6006,10.1002/adma.201004200,80,1(a),324,Na0.007Pb0.993Se1,Na0.007Pb0.993Se1,472,0.013554,0.0000062009,0.000068548,2.2263,0.22275,161266.912867487,0.0007577655,0.0003403699
6006,10.1002/adma.201004200,80,1(a),324,Na0.007Pb0.993Se1,Na0.007Pb0.993Se1,472.5,0.013539,0.0000062122,0.000068683,2.2236,0.22394,160973.5681401114,0.0007593694,0.0003415045
6006,10.1002/adma.201004200,80,1(a),324,Na0.007Pb0.993Se1,Na0.007Pb0.993Se1,473,0.013524,0.0000062235,0.000068819,2.2209,0.22513,160681.2886639351,0.0007609954,0.0003426518
6006,10.1002/adma.201004200,80,1(a),324,Na0.007Pb0.993Se1,Na0.007Pb0.993Se1,473.5,0.013509,0.0000062349,0.000068955,2.2183,0.22632,160387.496190797,0.0007626092,0.0003437809
6006,10.1002/adma.201004200,80,1(a),324,Na0.007Pb0.993Se1,Na0.007Pb0.993Se1,474,0.013495,0.0000062462,0.000069091,2.2156,0.22751,160097.3391822228,0.0007642353,0.0003449338
6006,10.1002/adma.201004200,80,1(a),324,Na0.007Pb0.993Se1,Na0.007Pb0.993Se1,474.5,0.01348,0.0000062576,0.000069227,2.213,0.22869,159805.6762976221,0.0007658491,0.0003460683
6006,10.1002/adma.201004200,80,1(a),324,Na0.007Pb0.993Se1,Na0.007Pb0.993Se1,475,0.013465,0.000006269,0.000069364,2.2104,0.22988,159515.0741745095,0.0007674852,0.0003472155
6006,10.1002/adma.201004200,80,1(a),324,Na0.007Pb0.993Se1,Na0.007Pb0.993Se1,475.5,0.01345,0.0000062805,0.000069501,2.2077,0.23107,159222.9918000159,0.000769109,0.0003483757
6006,10.1002/adma.201004200,80,1(a),324,Na0.007Pb0.993Se1,Na0.007Pb0.993Se1,476,0.013435,0.0000062919,0.000069638,2.2051,0.23226,158934.5030912761,0.0007707451,0.0003495284
6006,10.1002/adma.201004200,80,1(a),324,Na0.007Pb0.993Se1,Na0.007Pb0.993Se1,476.5,0.01342,0.0000063034,0.000069775,2.2025,0.23345,158644.5410413428,0.000772369,0.0003506783
6006,10.1002/adma.201004200,80,1(a),324,Na0.007Pb0.993Se1,Na0.007Pb0.993Se1,477,0.013406,0.0000063149,0.000069913,2.1999,0.23464,158355.6350852745,0.000774015,0.000351841
6006,10.1002/adma.201004200,80,1(a),324,Na0.007Pb0.993Se1,Na0.007Pb0.993Se1,477.5,0.013391,0.0000063264,0.00007005,2.1973,0.23582,158067.7794638341,0.000775639,0.0003529964
6006,10.1002/adma.201004200,80,1(a),324,Na0.007Pb0.993Se1,Na0.007Pb0.993Se1,478,0.013376,0.0000063379,0.000070188,2.1947,0.23701,157780.9684595844,0.0007772851,0.0003541646
6006,10.1002/adma.201004200,80,1(a),324,Na0.007Pb0.993Se1,Na0.007Pb0.993Se1,478.5,0.013361,0.0000063495,0.000070326,2.1921,0.2382,157492.7159618868,0.000778919,0.0003553301
6006,10.1002/adma.201004200,80,1(a),324,Na0.007Pb0.993Se1,Na0.007Pb0.993Se1,479,0.013346,0.0000063611,0.000070465,2.1895,0.23939,157205.5147694581,0.0007805751,0.0003565084
6006,10.1002/adma.201004200,80,1(a),324,Na0.007Pb0.993Se1,Na0.007Pb0.993Se1,479.5,0.013331,0.0000063727,0.000070603,2.1869,0.24058,156919.3591413373,0.000782209,0.0003576794
6006,10.1002/adma.201004200,80,1(a),324,Na0.007Pb0.993Se1,Na0.007Pb0.993Se1,480,0.013317,0.0000063843,0.000070742,2.1843,0.24177,156634.2433782874,0.0007838652,0.0003588633
6006,10.1002/adma.201004200,80,1(a),324,Na0.007Pb0.993Se1,Na0.007Pb0.993Se1,480.5,0.013302,0.000006396,0.000070881,2.1817,0.24295,156347.7173233271,0.0007855091,0.0003600445
6006,10.1002/adma.201004200,80,1(a),324,Na0.007Pb0.993Se1,Na0.007Pb0.993Se1,481,0.013287,0.0000064077,0.000071021,2.1792,0.24414,156062.237620363,0.0007871752,0.0003612221
6006,10.1002/adma.201004200,80,1(a),324,Na0.007Pb0.993Se1,Na0.007Pb0.993Se1,481.5,0.013272,0.0000064194,0.00007116,2.1766,0.24533,155777.7985481509,0.0007888191,0.0003624089
6006,10.1002/adma.201004200,80,1(a),324,Na0.007Pb0.993Se1,Na0.007Pb0.993Se1,482,0.013257,0.0000064311,0.0000713,2.174,0.24652,155494.3944270809,0.0007904853,0.0003636087
6006,10.1002/adma.201004200,80,1(a),324,Na0.007Pb0.993Se1,Na0.007Pb0.993Se1,482.5,0.013243,0.0000064428,0.00007144,2.1715,0.24771,155212.0196187993,0.0007921515,0.0003647946
6006,10.1002/adma.201004200,80,1(a),324,Na0.007Pb0.993Se1,Na0.007Pb0.993Se1,483,0.013228,0.0000064546,0.00007158,2.1689,0.2489,154928.2682118179,0.0007938054,0.0003659945
6006,10.1002/adma.201004200,80,1(a),324,Na0.007Pb0.993Se1,Na0.007Pb0.993Se1,483.5,0.013213,0.0000064664,0.00007172,2.1664,0.25008,154645.5523939132,0.0007954594,0.0003671803
6006,10.1002/adma.201004200,80,1(a),324,Na0.007Pb0.993Se1,Na0.007Pb0.993Se1,484,0.013198,0.0000064782,0.000071861,2.1638,0.25127,154363.8665061283,0.0007971355,0.0003683961
6006,10.1002/adma.201004200,80,1(a),324,Na0.007Pb0.993Se1,Na0.007Pb0.993Se1,484.5,0.013183,0.0000064901,0.000072002,2.1613,0.25246,154080.8308038397,0.0007987994,0.0003695921
6006,10.1002/adma.201004200,80,1(a),324,Na0.007Pb0.993Se1,Na0.007Pb0.993Se1,485,0.013168,0.0000065019,0.000072143,2.1588,0.25365,153801.1965733093,0.0008004756,0.0003707966
6006,10.1002/adma.201004200,80,1(a),324,Na0.007Pb0.993Se1,Na0.007Pb0.993Se1,485.5,0.013154,0.0000065138,0.000072285,2.1562,0.25484,153520.2186127913,0.0008021618,0.0003720257
6006,10.1002/adma.201004200,80,1(a),324,Na0.007Pb0.993Se1,Na0.007Pb0.993Se1,486,0.013139,0.0000065257,0.000072426,2.1537,0.25603,153240.2654121397,0.0008038257,0.0003732301
6006,10.1002/adma.201004200,80,1(a),324,Na0.007Pb0.993Se1,Na0.007Pb0.993Se1,486.5,0.013124,0.0000065376,0.000072568,2.1512,0.25721,152961.3313754283,0.0008055119,0.0003744477
6006,10.1002/adma.201004200,80,1(a),324,Na0.007Pb0.993Se1,Na0.007Pb0.993Se1,487,0.013109,0.0000065496,0.00007271,2.1487,0.2584,152681.0797605961,0.0008071858,0.0003756624
6006,10.1002/adma.201004200,80,1(a),324,Na0.007Pb0.993Se1,Na0.007Pb0.993Se1,487.5,0.013094,0.0000065616,0.000072852,2.1462,0.25959,152401.853206535,0.0008088597,0.0003768799
6006,10.1002/adma.201004200,80,1(a),324,Na0.007Pb0.993Se1,Na0.007Pb0.993Se1,488,0.013079,0.0000065736,0.000072995,2.1437,0.26078,152123.6460995497,0.0008105559,0.0003781107
6006,10.1002/adma.201004200,80,1(a),324,Na0.007Pb0.993Se1,Na0.007Pb0.993Se1,488.5,0.013065,0.0000065856,0.000073137,2.1412,0.26197,151846.452866861,0.0008122298,0.0003793339
6006,10.1002/adma.201004200,80,1(a),324,Na0.007Pb0.993Se1,Na0.007Pb0.993Se1,489,0.01305,0.0000065976,0.00007328,2.1387,0.26316,151570.2679762338,0.000813926,0.0003805705
6006,10.1002/adma.201004200,80,1(a),324,Na0.007Pb0.993Se1,Na0.007Pb0.993Se1,489.5,0.013035,0.0000066097,0.000073424,2.1362,0.26434,151292.7969499372,0.0008156321,0.0003818145
6006,10.1002/adma.201004200,80,1(a),324,Na0.007Pb0.993Se1,Na0.007Pb0.993Se1,490,0.01302,0.0000066218,0.000073567,2.1337,0.26553,151016.3399679845,0.0008173161,0.0003830511
6006,10.1002/adma.201004200,80,1(a),324,Na0.007Pb0.993Se1,Na0.007Pb0.993Se1,490.5,0.013005,0.0000066339,0.000073711,2.1312,0.26672,150740.8914816322,0.0008190222,0.000384301
6006,10.1002/adma.201004200,80,1(a),324,Na0.007Pb0.993Se1,Na0.007Pb0.993Se1,491,0.01299,0.0000066461,0.000073854,2.1288,0.26791,150464.1820014745,0.0008206938,0.0003855195
6006,10.1002/adma.201004200,80,1(a),324,Na0.007Pb0.993Se1,Na0.007Pb0.993Se1,491.5,0.012976,0.0000066582,0.000073999,2.1263,0.2691,150190.7422426481,0.0008224223,0.0003867856
6006,10.1002/adma.201004200,80,1(a),324,Na0.007Pb0.993Se1,Na0.007Pb0.993Se1,492,0.012961,0.0000066704,0.000074143,2.1238,0.27029,149916.0470136724,0.0008241162,0.0003880385
6006,10.1002/adma.201004200,80,1(a),324,Na0.007Pb0.993Se1,Na0.007Pb0.993Se1,492.5,0.012946,0.0000066827,0.000074287,2.1214,0.27147,149640.1155221692,0.0008257977,0.0003892702
6006,10.1002/adma.201004200,80,1(a),324,Na0.007Pb0.993Se1,Na0.007Pb0.993Se1,493,0.012931,0.0000066949,0.000074432,2.1189,0.27266,149367.4289384457,0.0008275139,0.0003905394
6006,10.1002/adma.201004200,80,1(a),324,Na0.007Pb0.993Se1,Na0.007Pb0.993Se1,493.5,0.012916,0.0000067072,0.000074577,2.1164,0.27385,149093.5114503817,0.0008292177,0.0003918058
6006,10.1002/adma.201004200,80,1(a),324,Na0.007Pb0.993Se1,Na0.007Pb0.993Se1,494,0.012901,0.0000067194,0.000074722,2.114,0.27504,148822.811560556,0.0008309339,0.0003930624
6006,10.1002/adma.201004200,80,1(a),324,Na0.007Pb0.993Se1,Na0.007Pb0.993Se1,494.5,0.012887,0.0000067318,0.000074868,2.1116,0.27623,148548.6794022401,0.0008326476,0.0003943207
6006,10.1002/adma.201004200,80,1(a),324,Na0.007Pb0.993Se1,Na0.007Pb0.993Se1,495,0.012872,0.0000067441,0.000075014,2.1091,0.27742,148277.7538885841,0.0008343738,0.0003956066
6006,10.1002/adma.201004200,80,1(a),324,Na0.007Pb0.993Se1,Na0.007Pb0.993Se1,495.5,0.012857,0.0000067565,0.000075159,2.1067,0.2786,148005.6242137201,0.0008360653,0.0003968602
6006,10.1002/adma.201004200,80,1(a),324,Na0.007Pb0.993Se1,Na0.007Pb0.993Se1,496,0.012842,0.0000067688,0.000075306,2.1043,0.27979,147736.6741519915,0.0008378137,0.0003981437
6006,10.1002/adma.201004200,80,1(a),324,Na0.007Pb0.993Se1,Na0.007Pb0.993Se1,496.5,0.012827,0.0000067813,0.000075452,2.1018,0.28098,147464.3504932683,0.0008395152,0.0003994268
6006,10.1002/adma.201004200,80,1(a),324,Na0.007Pb0.993Se1,Na0.007Pb0.993Se1,497,0.012813,0.0000067937,0.000075599,2.0994,0.28217,147195.1955488173,0.0008412513,0.0004007103
6006,10.1002/adma.201004200,80,1(a),324,Na0.007Pb0.993Se1,Na0.007Pb0.993Se1,497.5,0.012798,0.0000068061,0.000075745,2.097,0.28336,146927.0213484962,0.0008429651,0.0004019862
6006,10.1002/adma.201004200,80,1(a),324,Na0.007Pb0.993Se1,Na0.007Pb0.993Se1,498,0.012783,0.0000068186,0.000075892,2.0946,0.28455,146657.6716628047,0.0008446889,0.0004032698
6006,10.1002/adma.201004200,80,1(a),324,Na0.007Pb0.993Se1,Na0.007Pb0.993Se1,498.5,0.012768,0.0000068311,0.00007604,2.0922,0.28573,146389.3077249638,0.0008464349,0.0004045669
6006,10.1002/adma.201004200,80,1(a),324,Na0.007Pb0.993Se1,Na0.007Pb0.993Se1,499,0.012753,0.0000068437,0.000076187,2.0898,0.28692,146119.7890030247,0.0008481463,0.0004058505
6006,10.1002/adma.201004200,80,1(a),324,Na0.007Pb0.993Se1,Na0.007Pb0.993Se1,499.5,0.012738,0.0000068562,0.000076335,2.0874,0.28811,145853.3881742073,0.0008498924,0.0004071536
6006,10.1002/adma.201004200,80,1(a),324,Na0.007Pb0.993Se1,Na0.007Pb0.993Se1,500,0.012724,0.0000068688,0.000076483,2.085,0.2893,145585.8374097368,0.0008516261,0.0004084538
6006,10.1002/adma.201004200,80,1(a),324,Na0.007Pb0.993Se1,Na0.007Pb0.993Se1,500.5,0.012709,0.0000068814,0.000076631,2.0826,0.29049,145319.2664283431,0.0008533598,0.0004097569
6006,10.1002/adma.201004200,80,1(a),324,Na0.007Pb0.993Se1,Na0.007Pb0.993Se1,501,0.012694,0.0000068941,0.000076779,2.0802,0.29168,145051.5658316532,0.0008550811,0.0004110572
6006,10.1002/adma.201004200,80,1(a),324,Na0.007Pb0.993Se1,Na0.007Pb0.993Se1,501.5,0.012679,0.0000069067,0.000076928,2.0778,0.29286,144786.9460089478,0.0008568372,0.0004123771
6006,10.1002/adma.201004200,80,1(a),324,Na0.007Pb0.993Se1,Na0.007Pb0.993Se1,502,0.012664,0.0000069194,0.000077077,2.0754,0.29405,144521.2012602249,0.0008585808,0.0004136941
6006,10.1002/adma.201004200,80,1(a),324,Na0.007Pb0.993Se1,Na0.007Pb0.993Se1,502.5,0.012649,0.0000069321,0.000077226,2.073,0.29524,144256.4302303775,0.0008603244,0.0004150142
6006,10.1002/adma.201004200,80,1(a),324,Na0.007Pb0.993Se1,Na0.007Pb0.993Se1,503,0.012635,0.0000069449,0.000077375,2.0707,0.29643,143990.5542196432,0.0008620557,0.0004163112
6006,10.1002/adma.201004200,80,1(a),324,Na0.007Pb0.993Se1,Na0.007Pb0.993Se1,503.5,0.01262,0.0000069576,0.000077525,2.0683,0.29762,143727.7222030585,0.0008638217,0.0004176481
6006,10.1002/adma.201004200,80,1(a),324,Na0.007Pb0.993Se1,Na0.007Pb0.993Se1,504,0.012605,0.0000069704,0.000077675,2.0659,0.29881,143463.7897394698,0.0008655752,0.0004189822
6006,10.1002/adma.201004200,80,1(a),324,Na0.007Pb0.993Se1,Na0.007Pb0.993Se1,504.5,0.01259,0.0000069832,0.000077825,2.0636,0.29999,143200.824836751,0.0008673288,0.0004202989
6006,10.1002/adma.201004200,80,1(a),324,Na0.007Pb0.993Se1,Na0.007Pb0.993Se1,505,0.012575,0.0000069961,0.000077975,2.0612,0.30118,142936.7790626206,0.00086907,0.000421633
6006,10.1002/adma.201004200,80,1(a),324,Na0.007Pb0.993Se1,Na0.007Pb0.993Se1,505.5,0.01256,0.0000070089,0.000078125,2.0589,0.30237,142675.7408437843,0.0008708236,0.0004229558
6006,10.1002/adma.201004200,80,1(a),324,Na0.007Pb0.993Se1,Na0.007Pb0.993Se1,506,0.012546,0.0000070218,0.000078276,2.0565,0.30356,142413.6261357487,0.0008725871,0.0004243069
6006,10.1002/adma.201004200,80,1(a),324,Na0.007Pb0.993Se1,Na0.007Pb0.993Se1,506.5,0.012531,0.0000070347,0.000078427,2.0542,0.30475,142152.4727422633,0.0008743506,0.0004256405
6006,10.1002/adma.201004200,80,1(a),324,Na0.007Pb0.993Se1,Na0.007Pb0.993Se1,507,0.012516,0.0000070477,0.000078578,2.0518,0.30594,141890.262071314,0.0008761017,0.0004269918
6006,10.1002/adma.201004200,80,1(a),324,Na0.007Pb0.993Se1,Na0.007Pb0.993Se1,507.5,0.012501,0.0000070607,0.000078729,2.0495,0.30712,141629.0169529933,0.0008778528,0.0004283254
6006,10.1002/adma.201004200,80,1(a),324,Na0.007Pb0.993Se1,Na0.007Pb0.993Se1,508,0.012486,0.0000070737,0.000078881,2.0472,0.30831,141368.7320638421,0.0008796262,0.0004296728
6006,10.1002/adma.201004200,80,1(a),324,Na0.007Pb0.993Se1,Na0.007Pb0.993Se1,508.5,0.012471,0.0000070867,0.000079033,2.0448,0.3095,141109.4021194632,0.0008813997,0.0004310444
6006,10.1002/adma.201004200,80,1(a),324,Na0.007Pb0.993Se1,Na0.007Pb0.993Se1,509,0.012457,0.0000070997,0.000079185,2.0425,0.31069,140851.0218741637,0.0008831731,0.0004323981
6006,10.1002/adma.201004200,80,1(a),324,Na0.007Pb0.993Se1,Na0.007Pb0.993Se1,509.5,0.012442,0.0000071128,0.000079337,2.0402,0.31188,140591.6094927455,0.0008849341,0.0004337487
6006,10.1002/adma.201004200,80,1(a),324,Na0.007Pb0.993Se1,Na0.007Pb0.993Se1,510,0.012427,0.0000071259,0.00007949,2.0379,0.31307,140333.1509002372,0.0008867175,0.0004351133
6006,10.1002/adma.201004200,80,1(a),324,Na0.007Pb0.993Se1,Na0.007Pb0.993Se1,510.5,0.012412,0.0000071391,0.000079642,2.0355,0.31425,140073.6787550251,0.0008884661,0.0004364854
6006,10.1002/adma.201004200,80,1(a),324,Na0.007Pb0.993Se1,Na0.007Pb0.993Se1,511,0.012397,0.0000071522,0.000079795,2.0332,0.31544,139817.1192080758,0.0008902494,0.0004378563
6006,10.1002/adma.201004200,80,1(a),324,Na0.007Pb0.993Se1,Na0.007Pb0.993Se1,511.5,0.012382,0.0000071654,0.000079948,2.0309,0.31663,139559.5500600106,0.0008920204,0.0004392242
6006,10.1002/adma.201004200,80,1(a),324,Na0.007Pb0.993Se1,Na0.007Pb0.993Se1,512,0.012368,0.0000071786,0.000080102,2.0286,0.31782,139302.9281475497,0.0008938136,0.0004406061
6006,10.1002/adma.201004200,80,1(a),324,Na0.007Pb0.993Se1,Na0.007Pb0.993Se1,512.5,0.012353,0.0000071918,0.000080255,2.0263,0.31901,139047.248254957,0.0008955846,0.0004419802
6006,10.1002/adma.201004200,80,1(a),324,Na0.007Pb0.993Se1,Na0.007Pb0.993Se1,513,0.012338,0.0000072051,0.000080409,2.024,0.3202,138790.5788955046,0.0008973654,0.0004433623
6006,10.1002/adma.201004200,80,1(a),324,Na0.007Pb0.993Se1,Na0.007Pb0.993Se1,513.5,0.012323,0.0000072184,0.000080563,2.0217,0.32138,138534.855369611,0.0008991462,0.0004447476
6006,10.1002/adma.201004200,80,1(a),324,Na0.007Pb0.993Se1,Na0.007Pb0.993Se1,514,0.012308,0.0000072317,0.000080717,2.0194,0.32257,138280.072458758,0.000900927,0.000446136
6006,10.1002/adma.201004200,80,1(a),324,Na0.007Pb0.993Se1,Na0.007Pb0.993Se1,514.5,0.012294,0.0000072451,0.000080872,2.0172,0.32376,138024.3198851638,0.0009027178,0.0004475103
6006,10.1002/adma.201004200,80,1(a),324,Na0.007Pb0.993Se1,Na0.007Pb0.993Se1,515,0.012279,0.0000072585,0.000081027,2.0149,0.32495,137769.5116070813,0.0009045085,0.0004489099
6006,10.1002/adma.201004200,80,1(a),324,Na0.007Pb0.993Se1,Na0.007Pb0.993Se1,515.5,0.012264,0.0000072719,0.000081182,2.0126,0.32614,137515.6424043235,0.0009062992,0.0004503126
6006,10.1002/adma.201004200,80,1(a),324,Na0.007Pb0.993Se1,Na0.007Pb0.993Se1,516,0.012249,0.0000072853,0.000081337,2.0103,0.32733,137262.7070951093,0.0009080899,0.0004517186
6006,10.1002/adma.201004200,80,1(a),324,Na0.007Pb0.993Se1,Na0.007Pb0.993Se1,516.5,0.012234,0.0000072988,0.000081492,2.008,0.32851,137008.8233682249,0.0009098682,0.0004531216
6006,10.1002/adma.201004200,80,1(a),324,Na0.007Pb0.993Se1,Na0.007Pb0.993Se1,517,0.012219,0.0000073122,0.000081648,2.0058,0.3297,136757.747326386,0.0009116813,0.0004545225
6006,10.1002/adma.201004200,80,1(a),324,Na0.007Pb0.993Se1,Na0.007Pb0.993Se1,517.5,0.012205,0.0000073258,0.000081804,2.0035,0.33089,136503.8630593246,0.0009134694,0.0004559368
6006,10.1002/adma.201004200,80,1(a),324,Na0.007Pb0.993Se1,Na0.007Pb0.993Se1,518,0.01219,0.0000073393,0.00008196,2.0012,0.33208,136252.7761503141,0.0009152701,0.0004573606
6006,10.1002/adma.201004200,80,1(a),324,Na0.007Pb0.993Se1,Na0.007Pb0.993Se1,518.5,0.012175,0.0000073529,0.000082116,1.999,0.33327,136000.761604265,0.0009170582,0.0004587585
6006,10.1002/adma.201004200,80,1(a),324,Na0.007Pb0.993Se1,Na0.007Pb0.993Se1,519,0.01216,0.0000073665,0.000082273,1.9967,0.33446,135749.6775945157,0.0009188687,0.0004601937
6006,10.1002/adma.201004200,80,1(a),324,Na0.007Pb0.993Se1,Na0.007Pb0.993Se1,519.5,0.012145,0.0000073801,0.000082429,1.9945,0.33565,135499.5189767076,0.0009206569,0.0004615978
6006,10.1002/adma.201004200,80,1(a),324,Na0.007Pb0.993Se1,Na0.007Pb0.993Se1,520,0.01213,0.0000073938,0.000082586,1.9922,0.33683,135248.4514052314,0.0009224549,0.0004630333
6006,10.1002/adma.201004200,80,1(a),324,Na0.007Pb0.993Se1,Na0.007Pb0.993Se1,520.5,0.012116,0.0000074075,0.000082743,1.99,0.33802,134998.3125210935,0.000924253,0.0004644487
6006,10.1002/adma.201004200,80,1(a),324,Na0.007Pb0.993Se1,Na0.007Pb0.993Se1,521,0.012101,0.0000074212,0.000082901,1.9877,0.33921,134749.0971810489,0.0009260734,0.000465902
6006,10.1002/adma.201004200,80,1(a),324,Na0.007Pb0.993Se1,Na0.007Pb0.993Se1,521.5,0.012086,0.0000074349,0.000083059,1.9855,0.3404,134500.8002797617,0.0009278938,0.0004673351
6006,10.1002/adma.201004200,80,1(a),324,Na0.007Pb0.993Se1,Na0.007Pb0.993Se1,522,0.012071,0.0000074487,0.000083216,1.9833,0.34159,134251.6143756629,0.0009296794,0.0004687538