sid,DOI,figureid,fignum,sampleid,samplename,composition,Temperature,Carrier mobility,Electrical resistivity,Seebeck coefficient,Thermal conductivity,ZT,Electrical conductivity,Power factor,Figure of merit Z
6006,10.1002/adma.201004200,80,1(a),324,Na0.007Pb0.993Se1,Na0.007Pb0.993Se1,408.5,0.015437,0.0000049368,0.000053148,2.6243,0.071833,202560.3629881705,0.0005721743,0.0002180293
6006,10.1002/adma.201004200,80,1(a),324,Na0.007Pb0.993Se1,Na0.007Pb0.993Se1,409,0.015422,0.0000049455,0.000053255,2.6205,0.073022,202204.0238600748,0.0005734698,0.0002188398
6006,10.1002/adma.201004200,80,1(a),324,Na0.007Pb0.993Se1,Na0.007Pb0.993Se1,409.5,0.015407,0.0000049541,0.000053363,2.6168,0.07421,201853.0106376537,0.0005747986,0.0002196571
6006,10.1002/adma.201004200,80,1(a),324,Na0.007Pb0.993Se1,Na0.007Pb0.993Se1,410,0.015393,0.0000049628,0.000053472,2.6131,0.075398,201499.1537035544,0.0005761374,0.0002204804
6006,10.1002/adma.201004200,80,1(a),324,Na0.007Pb0.993Se1,Na0.007Pb0.993Se1,410.5,0.015378,0.0000049714,0.00005358,2.6095,0.076587,201150.58132518,0.0005774664,0.0002212939
6006,10.1002/adma.201004200,80,1(a),324,Na0.007Pb0.993Se1,Na0.007Pb0.993Se1,411,0.015363,0.0000049802,0.000053689,2.6058,0.077775,200795.1487892052,0.0005787938,0.0002221175
6006,10.1002/adma.201004200,80,1(a),324,Na0.007Pb0.993Se1,Na0.007Pb0.993Se1,411.5,0.015348,0.0000049889,0.000053798,2.6021,0.078963,200444.9878730782,0.0005801329,0.0002229479
6006,10.1002/adma.201004200,80,1(a),324,Na0.007Pb0.993Se1,Na0.007Pb0.993Se1,412,0.015333,0.0000049976,0.000053907,2.5985,0.080152,200096.046102129,0.000581472,0.0002237722
6006,10.1002/adma.201004200,80,1(a),324,Na0.007Pb0.993Se1,Na0.007Pb0.993Se1,412.5,0.015318,0.0000050064,0.000054016,2.5948,0.08134,199744.3272611058,0.0005827997,0.0002246029
6006,10.1002/adma.201004200,80,1(a),324,Na0.007Pb0.993Se1,Na0.007Pb0.993Se1,413,0.015304,0.0000050152,0.000054126,2.5912,0.082528,199393.8427181369,0.000584149,0.0002254357
6006,10.1002/adma.201004200,80,1(a),324,Na0.007Pb0.993Se1,Na0.007Pb0.993Se1,413.5,0.015289,0.000005024,0.000054235,2.5876,0.083717,199044.5859872611,0.0005854768,0.0002262625
6006,10.1002/adma.201004200,80,1(a),324,Na0.007Pb0.993Se1,Na0.007Pb0.993Se1,414,0.015274,0.0000050329,0.000054345,2.584,0.084905,198692.6026744024,0.0005868146,0.0002270954
6006,10.1002/adma.201004200,80,1(a),324,Na0.007Pb0.993Se1,Na0.007Pb0.993Se1,414.5,0.015259,0.0000050417,0.000054455,2.5804,0.086093,198345.7960608525,0.0005881641,0.0002279352
6006,10.1002/adma.201004200,80,1(a),324,Na0.007Pb0.993Se1,Na0.007Pb0.993Se1,415,0.015244,0.0000050506,0.000054566,2.5768,0.087282,197996.2776699798,0.0005895237,0.0002287813
6006,10.1002/adma.201004200,80,1(a),324,Na0.007Pb0.993Se1,Na0.007Pb0.993Se1,415.5,0.015229,0.0000050595,0.000054676,2.5732,0.08847,197647.9889317126,0.0005908617,0.0002296214
6006,10.1002/adma.201004200,80,1(a),324,Na0.007Pb0.993Se1,Na0.007Pb0.993Se1,416,0.015215,0.0000050684,0.000054787,2.5696,0.089658,197300.9233683214,0.0005922215,0.0002304722
6006,10.1002/adma.201004200,80,1(a),324,Na0.007Pb0.993Se1,Na0.007Pb0.993Se1,416.5,0.0152,0.0000050774,0.000054898,2.5661,0.090847,196951.1954937566,0.0005935696,0.000231312
6006,10.1002/adma.201004200,80,1(a),324,Na0.007Pb0.993Se1,Na0.007Pb0.993Se1,417,0.015185,0.0000050864,0.000055009,2.5625,0.092035,196602.7052532243,0.0005949178,0.0002321631
6006,10.1002/adma.201004200,80,1(a),324,Na0.007Pb0.993Se1,Na0.007Pb0.993Se1,417.5,0.01517,0.0000050954,0.00005512,2.559,0.093223,196255.4460886289,0.0005962661,0.0002330075
6006,10.1002/adma.201004200,80,1(a),324,Na0.007Pb0.993Se1,Na0.007Pb0.993Se1,418,0.015155,0.0000051044,0.000055232,2.5555,0.094412,195909.4114881279,0.0005976361,0.0002338627
6006,10.1002/adma.201004200,80,1(a),324,Na0.007Pb0.993Se1,Na0.007Pb0.993Se1,418.5,0.01514,0.0000051134,0.000055343,2.552,0.0956,195564.5949857238,0.0005989846,0.0002347118
6006,10.1002/adma.201004200,80,1(a),324,Na0.007Pb0.993Se1,Na0.007Pb0.993Se1,419,0.015126,0.0000051225,0.000055455,2.5485,0.096788,195217.1791117619,0.000600343,0.0002355672
6006,10.1002/adma.201004200,80,1(a),324,Na0.007Pb0.993Se1,Na0.007Pb0.993Se1,419.5,0.015111,0.0000051315,0.000055568,2.545,0.097977,194874.7929455325,0.0006017349,0.0002364381
6006,10.1002/adma.201004200,80,1(a),324,Na0.007Pb0.993Se1,Na0.007Pb0.993Se1,420,0.015096,0.0000051406,0.00005568,2.5415,0.099165,194529.8214216239,0.0006030935,0.0002372982
6006,10.1002/adma.201004200,80,1(a),324,Na0.007Pb0.993Se1,Na0.007Pb0.993Se1,420.5,0.015081,0.0000051498,0.000055792,2.538,0.10035,194182.2983416832,0.0006044404,0.0002381562
6006,10.1002/adma.201004200,80,1(a),324,Na0.007Pb0.993Se1,Na0.007Pb0.993Se1,421,0.015066,0.0000051589,0.000055905,2.5346,0.10154,193839.7720444281,0.0006058208,0.0002390203
6006,10.1002/adma.201004200,80,1(a),324,Na0.007Pb0.993Se1,Na0.007Pb0.993Se1,421.5,0.015052,0.0000051681,0.000056018,2.5311,0.10273,193494.7079197384,0.0006071896,0.0002398916
6006,10.1002/adma.201004200,80,1(a),324,Na0.007Pb0.993Se1,Na0.007Pb0.993Se1,422,0.015037,0.0000051773,0.000056131,2.5277,0.10392,193150.87014467,0.0006085584,0.0002407558
6006,10.1002/adma.201004200,80,1(a),324,Na0.007Pb0.993Se1,Na0.007Pb0.993Se1,422.5,0.015022,0.0000051865,0.000056245,2.5243,0.10511,192808.2521931939,0.0006099489,0.0002416309
6006,10.1002/adma.201004200,80,1(a),324,Na0.007Pb0.993Se1,Na0.007Pb0.993Se1,423,0.015007,0.0000051957,0.000056358,2.5208,0.1063,192466.8475855034,0.0006113179,0.0002425095
6006,10.1002/adma.201004200,80,1(a),324,Na0.007Pb0.993Se1,Na0.007Pb0.993Se1,423.5,0.014992,0.0000052049,0.000056472,2.5174,0.10748,192126.6498876059,0.0006127086,0.0002433894
6006,10.1002/adma.201004200,80,1(a),324,Na0.007Pb0.993Se1,Na0.007Pb0.993Se1,424,0.014977,0.0000052142,0.000056586,2.514,0.10867,191783.9745310882,0.0006140876,0.0002442671
6006,10.1002/adma.201004200,80,1(a),324,Na0.007Pb0.993Se1,Na0.007Pb0.993Se1,424.5,0.014963,0.0000052235,0.000056701,2.5106,0.10986,191442.5193835551,0.0006154884,0.0002451559
6006,10.1002/adma.201004200,80,1(a),324,Na0.007Pb0.993Se1,Na0.007Pb0.993Se1,425,0.014948,0.0000052328,0.000056815,2.5073,0.11105,191102.277939153,0.0006168675,0.0002460286
6006,10.1002/adma.201004200,80,1(a),324,Na0.007Pb0.993Se1,Na0.007Pb0.993Se1,425.5,0.014933,0.0000052422,0.00005693,2.5039,0.11224,190759.604746099,0.0006182566,0.0002469175
6006,10.1002/adma.201004200,80,1(a),324,Na0.007Pb0.993Se1,Na0.007Pb0.993Se1,426,0.014918,0.0000052515,0.000057045,2.5005,0.11343,190421.7842521185,0.0006196576,0.0002478135
6006,10.1002/adma.201004200,80,1(a),324,Na0.007Pb0.993Se1,Na0.007Pb0.993Se1,426.5,0.014903,0.0000052609,0.00005716,2.4972,0.11461,190081.5449827976,0.0006210469,0.0002486973
6006,10.1002/adma.201004200,80,1(a),324,Na0.007Pb0.993Se1,Na0.007Pb0.993Se1,427,0.014888,0.0000052703,0.000057275,2.4938,0.1158,189742.5194011726,0.0006224362,0.0002495935
6006,10.1002/adma.201004200,80,1(a),324,Na0.007Pb0.993Se1,Na0.007Pb0.993Se1,427.5,0.014874,0.0000052797,0.000057391,2.4905,0.11699,189404.7010246794,0.0006238474,0.0002504908
6006,10.1002/adma.201004200,80,1(a),324,Na0.007Pb0.993Se1,Na0.007Pb0.993Se1,428,0.014859,0.0000052891,0.000057506,2.4872,0.11818,189068.0834168384,0.0006252368,0.0002513818
6006,10.1002/adma.201004200,80,1(a),324,Na0.007Pb0.993Se1,Na0.007Pb0.993Se1,428.5,0.014844,0.0000052986,0.000057622,2.4839,0.11937,188729.0982523685,0.0006266363,0.0002522792
6006,10.1002/adma.201004200,80,1(a),324,Na0.007Pb0.993Se1,Na0.007Pb0.993Se1,429,0.014829,0.0000053081,0.000057738,2.4806,0.12056,188391.3264633296,0.0006280358,0.000253179
6006,10.1002/adma.201004200,80,1(a),324,Na0.007Pb0.993Se1,Na0.007Pb0.993Se1,429.5,0.014814,0.0000053176,0.000057855,2.4773,0.12174,188054.7615465624,0.0006294571,0.00025409
6006,10.1002/adma.201004200,80,1(a),324,Na0.007Pb0.993Se1,Na0.007Pb0.993Se1,430,0.014799,0.0000053271,0.000057971,2.474,0.12293,187719.3970452967,0.0006308567,0.0002549946
6006,10.1002/adma.201004200,80,1(a),324,Na0.007Pb0.993Se1,Na0.007Pb0.993Se1,430.5,0.014785,0.0000053366,0.000058088,2.4707,0.12412,187385.2265487389,0.0006322782,0.0002559105
6006,10.1002/adma.201004200,80,1(a),324,Na0.007Pb0.993Se1,Na0.007Pb0.993Se1,431,0.01477,0.0000053462,0.000058205,2.4674,0.12531,187048.7449029217,0.0006336879,0.0002568241
6006,10.1002/adma.201004200,80,1(a),324,Na0.007Pb0.993Se1,Na0.007Pb0.993Se1,431.5,0.014755,0.0000053558,0.000058322,2.4642,0.1265,186713.4695096904,0.0006350976,0.0002577297
6006,10.1002/adma.201004200,80,1(a),324,Na0.007Pb0.993Se1,Na0.007Pb0.993Se1,432,0.01474,0.0000053654,0.00005844,2.4609,0.12769,186379.393894211,0.0006365292,0.0002586571
6006,10.1002/adma.201004200,80,1(a),324,Na0.007Pb0.993Se1,Na0.007Pb0.993Se1,432.5,0.014725,0.000005375,0.000058557,2.4577,0.12887,186046.511627907,0.000637939,0.0002595675
6006,10.1002/adma.201004200,80,1(a),324,Na0.007Pb0.993Se1,Na0.007Pb0.993Se1,433,0.01471,0.0000053847,0.000058675,2.4545,0.13006,185711.3673927981,0.0006393589,0.0002604844
6006,10.1002/adma.201004200,80,1(a),324,Na0.007Pb0.993Se1,Na0.007Pb0.993Se1,433.5,0.014696,0.0000053943,0.000058793,2.4512,0.13125,185380.864987116,0.0006407906,0.0002614192
6006,10.1002/adma.201004200,80,1(a),324,Na0.007Pb0.993Se1,Na0.007Pb0.993Se1,434,0.014681,0.000005404,0.000058912,2.448,0.13244,185048.1125092524,0.0006422324,0.0002623498
6006,10.1002/adma.201004200,80,1(a),324,Na0.007Pb0.993Se1,Na0.007Pb0.993Se1,434.5,0.014666,0.0000054137,0.00005903,2.4448,0.13363,184716.5524502651,0.0006436524,0.000263274
6006,10.1002/adma.201004200,80,1(a),324,Na0.007Pb0.993Se1,Na0.007Pb0.993Se1,435,0.014651,0.0000054235,0.000059149,2.4416,0.13482,184382.7786484742,0.0006450824,0.0002642048
6006,10.1002/adma.201004200,80,1(a),324,Na0.007Pb0.993Se1,Na0.007Pb0.993Se1,435.5,0.014636,0.0000054332,0.000059268,2.4384,0.136,184053.5964072738,0.0006465243,0.0002651428
6006,10.1002/adma.201004200,80,1(a),324,Na0.007Pb0.993Se1,Na0.007Pb0.993Se1,436,0.014622,0.000005443,0.000059387,2.4353,0.13719,183722.2120154327,0.0006479544,0.0002660676
6006,10.1002/adma.201004200,80,1(a),324,Na0.007Pb0.993Se1,Na0.007Pb0.993Se1,436.5,0.014607,0.0000054528,0.000059506,2.4321,0.13838,183392.0187793427,0.0006493845,0.0002670057
6006,10.1002/adma.201004200,80,1(a),324,Na0.007Pb0.993Se1,Na0.007Pb0.993Se1,437,0.014592,0.0000054626,0.000059626,2.4289,0.13957,183063.0102881412,0.0006508366,0.0002679553
6006,10.1002/adma.201004200,80,1(a),324,Na0.007Pb0.993Se1,Na0.007Pb0.993Se1,437.5,0.014577,0.0000054724,0.000059746,2.4258,0.14076,182735.1801768876,0.0006522887,0.0002688963
6006,10.1002/adma.201004200,80,1(a),324,Na0.007Pb0.993Se1,Na0.007Pb0.993Se1,438,0.014562,0.0000054823,0.000059866,2.4226,0.14195,182405.1948999508,0.0006537289,0.000269846
6006,10.1002/adma.201004200,80,1(a),324,Na0.007Pb0.993Se1,Na0.007Pb0.993Se1,438.5,0.014547,0.0000054921,0.000059986,2.4195,0.14313,182079.7144990076,0.0006551811,0.0002707919
6006,10.1002/adma.201004200,80,1(a),324,Na0.007Pb0.993Se1,Na0.007Pb0.993Se1,439,0.014533,0.000005502,0.000060107,2.4164,0.14432,181752.0901490367,0.0006566433,0.0002717445
6006,10.1002/adma.201004200,80,1(a),324,Na0.007Pb0.993Se1,Na0.007Pb0.993Se1,439.5,0.014518,0.0000055119,0.000060227,2.4132,0.14551,181425.6427003393,0.0006580837,0.0002727017
6006,10.1002/adma.201004200,80,1(a),324,Na0.007Pb0.993Se1,Na0.007Pb0.993Se1,440,0.014503,0.0000055219,0.000060348,2.4101,0.1467,181097.0861478839,0.0006595341,0.0002736542
6006,10.1002/adma.201004200,80,1(a),324,Na0.007Pb0.993Se1,Na0.007Pb0.993Se1,440.5,0.014488,0.0000055318,0.000060469,2.407,0.14789,180772.985285079,0.0006609964,0.0002746142
6006,10.1002/adma.201004200,80,1(a),324,Na0.007Pb0.993Se1,Na0.007Pb0.993Se1,441,0.014473,0.0000055418,0.000060591,2.4039,0.14908,180446.786242737,0.0006624687,0.0002755808
6006,10.1002/adma.201004200,80,1(a),324,Na0.007Pb0.993Se1,Na0.007Pb0.993Se1,441.5,0.014458,0.0000055518,0.000060712,2.4009,0.15026,180121.7623113225,0.0006639193,0.0002765293
6006,10.1002/adma.201004200,80,1(a),324,Na0.007Pb0.993Se1,Na0.007Pb0.993Se1,442,0.014444,0.0000055618,0.000060834,2.3978,0.15145,179797.9071523607,0.0006653917,0.0002775009
6006,10.1002/adma.201004200,80,1(a),324,Na0.007Pb0.993Se1,Na0.007Pb0.993Se1,442.5,0.014429,0.0000055719,0.000060956,2.3947,0.15264,179471.9933954306,0.0006668522,0.0002784701
6006,10.1002/adma.201004200,80,1(a),324,Na0.007Pb0.993Se1,Na0.007Pb0.993Se1,443,0.014414,0.0000055819,0.000061078,2.3916,0.15383,179150.4684784751,0.0006683248,0.0002794467
6006,10.1002/adma.201004200,80,1(a),324,Na0.007Pb0.993Se1,Na0.007Pb0.993Se1,443.5,0.014399,0.000005592,0.000061201,2.3886,0.15502,178826.895565093,0.0006698073,0.0002804184
6006,10.1002/adma.201004200,80,1(a),324,Na0.007Pb0.993Se1,Na0.007Pb0.993Se1,444,0.014384,0.0000056021,0.000061323,2.3855,0.15621,178504.4893879081,0.000671268,0.0002813951
6006,10.1002/adma.201004200,80,1(a),324,Na0.007Pb0.993Se1,Na0.007Pb0.993Se1,444.5,0.014369,0.0000056122,0.000061446,2.3825,0.15739,178183.2436477673,0.0006727506,0.0002823717
6006,10.1002/adma.201004200,80,1(a),324,Na0.007Pb0.993Se1,Na0.007Pb0.993Se1,445,0.014355,0.0000056224,0.000061569,2.3795,0.15858,177859.9886169607,0.0006742213,0.0002833458
6006,10.1002/adma.201004200,80,1(a),324,Na0.007Pb0.993Se1,Na0.007Pb0.993Se1,445.5,0.01434,0.0000056325,0.000061693,2.3765,0.15977,177541.0563692854,0.0006757259,0.0002843366
6006,10.1002/adma.201004200,80,1(a),324,Na0.007Pb0.993Se1,Na0.007Pb0.993Se1,446,0.014325,0.0000056427,0.000061816,2.3734,0.16096,177220.1251174083,0.0006771967,0.0002853277
6006,10.1002/adma.201004200,80,1(a),324,Na0.007Pb0.993Se1,Na0.007Pb0.993Se1,446.5,0.01431,0.0000056529,0.00006194,2.3704,0.16215,176900.3520317005,0.0006786895,0.0002863185
6006,10.1002/adma.201004200,80,1(a),324,Na0.007Pb0.993Se1,Na0.007Pb0.993Se1,447,0.014295,0.0000056631,0.000062064,2.3674,0.16334,176581.7308541258,0.0006801822,0.0002873119
6006,10.1002/adma.201004200,80,1(a),324,Na0.007Pb0.993Se1,Na0.007Pb0.993Se1,447.5,0.01428,0.0000056734,0.000062188,2.3644,0.16452,176261.1485176437,0.0006816631,0.0002883028
6006,10.1002/adma.201004200,80,1(a),324,Na0.007Pb0.993Se1,Na0.007Pb0.993Se1,448,0.014266,0.0000056836,0.000062313,2.3615,0.16571,175944.8237032866,0.0006831779,0.0002892983
6006,10.1002/adma.201004200,80,1(a),324,Na0.007Pb0.993Se1,Na0.007Pb0.993Se1,448.5,0.014251,0.0000056939,0.000062437,2.3585,0.1669,175626.5477089517,0.0006846588,0.0002902942
6006,10.1002/adma.201004200,80,1(a),324,Na0.007Pb0.993Se1,Na0.007Pb0.993Se1,449,0.014236,0.0000057042,0.000062562,2.3555,0.16809,175309.4211282914,0.0006861617,0.000291302
6006,10.1002/adma.201004200,80,1(a),324,Na0.007Pb0.993Se1,Na0.007Pb0.993Se1,449.5,0.014221,0.0000057146,0.000062687,2.3525,0.16928,174990.3755293459,0.0006876527,0.0002923072
6006,10.1002/adma.201004200,80,1(a),324,Na0.007Pb0.993Se1,Na0.007Pb0.993Se1,450,0.014206,0.0000057249,0.000062812,2.3496,0.17047,174675.540184108,0.0006891557,0.0002933077
6006,10.1002/adma.201004200,80,1(a),324,Na0.007Pb0.993Se1,Na0.007Pb0.993Se1,450.5,0.014191,0.0000057353,0.000062938,2.3466,0.17165,174358.7955294405,0.0006906686,0.0002943274
6006,10.1002/adma.201004200,80,1(a),324,Na0.007Pb0.993Se1,Na0.007Pb0.993Se1,451,0.014177,0.0000057457,0.000063064,2.3437,0.17284,174043.1975216249,0.0006921816,0.0002953371
6006,10.1002/adma.201004200,80,1(a),324,Na0.007Pb0.993Se1,Na0.007Pb0.993Se1,451.5,0.014162,0.0000057561,0.00006319,2.3408,0.17403,173728.7399454492,0.0006936947,0.0002963494
6006,10.1002/adma.201004200,80,1(a),324,Na0.007Pb0.993Se1,Na0.007Pb0.993Se1,452,0.014147,0.0000057665,0.000063316,2.3378,0.17522,173415.4166305385,0.0006952078,0.0002973769
6006,10.1002/adma.201004200,80,1(a),324,Na0.007Pb0.993Se1,Na0.007Pb0.993Se1,452.5,0.014132,0.000005777,0.000063442,2.3349,0.17641,173100.2250302926,0.0006967089,0.0002983892
6006,10.1002/adma.201004200,80,1(a),324,Na0.007Pb0.993Se1,Na0.007Pb0.993Se1,453,0.014117,0.0000057874,0.000063569,2.332,0.1776,172789.1626637177,0.0006982441,0.0002994186
6006,10.1002/adma.201004200,80,1(a),324,Na0.007Pb0.993Se1,Na0.007Pb0.993Se1,453.5,0.014103,0.0000057979,0.000063696,2.3291,0.17878,172476.2413977474,0.0006997672,0.0003004453
6006,10.1002/adma.201004200,80,1(a),324,Na0.007Pb0.993Se1,Na0.007Pb0.993Se1,454,0.014088,0.0000058084,0.000063823,2.3262,0.17997,172164.4514840576,0.0007012904,0.0003014747
6006,10.1002/adma.201004200,80,1(a),324,Na0.007Pb0.993Se1,Na0.007Pb0.993Se1,454.5,0.014073,0.000005819,0.00006395,2.3233,0.18116,171850.8334765424,0.0007028016,0.0003025014
6006,10.1002/adma.201004200,80,1(a),324,Na0.007Pb0.993Se1,Na0.007Pb0.993Se1,455,0.014058,0.0000058295,0.000064078,2.3204,0.18235,171541.2985676302,0.0007043469,0.0003035455
6006,10.1002/adma.201004200,80,1(a),324,Na0.007Pb0.993Se1,Na0.007Pb0.993Se1,455.5,0.014043,0.0000058401,0.000064206,2.3176,0.18354,171229.9446927278,0.0007058801,0.0003045737
6006,10.1002/adma.201004200,80,1(a),324,Na0.007Pb0.993Se1,Na0.007Pb0.993Se1,456,0.014028,0.0000058507,0.000064334,2.3147,0.18473,170919.719007982,0.0007074134,0.0003056177
6006,10.1002/adma.201004200,80,1(a),324,Na0.007Pb0.993Se1,Na0.007Pb0.993Se1,456.5,0.014014,0.0000058613,0.000064462,2.3118,0.18591,170610.6153924897,0.0007089467,0.0003066644
6006,10.1002/adma.201004200,80,1(a),324,Na0.007Pb0.993Se1,Na0.007Pb0.993Se1,457,0.013999,0.0000058719,0.00006459,2.309,0.1871,170302.6277695465,0.0007104801,0.0003077003
6006,10.1002/adma.201004200,80,1(a),324,Na0.007Pb0.993Se1,Na0.007Pb0.993Se1,457.5,0.013984,0.0000058826,0.000064719,2.3061,0.18829,169992.8602998674,0.0007120234,0.0003087565
6006,10.1002/adma.201004200,80,1(a),324,Na0.007Pb0.993Se1,Na0.007Pb0.993Se1,458,0.013969,0.0000058933,0.000064848,2.3033,0.18948,169684.2176709144,0.0007135668,0.0003098019
6006,10.1002/adma.201004200,80,1(a),324,Na0.007Pb0.993Se1,Na0.007Pb0.993Se1,458.5,0.013954,0.000005904,0.000064977,2.3004,0.19067,169376.6937669377,0.0007151102,0.0003108634
6006,10.1002/adma.201004200,80,1(a),324,Na0.007Pb0.993Se1,Na0.007Pb0.993Se1,459,0.013939,0.0000059147,0.000065106,2.2976,0.19186,169070.2825164421,0.0007166536,0.000311914
6006,10.1002/adma.201004200,80,1(a),324,Na0.007Pb0.993Se1,Na0.007Pb0.993Se1,459.5,0.013925,0.0000059254,0.000065236,2.2948,0.19304,168764.9778917879,0.0007182191,0.0003129768
6006,10.1002/adma.201004200,80,1(a),324,Na0.007Pb0.993Se1,Na0.007Pb0.993Se1,460,0.01391,0.0000059362,0.000065366,2.292,0.19423,168457.9360533675,0.0007197726,0.0003140369
6006,10.1002/adma.201004200,80,1(a),324,Na0.007Pb0.993Se1,Na0.007Pb0.993Se1,460.5,0.013895,0.000005947,0.000065496,2.2892,0.19542,168152.0094165125,0.000721326,0.0003150996
6006,10.1002/adma.201004200,80,1(a),324,Na0.007Pb0.993Se1,Na0.007Pb0.993Se1,461,0.01388,0.0000059578,0.000065626,2.2864,0.19661,167847.1919164792,0.0007228796,0.000316165
6006,10.1002/adma.201004200,80,1(a),324,Na0.007Pb0.993Se1,Na0.007Pb0.993Se1,461.5,0.013865,0.0000059686,0.000065756,2.2836,0.1978,167543.4775324197,0.0007244331,0.0003172329
6006,10.1002/adma.201004200,80,1(a),324,Na0.007Pb0.993Se1,Na0.007Pb0.993Se1,462,0.01385,0.0000059795,0.000065887,2.2808,0.19899,167238.063383226,0.0007259966,0.0003183079
6006,10.1002/adma.201004200,80,1(a),324,Na0.007Pb0.993Se1,Na0.007Pb0.993Se1,462.5,0.013836,0.0000059903,0.000066018,2.278,0.20017,166936.5474183263,0.0007275723,0.0003193908
6006,10.1002/adma.201004200,80,1(a),324,Na0.007Pb0.993Se1,Na0.007Pb0.993Se1,463,0.013821,0.0000060012,0.000066149,2.2752,0.20136,166633.3399986669,0.0007291359,0.0003204711
6006,10.1002/adma.201004200,80,1(a),324,Na0.007Pb0.993Se1,Na0.007Pb0.993Se1,463.5,0.013806,0.0000060121,0.00006628,2.2724,0.20255,166331.2320154356,0.0007306995,0.0003215541
6006,10.1002/adma.201004200,80,1(a),324,Na0.007Pb0.993Se1,Na0.007Pb0.993Se1,464,0.013791,0.0000060231,0.000066412,2.2697,0.20374,166027.4609420398,0.000732273,0.0003226299
6006,10.1002/adma.201004200,80,1(a),324,Na0.007Pb0.993Se1,Na0.007Pb0.993Se1,464.5,0.013776,0.000006034,0.000066544,2.2669,0.20493,165727.5439177991,0.0007338588,0.0003237279
6006,10.1002/adma.201004200,80,1(a),324,Na0.007Pb0.993Se1,Na0.007Pb0.993Se1,465,0.013761,0.000006045,0.000066676,2.2642,0.20612,165425.9718775848,0.0007354324,0.0003248089