sid,DOI,figureid,fignum,sampleid,samplename,composition,Temperature,Carrier mobility,Electrical resistivity,Seebeck coefficient,Thermal conductivity,ZT,Electrical conductivity,Power factor,Figure of merit Z
6006,10.1002/adma.201004200,80,1(a),324,Na0.007Pb0.993Se1,Na0.007Pb0.993Se1,579.5,0.010366,0.0000092536,0.00010279,1.7448,0.47825,108066.0499697415,0.0011418026,0.0006544031
6006,10.1002/adma.201004200,80,1(a),324,Na0.007Pb0.993Se1,Na0.007Pb0.993Se1,580,0.010351,0.0000092715,0.00010297,1.7428,0.47943,107857.4125006741,0.0011435928,0.0006561813
6006,10.1002/adma.201004200,80,1(a),324,Na0.007Pb0.993Se1,Na0.007Pb0.993Se1,580.5,0.010336,0.0000092894,0.00010316,1.7409,0.48062,107649.5790901458,0.0011456053,0.0006580535
6006,10.1002/adma.201004200,80,1(a),324,Na0.007Pb0.993Se1,Na0.007Pb0.993Se1,581,0.010321,0.0000093074,0.00010334,1.739,0.48181,107441.3907213615,0.0011473833,0.0006597949
6006,10.1002/adma.201004200,80,1(a),324,Na0.007Pb0.993Se1,Na0.007Pb0.993Se1,581.5,0.010307,0.0000093254,0.00010352,1.7371,0.483,107234.0060479979,0.0011491615,0.0006615402
6006,10.1002/adma.201004200,80,1(a),324,Na0.007Pb0.993Se1,Na0.007Pb0.993Se1,582,0.010292,0.0000093434,0.0001037,1.7351,0.48419,107027.4204251129,0.0011509397,0.0006633276
6006,10.1002/adma.201004200,80,1(a),324,Na0.007Pb0.993Se1,Na0.007Pb0.993Se1,582.5,0.010277,0.0000093615,0.00010389,1.7332,0.48538,106820.4881696309,0.0011529276,0.0006652017
6006,10.1002/adma.201004200,80,1(a),324,Na0.007Pb0.993Se1,Na0.007Pb0.993Se1,583,0.010262,0.0000093797,0.00010407,1.7313,0.48656,106613.2179067561,0.0011546814,0.0006669447
6006,10.1002/adma.201004200,80,1(a),324,Na0.007Pb0.993Se1,Na0.007Pb0.993Se1,583.5,0.010247,0.0000093979,0.00010425,1.7294,0.48775,106406.7504442482,0.0011564352,0.0006686916
6006,10.1002/adma.201004200,80,1(a),324,Na0.007Pb0.993Se1,Na0.007Pb0.993Se1,584,0.010232,0.0000094161,0.00010444,1.7275,0.48894,106201.0811270059,0.001158411,0.0006705708
6006,10.1002/adma.201004200,80,1(a),324,Na0.007Pb0.993Se1,Na0.007Pb0.993Se1,584.5,0.010218,0.0000094344,0.00010462,1.7255,0.49013,105995.0818282032,0.0011601527,0.0006723574
6006,10.1002/adma.201004200,80,1(a),324,Na0.007Pb0.993Se1,Na0.007Pb0.993Se1,585,0.010203,0.0000094527,0.0001048,1.7236,0.49132,105789.8801400658,0.0011618945,0.0006741091
6006,10.1002/adma.201004200,80,1(a),324,Na0.007Pb0.993Se1,Na0.007Pb0.993Se1,585.5,0.010188,0.000009471,0.00010499,1.7217,0.49251,105585.47143913,0.0011638581,0.0006759936
6006,10.1002/adma.201004200,80,1(a),324,Na0.007Pb0.993Se1,Na0.007Pb0.993Se1,586,0.010173,0.0000094894,0.00010517,1.7198,0.49369,105380.7406158451,0.0011655878,0.0006777461
6006,10.1002/adma.201004200,80,1(a),324,Na0.007Pb0.993Se1,Na0.007Pb0.993Se1,586.5,0.010158,0.0000095079,0.00010535,1.7179,0.49488,105175.6960001683,0.0011673053,0.0006794955
6006,10.1002/adma.201004200,80,1(a),324,Na0.007Pb0.993Se1,Na0.007Pb0.993Se1,587,0.010143,0.0000095264,0.00010554,1.716,0.49607,104971.4477662076,0.0011692446,0.000681378
6006,10.1002/adma.201004200,80,1(a),324,Na0.007Pb0.993Se1,Na0.007Pb0.993Se1,587.5,0.010129,0.0000095449,0.00010572,1.7141,0.49726,104767.9912833031,0.0011709623,0.0006831354
6006,10.1002/adma.201004200,80,1(a),324,Na0.007Pb0.993Se1,Na0.007Pb0.993Se1,588,0.010114,0.0000095635,0.00010591,1.7122,0.49845,104564.2285774037,0.0011728894,0.0006850189
6006,10.1002/adma.201004200,80,1(a),324,Na0.007Pb0.993Se1,Na0.007Pb0.993Se1,588.5,0.010099,0.0000095821,0.00010609,1.7103,0.49964,104361.2569269784,0.0011745951,0.0006867773
6006,10.1002/adma.201004200,80,1(a),324,Na0.007Pb0.993Se1,Na0.007Pb0.993Se1,589,0.010084,0.0000096008,0.00010628,1.7084,0.50082,104157.9868344305,0.0011765101,0.000688662
6006,10.1002/adma.201004200,80,1(a),324,Na0.007Pb0.993Se1,Na0.007Pb0.993Se1,589.5,0.010069,0.0000096195,0.00010646,1.7065,0.50201,103955.5070429856,0.0011782038,0.0006904212
6006,10.1002/adma.201004200,80,1(a),324,Na0.007Pb0.993Se1,Na0.007Pb0.993Se1,590,0.010055,0.0000096382,0.00010665,1.7047,0.5032,103753.812952626,0.001180119,0.0006922737
6006,10.1002/adma.201004200,80,1(a),324,Na0.007Pb0.993Se1,Na0.007Pb0.993Se1,590.5,0.01004,0.0000096571,0.00010684,1.7028,0.50439,103550.7554027607,0.0011820097,0.0006941565
6006,10.1002/adma.201004200,80,1(a),324,Na0.007Pb0.993Se1,Na0.007Pb0.993Se1,591,0.010025,0.0000096759,0.00010702,1.7009,0.50558,103349.55921413,0.0011836915,0.0006959207
6006,10.1002/adma.201004200,80,1(a),324,Na0.007Pb0.993Se1,Na0.007Pb0.993Se1,591.5,0.01001,0.0000096948,0.00010721,1.699,0.50677,103148.0793827619,0.0011855824,0.0006978119
6006,10.1002/adma.201004200,80,1(a),324,Na0.007Pb0.993Se1,Na0.007Pb0.993Se1,592,0.0099952,0.0000097137,0.00010739,1.6971,0.50795,102947.383592246,0.0011872522,0.0006995771
6006,10.1002/adma.201004200,80,1(a),324,Na0.007Pb0.993Se1,Na0.007Pb0.993Se1,592.5,0.0099804,0.0000097327,0.00010758,1.6952,0.50914,102746.4115815755,0.0011891311,0.0007014695
6006,10.1002/adma.201004200,80,1(a),324,Na0.007Pb0.993Se1,Na0.007Pb0.993Se1,593,0.0099655,0.0000097518,0.00010777,1.6934,0.51033,102545.1711478906,0.0011909979,0.0007033175
6006,10.1002/adma.201004200,80,1(a),324,Na0.007Pb0.993Se1,Na0.007Pb0.993Se1,593.5,0.0099507,0.0000097708,0.00010795,1.6915,0.51152,102345.7649322471,0.0011926559,0.0007050877
6006,10.1002/adma.201004200,80,1(a),324,Na0.007Pb0.993Se1,Na0.007Pb0.993Se1,594,0.0099359,0.00000979,0.00010814,1.6896,0.51271,102145.0459652707,0.0011945107,0.0007069784
6006,10.1002/adma.201004200,80,1(a),324,Na0.007Pb0.993Se1,Na0.007Pb0.993Se1,594.5,0.0099211,0.0000098091,0.00010833,1.6878,0.5139,101946.1520424911,0.0011963777,0.0007088386
6006,10.1002/adma.201004200,80,1(a),324,Na0.007Pb0.993Se1,Na0.007Pb0.993Se1,595,0.0099062,0.0000098284,0.00010852,1.6859,0.51508,101745.9606853608,0.0011982205,0.0007107305
6006,10.1002/adma.201004200,80,1(a),324,Na0.007Pb0.993Se1,Na0.007Pb0.993Se1,595.5,0.0098914,0.0000098476,0.0001087,1.684,0.51627,101547.585198424,0.0011998548,0.0007125028
6006,10.1002/adma.201004200,80,1(a),324,Na0.007Pb0.993Se1,Na0.007Pb0.993Se1,596,0.0098766,0.0000098669,0.00010889,1.6822,0.51746,101348.9545855334,0.0012016978,0.0007143608
6006,10.1002/adma.201004200,80,1(a),324,Na0.007Pb0.993Se1,Na0.007Pb0.993Se1,596.5,0.0098617,0.0000098863,0.00010908,1.6803,0.51865,101150.0763683077,0.0012035288,0.0007162583
6006,10.1002/adma.201004200,80,1(a),324,Na0.007Pb0.993Se1,Na0.007Pb0.993Se1,597,0.0098469,0.0000099057,0.00010927,1.6784,0.51984,100951.9771444724,0.0012053598,0.0007181601
6006,10.1002/adma.201004200,80,1(a),324,Na0.007Pb0.993Se1,Na0.007Pb0.993Se1,597.5,0.0098321,0.0000099251,0.00010945,1.6766,0.52103,100754.6523460721,0.0012069705,0.0007198917
6006,10.1002/adma.201004200,80,1(a),324,Na0.007Pb0.993Se1,Na0.007Pb0.993Se1,598,0.0098173,0.0000099446,0.00010964,1.6747,0.52221,100557.0862578686,0.0012087897,0.0007217947
6006,10.1002/adma.201004200,80,1(a),324,Na0.007Pb0.993Se1,Na0.007Pb0.993Se1,598.5,0.0098024,0.0000099642,0.00010983,1.6729,0.5234,100359.2862447562,0.0012105968,0.0007236516
6006,10.1002/adma.201004200,80,1(a),324,Na0.007Pb0.993Se1,Na0.007Pb0.993Se1,599,0.0097876,0.0000099838,0.00011002,1.671,0.52459,100162.2628658427,0.0012124041,0.000725556
6006,10.1002/adma.201004200,80,1(a),324,Na0.007Pb0.993Se1,Na0.007Pb0.993Se1,599.5,0.0097728,0.000010003,0.00011021,1.6692,0.52578,99970.0089973008,0.0012142601,0.0007274504
6006,10.1002/adma.201004200,80,1(a),324,Na0.007Pb0.993Se1,Na0.007Pb0.993Se1,600,0.009758,0.000010023,0.0001104,1.6673,0.52697,99770.527786092,0.0012160192,0.0007293343
6006,10.1002/adma.201004200,80,1(a),324,Na0.007Pb0.993Se1,Na0.007Pb0.993Se1,600.5,0.0097431,0.000010043,0.00011059,1.6655,0.52816,99571.8410833416,0.0012177784,0.0007311788
6006,10.1002/adma.201004200,80,1(a),324,Na0.007Pb0.993Se1,Na0.007Pb0.993Se1,601,0.0097283,0.000010063,0.00011078,1.6637,0.52934,99373.9441518434,0.0012195378,0.0007330274
6006,10.1002/adma.201004200,80,1(a),324,Na0.007Pb0.993Se1,Na0.007Pb0.993Se1,601.5,0.0097135,0.000010082,0.00011097,1.6618,0.53053,99186.6693116445,0.0012214185,0.0007349973
6006,10.1002/adma.201004200,80,1(a),324,Na0.007Pb0.993Se1,Na0.007Pb0.993Se1,602,0.0096986,0.000010102,0.00011116,1.66,0.53172,98990.2989507028,0.0012231781,0.0007368543
6006,10.1002/adma.201004200,80,1(a),324,Na0.007Pb0.993Se1,Na0.007Pb0.993Se1,602.5,0.0096838,0.000010122,0.00011135,1.6582,0.53291,98794.7046038332,0.001224938,0.0007387155
6006,10.1002/adma.201004200,80,1(a),324,Na0.007Pb0.993Se1,Na0.007Pb0.993Se1,603,0.009669,0.000010142,0.00011154,1.6563,0.5341,98599.881680142,0.001226698,0.0007406255
6006,10.1002/adma.201004200,80,1(a),324,Na0.007Pb0.993Se1,Na0.007Pb0.993Se1,603.5,0.0096542,0.000010162,0.00011173,1.6545,0.53529,98405.825624877,0.0012284583,0.0007424952
6006,10.1002/adma.201004200,80,1(a),324,Na0.007Pb0.993Se1,Na0.007Pb0.993Se1,604,0.0096393,0.000010182,0.00011192,1.6527,0.53647,98212.5319190729,0.0012302187,0.000744369
6006,10.1002/adma.201004200,80,1(a),324,Na0.007Pb0.993Se1,Na0.007Pb0.993Se1,604.5,0.0096245,0.000010202,0.00011211,1.6508,0.53766,98019.9960792002,0.0012319792,0.0007462922
6006,10.1002/adma.201004200,80,1(a),324,Na0.007Pb0.993Se1,Na0.007Pb0.993Se1,605,0.0096097,0.000010223,0.0001123,1.649,0.53885,97818.6442335909,0.0012336193,0.0007481014
6006,10.1002/adma.201004200,80,1(a),324,Na0.007Pb0.993Se1,Na0.007Pb0.993Se1,605.5,0.0095948,0.000010243,0.00011249,1.6472,0.54004,97627.6481499561,0.0012353803,0.000749988
6006,10.1002/adma.201004200,80,1(a),324,Na0.007Pb0.993Se1,Na0.007Pb0.993Se1,606,0.00958,0.000010263,0.00011268,1.6454,0.54123,97437.3964727663,0.0012371414,0.0007518788
6006,10.1002/adma.201004200,80,1(a),324,Na0.007Pb0.993Se1,Na0.007Pb0.993Se1,606.5,0.0095652,0.000010283,0.00011287,1.6436,0.54242,97247.8848585043,0.0012389027,0.0007537739
6006,10.1002/adma.201004200,80,1(a),324,Na0.007Pb0.993Se1,Na0.007Pb0.993Se1,607,0.0095504,0.000010304,0.00011306,1.6417,0.5436,97049.6894409938,0.0012405438,0.0007556459
6006,10.1002/adma.201004200,80,1(a),324,Na0.007Pb0.993Se1,Na0.007Pb0.993Se1,607.5,0.0095355,0.000010324,0.00011325,1.6399,0.54479,96861.6815187912,0.0012423056,0.0007575496
6006,10.1002/adma.201004200,80,1(a),324,Na0.007Pb0.993Se1,Na0.007Pb0.993Se1,608,0.0095207,0.000010345,0.00011345,1.6381,0.54598,96665.055582407,0.0012441665,0.000759518
6006,10.1002/adma.201004200,80,1(a),324,Na0.007Pb0.993Se1,Na0.007Pb0.993Se1,608.5,0.0095059,0.000010365,0.00011364,1.6363,0.54717,96478.5335262904,0.0012459286,0.0007614304
6006,10.1002/adma.201004200,80,1(a),324,Na0.007Pb0.993Se1,Na0.007Pb0.993Se1,609,0.009491,0.000010386,0.00011383,1.6345,0.54836,96283.4585018294,0.0012475707,0.0007632736
6006,10.1002/adma.201004200,80,1(a),324,Na0.007Pb0.993Se1,Na0.007Pb0.993Se1,609.5,0.0094762,0.000010406,0.00011402,1.6327,0.54955,96098.4047664809,0.0012493331,0.0007651945
6006,10.1002/adma.201004200,80,1(a),324,Na0.007Pb0.993Se1,Na0.007Pb0.993Se1,610,0.0094614,0.000010427,0.00011421,1.6309,0.55073,95904.8623765225,0.0012509757,0.0007670463
6006,10.1002/adma.201004200,80,1(a),324,Na0.007Pb0.993Se1,Na0.007Pb0.993Se1,610.5,0.0094466,0.000010448,0.00011441,1.6291,0.55192,95712.0980091884,0.0012528377,0.0007690367
6006,10.1002/adma.201004200,80,1(a),324,Na0.007Pb0.993Se1,Na0.007Pb0.993Se1,611,0.0094317,0.000010469,0.0001146,1.6273,0.55311,95520.1069825198,0.0012544808,0.0007708971
6006,10.1002/adma.201004200,80,1(a),324,Na0.007Pb0.993Se1,Na0.007Pb0.993Se1,611.5,0.0094169,0.00001049,0.00011479,1.6255,0.5543,95328.8846520496,0.0012561243,0.0007727618
6006,10.1002/adma.201004200,80,1(a),324,Na0.007Pb0.993Se1,Na0.007Pb0.993Se1,612,0.0094021,0.00001051,0.00011498,1.6237,0.55549,95147.4785918173,0.0012578878,0.0007747045
6006,10.1002/adma.201004200,80,1(a),324,Na0.007Pb0.993Se1,Na0.007Pb0.993Se1,612.5,0.0093873,0.000010531,0.00011518,1.6219,0.55668,94957.7438040072,0.0012597505,0.0007767128
6006,10.1002/adma.201004200,80,1(a),324,Na0.007Pb0.993Se1,Na0.007Pb0.993Se1,613,0.0093724,0.000010552,0.00011537,1.6201,0.55786,94768.7642153146,0.0012613947,0.0007785906
6006,10.1002/adma.201004200,80,1(a),324,Na0.007Pb0.993Se1,Na0.007Pb0.993Se1,613.5,0.0093576,0.000010573,0.00011556,1.6184,0.55905,94580.5353258299,0.0012630392,0.0007804246
6006,10.1002/adma.201004200,80,1(a),324,Na0.007Pb0.993Se1,Na0.007Pb0.993Se1,614,0.0093428,0.000010594,0.00011576,1.6166,0.56024,94393.0526713234,0.0012649025,0.0007824462
6006,10.1002/adma.201004200,80,1(a),324,Na0.007Pb0.993Se1,Na0.007Pb0.993Se1,614.5,0.0093279,0.000010616,0.00011595,1.6148,0.56143,94197.437829691,0.0012664283,0.0007842632
6006,10.1002/adma.201004200,80,1(a),324,Na0.007Pb0.993Se1,Na0.007Pb0.993Se1,615,0.0093131,0.000010637,0.00011615,1.613,0.56262,94011.4693992667,0.001268292,0.0007862939
6006,10.1002/adma.201004200,80,1(a),324,Na0.007Pb0.993Se1,Na0.007Pb0.993Se1,615.5,0.0092983,0.000010658,0.00011634,1.6112,0.56381,93826.2338149747,0.0012699377,0.0007881937
6006,10.1002/adma.201004200,80,1(a),324,Na0.007Pb0.993Se1,Na0.007Pb0.993Se1,616,0.0092835,0.000010679,0.00011653,1.6095,0.56499,93641.7267534413,0.0012715836,0.0007900488
6006,10.1002/adma.201004200,80,1(a),324,Na0.007Pb0.993Se1,Na0.007Pb0.993Se1,616.5,0.0092686,0.000010701,0.00011673,1.6077,0.56618,93449.2103541725,0.0012733289,0.000792019
6006,10.1002/adma.201004200,80,1(a),324,Na0.007Pb0.993Se1,Na0.007Pb0.993Se1,617,0.0092538,0.000010722,0.00011692,1.6059,0.56737,93266.1816825219,0.0012749754,0.000793932
6006,10.1002/adma.201004200,80,1(a),324,Na0.007Pb0.993Se1,Na0.007Pb0.993Se1,617.5,0.009239,0.000010743,0.00011712,1.6042,0.56856,93083.8685655776,0.0012768402,0.0007959358
6006,10.1002/adma.201004200,80,1(a),324,Na0.007Pb0.993Se1,Na0.007Pb0.993Se1,618,0.0092241,0.000010765,0.00011731,1.6024,0.56975,92893.6367858802,0.0012783684,0.0007977836
6006,10.1002/adma.201004200,80,1(a),324,Na0.007Pb0.993Se1,Na0.007Pb0.993Se1,618.5,0.0092093,0.000010787,0.00011751,1.6006,0.57094,92704.1809585612,0.001280115,0.0007997719
6006,10.1002/adma.201004200,80,1(a),324,Na0.007Pb0.993Se1,Na0.007Pb0.993Se1,619,0.0091945,0.000010808,0.0001177,1.5989,0.57212,92524.0562546262,0.0012817626,0.0008016528
6006,10.1002/adma.201004200,80,1(a),324,Na0.007Pb0.993Se1,Na0.007Pb0.993Se1,619.5,0.0091797,0.00001083,0.0001179,1.5971,0.57331,92336.1034164358,0.0012835097,0.0008036502
6006,10.1002/adma.201004200,80,1(a),324,Na0.007Pb0.993Se1,Na0.007Pb0.993Se1,620,0.0091648,0.000010852,0.00011809,1.5954,0.5745,92148.9126428308,0.0012850394,0.0008054654
6006,10.1002/adma.201004200,80,1(a),324,Na0.007Pb0.993Se1,Na0.007Pb0.993Se1,620.5,0.00915,0.000010873,0.00011829,1.5936,0.57569,91970.9371838499,0.0012869056,0.0008075462
6006,10.1002/adma.201004200,80,1(a),324,Na0.007Pb0.993Se1,Na0.007Pb0.993Se1,621,0.0091352,0.000010895,0.00011848,1.5918,0.57688,91785.2225791648,0.001288436,0.0008094208
6006,10.1002/adma.201004200,80,1(a),324,Na0.007Pb0.993Se1,Na0.007Pb0.993Se1,621.5,0.0091203,0.000010917,0.00011868,1.5901,0.57807,91600.2564807181,0.0012901843,0.0008113857
6006,10.1002/adma.201004200,80,1(a),324,Na0.007Pb0.993Se1,Na0.007Pb0.993Se1,622,0.0091055,0.000010939,0.00011887,1.5884,0.57926,91416.0343724289,0.0012917156,0.0008132181
6006,10.1002/adma.201004200,80,1(a),324,Na0.007Pb0.993Se1,Na0.007Pb0.993Se1,622.5,0.0090907,0.000010961,0.00011907,1.5866,0.58044,91232.5517744731,0.0012934645,0.000815243
6006,10.1002/adma.201004200,80,1(a),324,Na0.007Pb0.993Se1,Na0.007Pb0.993Se1,623,0.0090759,0.000010983,0.00011927,1.5849,0.58163,91049.8042429209,0.0012952138,0.0008172211
6006,10.1002/adma.201004200,80,1(a),324,Na0.007Pb0.993Se1,Na0.007Pb0.993Se1,623.5,0.009061,0.000011005,0.00011946,1.5831,0.58282,90867.7873693775,0.0012967462,0.0008191183
6006,10.1002/adma.201004200,80,1(a),324,Na0.007Pb0.993Se1,Na0.007Pb0.993Se1,624,0.0090462,0.000011027,0.00011966,1.5814,0.58401,90686.4967806294,0.001298496,0.0008211054
6006,10.1002/adma.201004200,80,1(a),324,Na0.007Pb0.993Se1,Na0.007Pb0.993Se1,624.5,0.0090314,0.000011049,0.00011986,1.5796,0.5852,90505.928138293,0.0013002461,0.000823149
6006,10.1002/adma.201004200,80,1(a),324,Na0.007Pb0.993Se1,Na0.007Pb0.993Se1,625,0.0090166,0.000011072,0.00012005,1.5779,0.58639,90317.9190751445,0.0013016621,0.0008249332
6006,10.1002/adma.201004200,80,1(a),324,Na0.007Pb0.993Se1,Na0.007Pb0.993Se1,625.5,0.0090017,0.000011094,0.00012025,1.5762,0.58757,90138.8137732107,0.0013034129,0.0008269337
6006,10.1002/adma.201004200,80,1(a),324,Na0.007Pb0.993Se1,Na0.007Pb0.993Se1,626,0.0089869,0.000011116,0.00012045,1.5745,0.58876,89960.4174163368,0.001305164,0.0008289387
6006,10.1002/adma.201004200,80,1(a),324,Na0.007Pb0.993Se1,Na0.007Pb0.993Se1,626.5,0.0089721,0.000011139,0.00012064,1.5727,0.58995,89774.6655893707,0.0013065813,0.0008307887
6006,10.1002/adma.201004200,80,1(a),324,Na0.007Pb0.993Se1,Na0.007Pb0.993Se1,627,0.0089572,0.000011161,0.00012084,1.571,0.59114,89597.7062987188,0.0013083331,0.0008328027
6006,10.1002/adma.201004200,80,1(a),324,Na0.007Pb0.993Se1,Na0.007Pb0.993Se1,627.5,0.0089424,0.000011184,0.00012104,1.5693,0.59233,89413.4477825465,0.001309968,0.0008347467
6006,10.1002/adma.201004200,80,1(a),324,Na0.007Pb0.993Se1,Na0.007Pb0.993Se1,628,0.0089276,0.000011206,0.00012124,1.5676,0.59352,89237.9082634303,0.0013117203,0.0008367698
6006,10.1002/adma.201004200,80,1(a),324,Na0.007Pb0.993Se1,Na0.007Pb0.993Se1,628.5,0.0089128,0.000011229,0.00012143,1.5658,0.5947,89055.1251224508,0.0013131396,0.0008386382
6006,10.1002/adma.201004200,80,1(a),324,Na0.007Pb0.993Se1,Na0.007Pb0.993Se1,629,0.0088979,0.000011252,0.00012163,1.5641,0.59589,88873.0892285816,0.0013147758,0.0008405957
6006,10.1002/adma.201004200,80,1(a),324,Na0.007Pb0.993Se1,Na0.007Pb0.993Se1,629.5,0.0088831,0.000011274,0.00012183,1.5624,0.59708,88699.6629412808,0.0013165291,0.0008426325
6006,10.1002/adma.201004200,80,1(a),324,Na0.007Pb0.993Se1,Na0.007Pb0.993Se1,630,0.0088683,0.000011297,0.00012203,1.5607,0.59827,88519.075860848,0.001318166,0.0008445992
6006,10.1002/adma.201004200,80,1(a),324,Na0.007Pb0.993Se1,Na0.007Pb0.993Se1,630.5,0.0088534,0.00001132,0.00012223,1.559,0.59946,88339.222614841,0.0013198033,0.0008465704
6006,10.1002/adma.201004200,80,1(a),324,Na0.007Pb0.993Se1,Na0.007Pb0.993Se1,631,0.0088386,0.000011343,0.00012243,1.5573,0.60065,88160.0987393106,0.001321441,0.0008485462
6006,10.1002/adma.201004200,80,1(a),324,Na0.007Pb0.993Se1,Na0.007Pb0.993Se1,631.5,0.0088238,0.000011366,0.00012262,1.5556,0.60183,87981.6998064403,0.0013228633,0.0008503878
6006,10.1002/adma.201004200,80,1(a),324,Na0.007Pb0.993Se1,Na0.007Pb0.993Se1,632,0.008809,0.000011389,0.00012282,1.5539,0.60302,87804.0214241812,0.0013245019,0.0008523727
6006,10.1002/adma.201004200,80,1(a),324,Na0.007Pb0.993Se1,Na0.007Pb0.993Se1,632.5,0.0087941,0.000011412,0.00012302,1.5522,0.60421,87627.059235892,0.0013261409,0.0008543622
6006,10.1002/adma.201004200,80,1(a),324,Na0.007Pb0.993Se1,Na0.007Pb0.993Se1,633,0.0087793,0.000011435,0.00012322,1.5505,0.6054,87450.8089199825,0.0013277804,0.0008563562
6006,10.1002/adma.201004200,80,1(a),324,Na0.007Pb0.993Se1,Na0.007Pb0.993Se1,633.5,0.0087645,0.000011459,0.00012342,1.5488,0.60659,87267.6498821887,0.0013293042,0.0008582801
6006,10.1002/adma.201004200,80,1(a),324,Na0.007Pb0.993Se1,Na0.007Pb0.993Se1,634,0.0087497,0.000011482,0.00012362,1.5471,0.60778,87092.8409684724,0.0013309445,0.0008602834
6006,10.1002/adma.201004200,80,1(a),324,Na0.007Pb0.993Se1,Na0.007Pb0.993Se1,634.5,0.0087348,0.000011505,0.00012382,1.5454,0.60896,86918.7309865276,0.0013325852,0.0008622914
6006,10.1002/adma.201004200,80,1(a),324,Na0.007Pb0.993Se1,Na0.007Pb0.993Se1,635,0.00872,0.000011529,0.00012402,1.5437,0.61015,86737.7916558244,0.0013341105,0.0008642291
6006,10.1002/adma.201004200,80,1(a),324,Na0.007Pb0.993Se1,Na0.007Pb0.993Se1,635.5,0.0087052,0.000011552,0.00012422,1.542,0.61134,86565.0969529086,0.0013357521,0.0008662465
6006,10.1002/adma.201004200,80,1(a),324,Na0.007Pb0.993Se1,Na0.007Pb0.993Se1,636,0.0086903,0.000011575,0.00012442,1.5404,0.61253,86393.0885529158,0.0013373941,0.0008682122
6006,10.1002/adma.201004200,80,1(a),324,Na0.007Pb0.993Se1,Na0.007Pb0.993Se1,636.5,0.0086755,0.000011599,0.00012462,1.5387,0.61372,86214.3288214501,0.001338921,0.0008701638