sid,DOI,figureid,fignum,sampleid,samplename,composition,Temperature,Carrier mobility,Electrical resistivity,Seebeck coefficient,Thermal conductivity,ZT,Electrical conductivity,Power factor,Figure of merit Z
6006,10.1002/adma.201004200,80,1(a),73,Na0.005Pb0.995Se1,Na0.005Pb0.995Se1,488,0.015841,0.0000075945,0.000088309,1.9483,0.30593,131674.2379353479,0.0010268588,0.0005270538
6006,10.1002/adma.201004200,80,1(a),73,Na0.005Pb0.995Se1,Na0.005Pb0.995Se1,488.5,0.015822,0.0000076097,0.00008845,1.946,0.30694,131411.2251468521,0.0010280829,0.0005283057
6006,10.1002/adma.201004200,80,1(a),73,Na0.005Pb0.995Se1,Na0.005Pb0.995Se1,489,0.015803,0.000007625,0.000088591,1.9437,0.30796,131147.5409836066,0.0010292938,0.0005295538
6006,10.1002/adma.201004200,80,1(a),73,Na0.005Pb0.995Se1,Na0.005Pb0.995Se1,489.5,0.015784,0.0000076403,0.000088733,1.9414,0.30898,130884.9128960905,0.0010305283,0.0005308171
6006,10.1002/adma.201004200,80,1(a),73,Na0.005Pb0.995Se1,Na0.005Pb0.995Se1,490,0.015765,0.0000076557,0.000088874,1.9391,0.31,130621.6283292187,0.0010317264,0.0005320646
6006,10.1002/adma.201004200,80,1(a),73,Na0.005Pb0.995Se1,Na0.005Pb0.995Se1,490.5,0.015746,0.000007671,0.000089016,1.9369,0.31102,130361.1002476861,0.0010329616,0.0005333066
6006,10.1002/adma.201004200,80,1(a),73,Na0.005Pb0.995Se1,Na0.005Pb0.995Se1,491,0.015728,0.0000076864,0.000089157,1.9346,0.31204,130099.9167360533,0.0010341604,0.0005345603
6006,10.1002/adma.201004200,80,1(a),73,Na0.005Pb0.995Se1,Na0.005Pb0.995Se1,491.5,0.015709,0.0000077018,0.000089299,1.9323,0.31306,129839.7777143006,0.0010353828,0.0005358292
6006,10.1002/adma.201004200,80,1(a),73,Na0.005Pb0.995Se1,Na0.005Pb0.995Se1,492,0.01569,0.0000077173,0.000089441,1.9301,0.31408,129578.9978360307,0.0010365921,0.0005370665
6006,10.1002/adma.201004200,80,1(a),73,Na0.005Pb0.995Se1,Na0.005Pb0.995Se1,492.5,0.015671,0.0000077328,0.000089583,1.9278,0.3151,129319.2633974757,0.0010378018,0.0005383348
6006,10.1002/adma.201004200,80,1(a),73,Na0.005Pb0.995Se1,Na0.005Pb0.995Se1,493,0.015652,0.0000077483,0.000089725,1.9256,0.31612,129060.5681246209,0.0010390119,0.0005395782
6006,10.1002/adma.201004200,80,1(a),73,Na0.005Pb0.995Se1,Na0.005Pb0.995Se1,493.5,0.015633,0.0000077638,0.000089868,1.9233,0.31714,128802.9057935547,0.0010402454,0.0005408649
6006,10.1002/adma.201004200,80,1(a),73,Na0.005Pb0.995Se1,Na0.005Pb0.995Se1,494,0.015614,0.0000077794,0.00009001,1.9211,0.31816,128544.6178368512,0.0010414428,0.0005421075
6006,10.1002/adma.201004200,80,1(a),73,Na0.005Pb0.995Se1,Na0.005Pb0.995Se1,494.5,0.015595,0.000007795,0.000090152,1.9188,0.31918,128287.3636946761,0.0010426406,0.0005433816
6006,10.1002/adma.201004200,80,1(a),73,Na0.005Pb0.995Se1,Na0.005Pb0.995Se1,495,0.015576,0.0000078106,0.000090295,1.9166,0.32019,128031.1371725604,0.0010438618,0.0005446425
6006,10.1002/adma.201004200,80,1(a),73,Na0.005Pb0.995Se1,Na0.005Pb0.995Se1,495.5,0.015557,0.0000078262,0.000090438,1.9144,0.32121,127775.9321254249,0.0010450834,0.0005459065
6006,10.1002/adma.201004200,80,1(a),73,Na0.005Pb0.995Se1,Na0.005Pb0.995Se1,496,0.015538,0.0000078419,0.000090581,1.9122,0.32223,127520.1162983461,0.001046292,0.0005471666
6006,10.1002/adma.201004200,80,1(a),73,Na0.005Pb0.995Se1,Na0.005Pb0.995Se1,496.5,0.015519,0.0000078576,0.000090724,1.9099,0.32325,127265.3227448585,0.001047501,0.0005484586
6006,10.1002/adma.201004200,80,1(a),73,Na0.005Pb0.995Se1,Na0.005Pb0.995Se1,497,0.0155,0.0000078734,0.000090867,1.9077,0.32427,127009.9321766962,0.0010486971,0.000549718
6006,10.1002/adma.201004200,80,1(a),73,Na0.005Pb0.995Se1,Na0.005Pb0.995Se1,497.5,0.015481,0.0000078891,0.00009101,1.9055,0.32529,126757.1712869656,0.0010499068,0.0005509876
6006,10.1002/adma.201004200,80,1(a),73,Na0.005Pb0.995Se1,Na0.005Pb0.995Se1,498,0.015462,0.0000079049,0.000091153,1.9033,0.32631,126503.8140899948,0.0010511037,0.0005522533
6006,10.1002/adma.201004200,80,1(a),73,Na0.005Pb0.995Se1,Na0.005Pb0.995Se1,498.5,0.015443,0.0000079208,0.000091297,1.9011,0.32733,126249.8737501262,0.0010523107,0.0005535272
6006,10.1002/adma.201004200,80,1(a),73,Na0.005Pb0.995Se1,Na0.005Pb0.995Se1,499,0.015424,0.0000079366,0.00009144,1.8989,0.32835,125998.5384169544,0.0010535083,0.0005547992
6006,10.1002/adma.201004200,80,1(a),73,Na0.005Pb0.995Se1,Na0.005Pb0.995Se1,499.5,0.015405,0.0000079525,0.000091584,1.8967,0.32937,125746.6205595725,0.001054716,0.0005560795
6006,10.1002/adma.201004200,80,1(a),73,Na0.005Pb0.995Se1,Na0.005Pb0.995Se1,500,0.015386,0.0000079684,0.000091728,1.8945,0.33039,125495.7080467848,0.0010559241,0.000557363
6006,10.1002/adma.201004200,80,1(a),73,Na0.005Pb0.995Se1,Na0.005Pb0.995Se1,500.5,0.015368,0.0000079844,0.000091872,1.8924,0.33141,125244.2262411703,0.0010571194,0.0005586131
6006,10.1002/adma.201004200,80,1(a),73,Na0.005Pb0.995Se1,Na0.005Pb0.995Se1,501,0.015349,0.0000080004,0.000092016,1.8902,0.33243,124993.7503124844,0.0010583151,0.0005598958
6006,10.1002/adma.201004200,80,1(a),73,Na0.005Pb0.995Se1,Na0.005Pb0.995Se1,501.5,0.01533,0.0000080164,0.00009216,1.888,0.33344,124744.2742378125,0.0010595112,0.0005611818
6006,10.1002/adma.201004200,80,1(a),73,Na0.005Pb0.995Se1,Na0.005Pb0.995Se1,502,0.015311,0.0000080324,0.000092304,1.8858,0.33446,124495.792042229,0.0010607077,0.0005624709
6006,10.1002/adma.201004200,80,1(a),73,Na0.005Pb0.995Se1,Na0.005Pb0.995Se1,502.5,0.015292,0.0000080485,0.000092449,1.8837,0.33548,124246.7540535504,0.0010619143,0.0005637386
6006,10.1002/adma.201004200,80,1(a),73,Na0.005Pb0.995Se1,Na0.005Pb0.995Se1,503,0.015273,0.0000080646,0.000092593,1.8815,0.3365,123998.7104134117,0.0010630984,0.0005650271
6006,10.1002/adma.201004200,80,1(a),73,Na0.005Pb0.995Se1,Na0.005Pb0.995Se1,503.5,0.015254,0.0000080807,0.000092738,1.8794,0.33752,123751.655178388,0.0010643059,0.0005663009
6006,10.1002/adma.201004200,80,1(a),73,Na0.005Pb0.995Se1,Na0.005Pb0.995Se1,504,0.015235,0.0000080969,0.000092883,1.8772,0.33854,123504.057108276,0.0010655006,0.000567601
6006,10.1002/adma.201004200,80,1(a),73,Na0.005Pb0.995Se1,Na0.005Pb0.995Se1,504.5,0.015216,0.0000081131,0.000093028,1.875,0.33956,123257.4478312852,0.0010666957,0.0005689044
6006,10.1002/adma.201004200,80,1(a),73,Na0.005Pb0.995Se1,Na0.005Pb0.995Se1,505,0.015197,0.0000081293,0.000093173,1.8729,0.34058,123011.82143604,0.0010678912,0.0005701806
6006,10.1002/adma.201004200,80,1(a),73,Na0.005Pb0.995Se1,Na0.005Pb0.995Se1,505.5,0.015178,0.0000081456,0.000093318,1.8708,0.3416,122765.6648988411,0.001069074,0.0005714529
6006,10.1002/adma.201004200,80,1(a),73,Na0.005Pb0.995Se1,Na0.005Pb0.995Se1,506,0.015159,0.0000081619,0.000093463,1.8686,0.34262,122520.4915522121,0.0010702572,0.0005727589
6006,10.1002/adma.201004200,80,1(a),73,Na0.005Pb0.995Se1,Na0.005Pb0.995Se1,506.5,0.01514,0.0000081782,0.000093609,1.8665,0.34364,122276.295517351,0.0010714638,0.0005740497
6006,10.1002/adma.201004200,80,1(a),73,Na0.005Pb0.995Se1,Na0.005Pb0.995Se1,507,0.015121,0.0000081946,0.000093754,1.8643,0.34466,122031.581773363,0.0010726347,0.0005753552
6006,10.1002/adma.201004200,80,1(a),73,Na0.005Pb0.995Se1,Na0.005Pb0.995Se1,507.5,0.015102,0.0000082109,0.0000939,1.8622,0.34568,121789.3288190089,0.0010738421,0.0005766524
6006,10.1002/adma.201004200,80,1(a),73,Na0.005Pb0.995Se1,Na0.005Pb0.995Se1,508,0.015083,0.0000082274,0.000094046,1.8601,0.34669,121545.0810705691,0.0010750237,0.0005779387
6006,10.1002/adma.201004200,80,1(a),73,Na0.005Pb0.995Se1,Na0.005Pb0.995Se1,508.5,0.015064,0.0000082438,0.000094192,1.858,0.34771,121303.2824668235,0.0010762188,0.0005792351
6006,10.1002/adma.201004200,80,1(a),73,Na0.005Pb0.995Se1,Na0.005Pb0.995Se1,509,0.015045,0.0000082603,0.000094338,1.8559,0.34873,121060.9784148276,0.0010774013,0.0005805277
6006,10.1002/adma.201004200,80,1(a),73,Na0.005Pb0.995Se1,Na0.005Pb0.995Se1,509.5,0.015027,0.0000082768,0.000094485,1.8538,0.34975,120819.6404407501,0.0010786071,0.0005818357
6006,10.1002/adma.201004200,80,1(a),73,Na0.005Pb0.995Se1,Na0.005Pb0.995Se1,510,0.015008,0.0000082934,0.000094631,1.8516,0.35077,120577.8088600574,0.0010797774,0.0005831591
6006,10.1002/adma.201004200,80,1(a),73,Na0.005Pb0.995Se1,Na0.005Pb0.995Se1,510.5,0.014989,0.0000083099,0.000094777,1.8495,0.35179,120338.3915570585,0.0010809612,0.0005844613
6006,10.1002/adma.201004200,80,1(a),73,Na0.005Pb0.995Se1,Na0.005Pb0.995Se1,511,0.01497,0.0000083266,0.000094924,1.8474,0.35281,120097.0384070329,0.0010821423,0.000585765
6006,10.1002/adma.201004200,80,1(a),73,Na0.005Pb0.995Se1,Na0.005Pb0.995Se1,511.5,0.014951,0.0000083432,0.000095071,1.8453,0.35383,119858.0880237798,0.0010833367,0.0005870789
6006,10.1002/adma.201004200,80,1(a),73,Na0.005Pb0.995Se1,Na0.005Pb0.995Se1,512,0.014932,0.0000083599,0.000095218,1.8432,0.35485,119618.655725547,0.0010845187,0.000588389
6006,10.1002/adma.201004200,80,1(a),73,Na0.005Pb0.995Se1,Na0.005Pb0.995Se1,512.5,0.014913,0.0000083766,0.000095365,1.8412,0.35587,119380.1781152257,0.001085701,0.0005896703
6006,10.1002/adma.201004200,80,1(a),73,Na0.005Pb0.995Se1,Na0.005Pb0.995Se1,513,0.014894,0.0000083933,0.000095512,1.8391,0.35689,119142.6494942394,0.0010868838,0.0005909868
6006,10.1002/adma.201004200,80,1(a),73,Na0.005Pb0.995Se1,Na0.005Pb0.995Se1,513.5,0.014875,0.0000084101,0.00009566,1.837,0.35791,118904.6503608756,0.0010880769,0.0005923119
6006,10.1002/adma.201004200,80,1(a),73,Na0.005Pb0.995Se1,Na0.005Pb0.995Se1,514,0.014856,0.0000084269,0.000095807,1.8349,0.35892,118667.6001851215,0.0010892477,0.0005936278
6006,10.1002/adma.201004200,80,1(a),73,Na0.005Pb0.995Se1,Na0.005Pb0.995Se1,514.5,0.014837,0.0000084438,0.000095955,1.8328,0.35994,118430.0907174495,0.0010904287,0.0005949524
6006,10.1002/adma.201004200,80,1(a),73,Na0.005Pb0.995Se1,Na0.005Pb0.995Se1,515,0.014818,0.0000084607,0.000096103,1.8308,0.36096,118193.5300861631,0.0010916102,0.0005962477
6006,10.1002/adma.201004200,80,1(a),73,Na0.005Pb0.995Se1,Na0.005Pb0.995Se1,515.5,0.014799,0.0000084776,0.000096251,1.8287,0.36198,117957.9126167783,0.0010927922,0.0005975787
6006,10.1002/adma.201004200,80,1(a),73,Na0.005Pb0.995Se1,Na0.005Pb0.995Se1,516,0.01478,0.0000084945,0.000096399,1.8266,0.363,117723.2326799694,0.0010939746,0.0005989131
6006,10.1002/adma.201004200,80,1(a),73,Na0.005Pb0.995Se1,Na0.005Pb0.995Se1,516.5,0.014761,0.0000085115,0.000096547,1.8246,0.36402,117488.1043294367,0.0010951446,0.0006002108
6006,10.1002/adma.201004200,80,1(a),73,Na0.005Pb0.995Se1,Na0.005Pb0.995Se1,517,0.014742,0.0000085285,0.000096696,1.8225,0.36504,117253.913349358,0.0010963377,0.0006015571
6006,10.1002/adma.201004200,80,1(a),73,Na0.005Pb0.995Se1,Na0.005Pb0.995Se1,517.5,0.014723,0.0000085456,0.000096844,1.8204,0.36606,117019.2847781314,0.0010974958,0.0006028872
6006,10.1002/adma.201004200,80,1(a),73,Na0.005Pb0.995Se1,Na0.005Pb0.995Se1,518,0.014704,0.0000085627,0.000096993,1.8184,0.36708,116785.5933292069,0.0010986771,0.0006041999
6006,10.1002/adma.201004200,80,1(a),73,Na0.005Pb0.995Se1,Na0.005Pb0.995Se1,518.5,0.014686,0.0000085798,0.000097142,1.8163,0.3681,116552.8333993799,0.0010998588,0.0006055491
6006,10.1002/adma.201004200,80,1(a),73,Na0.005Pb0.995Se1,Na0.005Pb0.995Se1,519,0.014667,0.0000085969,0.000097291,1.8143,0.36912,116320.9994300271,0.0011010409,0.0006068682
6006,10.1002/adma.201004200,80,1(a),73,Na0.005Pb0.995Se1,Na0.005Pb0.995Se1,519.5,0.014648,0.0000086141,0.00009744,1.8123,0.37014,116088.7382315042,0.0011022107,0.0006081834
6006,10.1002/adma.201004200,80,1(a),73,Na0.005Pb0.995Se1,Na0.005Pb0.995Se1,520,0.014629,0.0000086313,0.000097589,1.8102,0.37116,115857.4027087461,0.0011033811,0.0006095354
6006,10.1002/adma.201004200,80,1(a),73,Na0.005Pb0.995Se1,Na0.005Pb0.995Se1,520.5,0.01461,0.0000086486,0.000097738,1.8082,0.37217,115625.6503942835,0.0011045391,0.0006108501
6006,10.1002/adma.201004200,80,1(a),73,Na0.005Pb0.995Se1,Na0.005Pb0.995Se1,521,0.014591,0.0000086659,0.000097888,1.8062,0.37319,115394.8233882228,0.0011057202,0.0006121804
6006,10.1002/adma.201004200,80,1(a),73,Na0.005Pb0.995Se1,Na0.005Pb0.995Se1,521.5,0.014572,0.0000086832,0.000098038,1.8041,0.37421,115164.916159941,0.0011069018,0.0006135479
6006,10.1002/adma.201004200,80,1(a),73,Na0.005Pb0.995Se1,Na0.005Pb0.995Se1,522,0.014553,0.0000087006,0.000098188,1.8021,0.37523,114934.6022113418,0.0011080711,0.0006148777
6006,10.1002/adma.201004200,80,1(a),73,Na0.005Pb0.995Se1,Na0.005Pb0.995Se1,522.5,0.014534,0.000008718,0.000098338,1.8001,0.37625,114705.2076164258,0.0011092409,0.0006162107
6006,10.1002/adma.201004200,80,1(a),73,Na0.005Pb0.995Se1,Na0.005Pb0.995Se1,523,0.014515,0.0000087354,0.000098488,1.7981,0.37727,114476.726881425,0.0011104112,0.000617547
6006,10.1002/adma.201004200,80,1(a),73,Na0.005Pb0.995Se1,Na0.005Pb0.995Se1,523.5,0.014496,0.0000087529,0.000098638,1.796,0.37829,114247.8492842372,0.0011115693,0.0006189139
6006,10.1002/adma.201004200,80,1(a),73,Na0.005Pb0.995Se1,Na0.005Pb0.995Se1,524,0.014477,0.0000087704,0.000098789,1.794,0.37931,114019.8850679559,0.0011127504,0.0006202622
6006,10.1002/adma.201004200,80,1(a),73,Na0.005Pb0.995Se1,Na0.005Pb0.995Se1,524.5,0.014458,0.000008788,0.00009894,1.792,0.38033,113791.5339098771,0.0011139194,0.0006216068
6006,10.1002/adma.201004200,80,1(a),73,Na0.005Pb0.995Se1,Na0.005Pb0.995Se1,525,0.014439,0.0000088056,0.00009909,1.79,0.38135,113564.0955755428,0.0011150663,0.0006229421
6006,10.1002/adma.201004200,80,1(a),73,Na0.005Pb0.995Se1,Na0.005Pb0.995Se1,525.5,0.01442,0.0000088232,0.000099241,1.788,0.38237,113337.5646024118,0.0011162363,0.0006242932
6006,10.1002/adma.201004200,80,1(a),73,Na0.005Pb0.995Se1,Na0.005Pb0.995Se1,526,0.014401,0.0000088408,0.000099392,1.786,0.38339,113111.9355714415,0.0011174068,0.0006256477
6006,10.1002/adma.201004200,80,1(a),73,Na0.005Pb0.995Se1,Na0.005Pb0.995Se1,526.5,0.014382,0.0000088585,0.000099544,1.784,0.38441,112885.9287689789,0.0011185876,0.000627011
6006,10.1002/adma.201004200,80,1(a),73,Na0.005Pb0.995Se1,Na0.005Pb0.995Se1,527,0.014363,0.0000088763,0.000099695,1.782,0.38542,112659.5540934849,0.0011197338,0.0006283579
6006,10.1002/adma.201004200,80,1(a),73,Na0.005Pb0.995Se1,Na0.005Pb0.995Se1,527.5,0.014344,0.000008894,0.000099847,1.78,0.38644,112435.3496739375,0.0011209156,0.0006297279
6006,10.1002/adma.201004200,80,1(a),73,Na0.005Pb0.995Se1,Na0.005Pb0.995Se1,528,0.014326,0.0000089119,0.000099999,1.778,0.38746,112209.5176112838,0.0011220727,0.000631087
6006,10.1002/adma.201004200,80,1(a),73,Na0.005Pb0.995Se1,Na0.005Pb0.995Se1,528.5,0.014307,0.0000089297,0.00010015,1.7761,0.38848,111985.8449891934,0.0011232205,0.0006324084
6006,10.1002/adma.201004200,80,1(a),73,Na0.005Pb0.995Se1,Na0.005Pb0.995Se1,529,0.014288,0.0000089476,0.0001003,1.7741,0.3895,111761.8132236577,0.0011243339,0.0006337489
6006,10.1002/adma.201004200,80,1(a),73,Na0.005Pb0.995Se1,Na0.005Pb0.995Se1,529.5,0.014269,0.0000089655,0.00010045,1.7721,0.39052,111538.6760359154,0.0011254478,0.0006350927
6006,10.1002/adma.201004200,80,1(a),73,Na0.005Pb0.995Se1,Na0.005Pb0.995Se1,530,0.01425,0.0000089835,0.00010061,1.7701,0.39154,111315.1889575333,0.0011267738,0.0006365594
6006,10.1002/adma.201004200,80,1(a),73,Na0.005Pb0.995Se1,Na0.005Pb0.995Se1,530.5,0.014231,0.0000090015,0.00010076,1.7682,0.39256,111092.595678498,0.0011278762,0.0006378669
6006,10.1002/adma.201004200,80,1(a),73,Na0.005Pb0.995Se1,Na0.005Pb0.995Se1,531,0.014212,0.0000090195,0.00010091,1.7662,0.39358,110870.890847608,0.0011289792,0.0006392137
6006,10.1002/adma.201004200,80,1(a),73,Na0.005Pb0.995Se1,Na0.005Pb0.995Se1,531.5,0.014193,0.0000090376,0.00010107,1.7642,0.3946,110648.84482606,0.001130294,0.0006406836
6006,10.1002/adma.201004200,80,1(a),73,Na0.005Pb0.995Se1,Na0.005Pb0.995Se1,532,0.014174,0.0000090557,0.00010122,1.7623,0.39562,110427.6864295416,0.0011313856,0.0006419937
6006,10.1002/adma.201004200,80,1(a),73,Na0.005Pb0.995Se1,Na0.005Pb0.995Se1,532.5,0.014155,0.0000090738,0.00010137,1.7603,0.39664,110207.4103462717,0.0011324778,0.0006433436
6006,10.1002/adma.201004200,80,1(a),73,Na0.005Pb0.995Se1,Na0.005Pb0.995Se1,533,0.014136,0.000009092,0.00010153,1.7583,0.39766,109986.8015838099,0.0011337814,0.0006448168
6006,10.1002/adma.201004200,80,1(a),73,Na0.005Pb0.995Se1,Na0.005Pb0.995Se1,533.5,0.014117,0.0000091103,0.00010168,1.7564,0.39867,109765.8694005686,0.0011348498,0.0006461227
6006,10.1002/adma.201004200,80,1(a),73,Na0.005Pb0.995Se1,Na0.005Pb0.995Se1,534,0.014098,0.0000091285,0.00010183,1.7544,0.39969,109547.0230596483,0.0011359313,0.0006474757
6006,10.1002/adma.201004200,80,1(a),73,Na0.005Pb0.995Se1,Na0.005Pb0.995Se1,534.5,0.014079,0.0000091468,0.00010199,1.7525,0.40071,109327.8523636682,0.001137224,0.0006489152
6006,10.1002/adma.201004200,80,1(a),73,Na0.005Pb0.995Se1,Na0.005Pb0.995Se1,535,0.01406,0.0000091652,0.00010214,1.7505,0.40173,109108.3664295378,0.0011382817,0.0006502609
6006,10.1002/adma.201004200,80,1(a),73,Na0.005Pb0.995Se1,Na0.005Pb0.995Se1,535.5,0.014041,0.0000091836,0.00010229,1.7486,0.40275,108889.760006969,0.0011393401,0.0006515728
6006,10.1002/adma.201004200,80,1(a),73,Na0.005Pb0.995Se1,Na0.005Pb0.995Se1,536,0.014022,0.000009202,0.00010245,1.7467,0.40377,108672.0278200391,0.0011406219,0.0006530153
6006,10.1002/adma.201004200,80,1(a),73,Na0.005Pb0.995Se1,Na0.005Pb0.995Se1,536.5,0.014003,0.0000092205,0.0001026,1.7447,0.40479,108453.9883954233,0.0011416691,0.0006543641
6006,10.1002/adma.201004200,80,1(a),73,Na0.005Pb0.995Se1,Na0.005Pb0.995Se1,537,0.013985,0.000009239,0.00010276,1.7428,0.40581,108236.8221669012,0.0011429395,0.0006558064
6006,10.1002/adma.201004200,80,1(a),73,Na0.005Pb0.995Se1,Na0.005Pb0.995Se1,537.5,0.013966,0.0000092575,0.00010291,1.7408,0.40683,108020.5238995409,0.0011439879,0.0006571622
6006,10.1002/adma.201004200,80,1(a),73,Na0.005Pb0.995Se1,Na0.005Pb0.995Se1,538,0.013947,0.0000092761,0.00010307,1.7389,0.40785,107803.9262189929,0.0011452469,0.0006586042
6006,10.1002/adma.201004200,80,1(a),73,Na0.005Pb0.995Se1,Na0.005Pb0.995Se1,538.5,0.013928,0.0000092948,0.00010322,1.737,0.40887,107587.0379136722,0.0011462719,0.0006599148
6006,10.1002/adma.201004200,80,1(a),73,Na0.005Pb0.995Se1,Na0.005Pb0.995Se1,539,0.013909,0.0000093134,0.00010338,1.7351,0.40989,107372.1734275345,0.001147532,0.0006613636
6006,10.1002/adma.201004200,80,1(a),73,Na0.005Pb0.995Se1,Na0.005Pb0.995Se1,539.5,0.01389,0.0000093322,0.00010354,1.7331,0.41091,107155.8689269411,0.0011487679,0.0006628399
6006,10.1002/adma.201004200,80,1(a),73,Na0.005Pb0.995Se1,Na0.005Pb0.995Se1,540,0.013871,0.0000093509,0.00010369,1.7312,0.41192,106941.5778160391,0.0011497948,0.0006641606
6006,10.1002/adma.201004200,80,1(a),73,Na0.005Pb0.995Se1,Na0.005Pb0.995Se1,540.5,0.013852,0.0000093697,0.00010385,1.7293,0.41294,106727.0029990288,0.0011510318,0.0006656056
6006,10.1002/adma.201004200,80,1(a),73,Na0.005Pb0.995Se1,Na0.005Pb0.995Se1,541,0.013833,0.0000093886,0.000104,1.7274,0.41396,106512.1530366615,0.0011520354,0.0006669187
6006,10.1002/adma.201004200,80,1(a),73,Na0.005Pb0.995Se1,Na0.005Pb0.995Se1,541.5,0.013814,0.0000094074,0.00010416,1.7255,0.41498,106299.2962986585,0.0011532736,0.0006683706
6006,10.1002/adma.201004200,80,1(a),73,Na0.005Pb0.995Se1,Na0.005Pb0.995Se1,542,0.013795,0.0000094264,0.00010432,1.7236,0.416,106085.0377662734,0.0011544877,0.0006698118
6006,10.1002/adma.201004200,80,1(a),73,Na0.005Pb0.995Se1,Na0.005Pb0.995Se1,542.5,0.013776,0.0000094453,0.00010447,1.7217,0.41702,105872.7621144908,0.0011554933,0.0006711351
6006,10.1002/adma.201004200,80,1(a),73,Na0.005Pb0.995Se1,Na0.005Pb0.995Se1,543,0.013757,0.0000094643,0.00010463,1.7198,0.41804,105660.2178713693,0.0011567086,0.0006725832
6006,10.1002/adma.201004200,80,1(a),73,Na0.005Pb0.995Se1,Na0.005Pb0.995Se1,543.5,0.013738,0.0000094834,0.00010479,1.7179,0.41906,105447.4133749499,0.0011579122,0.0006740277
6006,10.1002/adma.201004200,80,1(a),73,Na0.005Pb0.995Se1,Na0.005Pb0.995Se1,544,0.013719,0.0000095025,0.00010494,1.716,0.42008,105235.4643514865,0.0011588954,0.000675347
6006,10.1002/adma.201004200,80,1(a),73,Na0.005Pb0.995Se1,Na0.005Pb0.995Se1,544.5,0.0137,0.0000095216,0.0001051,1.7141,0.4211,105024.3656528314,0.0011601002,0.0006767984
6006,10.1002/adma.201004200,80,1(a),73,Na0.005Pb0.995Se1,Na0.005Pb0.995Se1,545,0.013681,0.0000095408,0.00010526,1.7122,0.42212,104813.0135837666,0.0011612934,0.0006782463