sid,DOI,figureid,fignum,sampleid,samplename,composition,Temperature,Carrier mobility,Electrical resistivity,Seebeck coefficient,Thermal conductivity,ZT,Electrical conductivity,Power factor,Figure of merit Z
6006,10.1002/adma.201004200,80,1(a),73,Na0.005Pb0.995Se1,Na0.005Pb0.995Se1,373.5,0.02018,0.0000048011,0.000057937,2.685,0.072523,208285.6012163879,0.0006991514,0.0002603916
6006,10.1002/adma.201004200,80,1(a),73,Na0.005Pb0.995Se1,Na0.005Pb0.995Se1,374,0.020161,0.0000048098,0.000058062,2.6804,0.073543,207908.8527589505,0.0007009015,0.0002614914
6006,10.1002/adma.201004200,80,1(a),73,Na0.005Pb0.995Se1,Na0.005Pb0.995Se1,374.5,0.020142,0.0000048185,0.000058188,2.6758,0.074562,207533.4647711944,0.0007026758,0.000262604
6006,10.1002/adma.201004200,80,1(a),73,Na0.005Pb0.995Se1,Na0.005Pb0.995Se1,375,0.020123,0.0000048273,0.000058313,2.6712,0.075581,207155.1384832101,0.0007044116,0.000263706
6006,10.1002/adma.201004200,80,1(a),73,Na0.005Pb0.995Se1,Na0.005Pb0.995Se1,375.5,0.020104,0.0000048361,0.000058439,2.6666,0.0766,206778.1890366204,0.0007061717,0.000264821
6006,10.1002/adma.201004200,80,1(a),73,Na0.005Pb0.995Se1,Na0.005Pb0.995Se1,376,0.020085,0.000004845,0.000058565,2.6621,0.07762,206398.3488132095,0.0007079173,0.0002659244
6006,10.1002/adma.201004200,80,1(a),73,Na0.005Pb0.995Se1,Na0.005Pb0.995Se1,376.5,0.020066,0.0000048539,0.000058691,2.6575,0.078639,206019.9015224871,0.0007096631,0.0002670416
6006,10.1002/adma.201004200,80,1(a),73,Na0.005Pb0.995Se1,Na0.005Pb0.995Se1,377,0.020047,0.0000048628,0.000058817,2.653,0.079658,205642.839516328,0.000711409,0.0002681526
6006,10.1002/adma.201004200,80,1(a),73,Na0.005Pb0.995Se1,Na0.005Pb0.995Se1,377.5,0.020028,0.0000048718,0.000058943,2.6485,0.080677,205262.9418284823,0.0007131404,0.000269262
6006,10.1002/adma.201004200,80,1(a),73,Na0.005Pb0.995Se1,Na0.005Pb0.995Se1,378,0.020009,0.0000048808,0.000059069,2.644,0.081696,204884.4451729225,0.0007148719,0.0002703752
6006,10.1002/adma.201004200,80,1(a),73,Na0.005Pb0.995Se1,Na0.005Pb0.995Se1,378.5,0.01999,0.0000048899,0.000059196,2.6395,0.082716,204503.1595738154,0.0007166131,0.0002714958
6006,10.1002/adma.201004200,80,1(a),73,Na0.005Pb0.995Se1,Na0.005Pb0.995Se1,379,0.019971,0.000004899,0.000059322,2.6351,0.083735,204123.2904674423,0.0007183302,0.0002726007
6006,10.1002/adma.201004200,80,1(a),73,Na0.005Pb0.995Se1,Na0.005Pb0.995Se1,379.5,0.019952,0.0000049081,0.000059448,2.6306,0.084754,203744.8299749394,0.0007200474,0.0002737198
6006,10.1002/adma.201004200,80,1(a),73,Na0.005Pb0.995Se1,Na0.005Pb0.995Se1,380,0.019933,0.0000049173,0.000059575,2.6262,0.085773,203363.634514876,0.0007217743,0.000274836
6006,10.1002/adma.201004200,80,1(a),73,Na0.005Pb0.995Se1,Na0.005Pb0.995Se1,380.5,0.019915,0.0000049265,0.000059701,2.6218,0.086793,202983.8627829087,0.000723477,0.0002759467
6006,10.1002/adma.201004200,80,1(a),73,Na0.005Pb0.995Se1,Na0.005Pb0.995Se1,381,0.019896,0.0000049357,0.000059828,2.6174,0.087812,202605.5068176753,0.000725204,0.0002770704
6006,10.1002/adma.201004200,80,1(a),73,Na0.005Pb0.995Se1,Na0.005Pb0.995Se1,381.5,0.019877,0.000004945,0.000059955,2.6131,0.088831,202224.4691607684,0.0007269165,0.0002781817
6006,10.1002/adma.201004200,80,1(a),73,Na0.005Pb0.995Se1,Na0.005Pb0.995Se1,382,0.019858,0.0000049544,0.000060081,2.6087,0.08985,201840.7879864363,0.0007285901,0.0002792924
6006,10.1002/adma.201004200,80,1(a),73,Na0.005Pb0.995Se1,Na0.005Pb0.995Se1,382.5,0.019839,0.0000049637,0.000060208,2.6044,0.090869,201462.6186111167,0.0007303027,0.0002804111
6006,10.1002/adma.201004200,80,1(a),73,Na0.005Pb0.995Se1,Na0.005Pb0.995Se1,383,0.01982,0.0000049731,0.000060335,2.6001,0.091889,201081.8201926364,0.0007320006,0.0002815279
6006,10.1002/adma.201004200,80,1(a),73,Na0.005Pb0.995Se1,Na0.005Pb0.995Se1,383.5,0.019801,0.0000049826,0.000060462,2.5957,0.092908,200698.4305382732,0.0007336839,0.0002826536
6006,10.1002/adma.201004200,80,1(a),73,Na0.005Pb0.995Se1,Na0.005Pb0.995Se1,384,0.019782,0.000004992,0.000060589,2.5915,0.093927,200320.5128205128,0.000735382,0.0002837669
6006,10.1002/adma.201004200,80,1(a),73,Na0.005Pb0.995Se1,Na0.005Pb0.995Se1,384.5,0.019763,0.0000050015,0.000060716,2.5872,0.094946,199940.0179946016,0.0007370654,0.0002848892
6006,10.1002/adma.201004200,80,1(a),73,Na0.005Pb0.995Se1,Na0.005Pb0.995Se1,385,0.019744,0.0000050111,0.000060843,2.5829,0.095966,199556.9834966375,0.0007387341,0.0002860096
6006,10.1002/adma.201004200,80,1(a),73,Na0.005Pb0.995Se1,Na0.005Pb0.995Se1,385.5,0.019725,0.0000050207,0.000060971,2.5787,0.096985,199175.4137869221,0.0007404272,0.000287132
6006,10.1002/adma.201004200,80,1(a),73,Na0.005Pb0.995Se1,Na0.005Pb0.995Se1,386,0.019706,0.0000050303,0.000061098,2.5745,0.098004,198795.3004790967,0.000742096,0.0002882486
6006,10.1002/adma.201004200,80,1(a),73,Na0.005Pb0.995Se1,Na0.005Pb0.995Se1,386.5,0.019687,0.00000504,0.000061225,2.5703,0.099023,198412.6984126984,0.0007437501,0.0002893632
6006,10.1002/adma.201004200,80,1(a),73,Na0.005Pb0.995Se1,Na0.005Pb0.995Se1,387,0.019668,0.0000050496,0.000061353,2.5661,0.10004,198035.4879594423,0.0007454433,0.0002904966
6006,10.1002/adma.201004200,80,1(a),73,Na0.005Pb0.995Se1,Na0.005Pb0.995Se1,387.5,0.019649,0.0000050594,0.00006148,2.5619,0.10106,197651.8954816777,0.0007470827,0.0002916128
6006,10.1002/adma.201004200,80,1(a),73,Na0.005Pb0.995Se1,Na0.005Pb0.995Se1,388,0.01963,0.0000050691,0.000061608,2.5577,0.10208,197273.6777731747,0.0007487613,0.0002927479
6006,10.1002/adma.201004200,80,1(a),73,Na0.005Pb0.995Se1,Na0.005Pb0.995Se1,388.5,0.019611,0.0000050789,0.000061735,2.5536,0.1031,196893.0280178779,0.0007504007,0.0002938599
6006,10.1002/adma.201004200,80,1(a),73,Na0.005Pb0.995Se1,Na0.005Pb0.995Se1,389,0.019592,0.0000050888,0.000061863,2.5495,0.10412,196509.9827071215,0.0007520498,0.0002949793
6006,10.1002/adma.201004200,80,1(a),73,Na0.005Pb0.995Se1,Na0.005Pb0.995Se1,389.5,0.019574,0.0000050986,0.000061991,2.5453,0.10514,196132.2716039697,0.0007537136,0.0002961197
6006,10.1002/adma.201004200,80,1(a),73,Na0.005Pb0.995Se1,Na0.005Pb0.995Se1,390,0.019555,0.0000051086,0.000062119,2.5412,0.10616,195748.3459264769,0.0007553479,0.0002972406
6006,10.1002/adma.201004200,80,1(a),73,Na0.005Pb0.995Se1,Na0.005Pb0.995Se1,390.5,0.019536,0.0000051185,0.000062246,2.5372,0.10718,195369.7372277034,0.0007569727,0.0002983496
6006,10.1002/adma.201004200,80,1(a),73,Na0.005Pb0.995Se1,Na0.005Pb0.995Se1,391,0.019517,0.0000051285,0.000062374,2.5331,0.1082,194988.7881446817,0.000758607,0.0002994777
6006,10.1002/adma.201004200,80,1(a),73,Na0.005Pb0.995Se1,Na0.005Pb0.995Se1,391.5,0.019498,0.0000051385,0.000062502,2.529,0.10922,194609.3217865136,0.0007602413,0.0003006095
6006,10.1002/adma.201004200,80,1(a),73,Na0.005Pb0.995Se1,Na0.005Pb0.995Se1,392,0.019479,0.0000051485,0.00006263,2.525,0.11023,194231.3295134505,0.0007618757,0.0003017329
6006,10.1002/adma.201004200,80,1(a),73,Na0.005Pb0.995Se1,Na0.005Pb0.995Se1,392.5,0.01946,0.0000051586,0.000062759,2.521,0.11125,193851.0448571318,0.0007635196,0.0003028638
6006,10.1002/adma.201004200,80,1(a),73,Na0.005Pb0.995Se1,Na0.005Pb0.995Se1,393,0.019441,0.0000051687,0.000062887,2.5169,0.11227,193472.246406253,0.0007651392,0.0003040006
6006,10.1002/adma.201004200,80,1(a),73,Na0.005Pb0.995Se1,Na0.005Pb0.995Se1,393.5,0.019422,0.0000051789,0.000063015,2.513,0.11329,193091.19697233,0.0007667439,0.000305111
6006,10.1002/adma.201004200,80,1(a),73,Na0.005Pb0.995Se1,Na0.005Pb0.995Se1,394,0.019403,0.000005189,0.000063143,2.509,0.11431,192715.3594141453,0.0007683635,0.0003062429
6006,10.1002/adma.201004200,80,1(a),73,Na0.005Pb0.995Se1,Na0.005Pb0.995Se1,394.5,0.019384,0.0000051992,0.000063272,2.505,0.11533,192337.2826588706,0.0007699927,0.0003073823
6006,10.1002/adma.201004200,80,1(a),73,Na0.005Pb0.995Se1,Na0.005Pb0.995Se1,395,0.019365,0.0000052095,0.0000634,2.5011,0.11635,191957.0016316345,0.0007715827,0.0003084973
6006,10.1002/adma.201004200,80,1(a),73,Na0.005Pb0.995Se1,Na0.005Pb0.995Se1,395.5,0.019346,0.0000052198,0.000063528,2.4971,0.11737,191578.2213877926,0.0007731727,0.0003096282
6006,10.1002/adma.201004200,80,1(a),73,Na0.005Pb0.995Se1,Na0.005Pb0.995Se1,396,0.019327,0.0000052301,0.000063657,2.4932,0.11839,191200.9330605533,0.000774787,0.0003107601
6006,10.1002/adma.201004200,80,1(a),73,Na0.005Pb0.995Se1,Na0.005Pb0.995Se1,396.5,0.019308,0.0000052404,0.000063786,2.4893,0.11941,190825.1278528357,0.0007764014,0.0003118955
6006,10.1002/adma.201004200,80,1(a),73,Na0.005Pb0.995Se1,Na0.005Pb0.995Se1,397,0.019289,0.0000052508,0.000063914,2.4854,0.12043,190447.1699550545,0.0007779766,0.0003130187
6006,10.1002/adma.201004200,80,1(a),73,Na0.005Pb0.995Se1,Na0.005Pb0.995Se1,397.5,0.01927,0.0000052612,0.000064043,2.4815,0.12145,190070.7063027446,0.0007795761,0.0003141552
6006,10.1002/adma.201004200,80,1(a),73,Na0.005Pb0.995Se1,Na0.005Pb0.995Se1,398,0.019251,0.0000052716,0.000064172,2.4776,0.12247,189695.7280522043,0.0007811757,0.0003152953
6006,10.1002/adma.201004200,80,1(a),73,Na0.005Pb0.995Se1,Na0.005Pb0.995Se1,398.5,0.019232,0.0000052821,0.000064301,2.4738,0.12348,189318.6422066981,0.0007827604,0.0003164202
6006,10.1002/adma.201004200,80,1(a),73,Na0.005Pb0.995Se1,Na0.005Pb0.995Se1,399,0.019214,0.0000052926,0.000064429,2.4699,0.1245,188943.0525639572,0.0007843208,0.0003175516
6006,10.1002/adma.201004200,80,1(a),73,Na0.005Pb0.995Se1,Na0.005Pb0.995Se1,399.5,0.019195,0.0000053032,0.000064558,2.4661,0.12552,188565.3944788052,0.0007858907,0.0003186775
6006,10.1002/adma.201004200,80,1(a),73,Na0.005Pb0.995Se1,Na0.005Pb0.995Se1,400,0.019176,0.0000053137,0.000064687,2.4623,0.12654,188192.7846886351,0.0007874754,0.0003198129
6006,10.1002/adma.201004200,80,1(a),73,Na0.005Pb0.995Se1,Na0.005Pb0.995Se1,400.5,0.019157,0.0000053243,0.000064816,2.4585,0.12756,187818.1169355596,0.0007890453,0.0003209458
6006,10.1002/adma.201004200,80,1(a),73,Na0.005Pb0.995Se1,Na0.005Pb0.995Se1,401,0.019138,0.000005335,0.000064945,2.4547,0.12858,187441.4245548266,0.0007906004,0.0003220762
6006,10.1002/adma.201004200,80,1(a),73,Na0.005Pb0.995Se1,Na0.005Pb0.995Se1,401.5,0.019119,0.0000053456,0.000065075,2.451,0.1296,187069.7395989225,0.0007921946,0.0003232128
6006,10.1002/adma.201004200,80,1(a),73,Na0.005Pb0.995Se1,Na0.005Pb0.995Se1,402,0.0191,0.0000053563,0.000065204,2.4472,0.13062,186696.0401769879,0.0007937497,0.0003243502
6006,10.1002/adma.201004200,80,1(a),73,Na0.005Pb0.995Se1,Na0.005Pb0.995Se1,402.5,0.019081,0.000005367,0.000065333,2.4435,0.13164,186323.8308179616,0.0007953048,0.0003254777
6006,10.1002/adma.201004200,80,1(a),73,Na0.005Pb0.995Se1,Na0.005Pb0.995Se1,403,0.019062,0.0000053778,0.000065462,2.4397,0.13266,185949.6448361783,0.0007968451,0.000326616
6006,10.1002/adma.201004200,80,1(a),73,Na0.005Pb0.995Se1,Na0.005Pb0.995Se1,403.5,0.019043,0.0000053886,0.000065592,2.436,0.13368,185576.9587647998,0.0007984097,0.0003277544
6006,10.1002/adma.201004200,80,1(a),73,Na0.005Pb0.995Se1,Na0.005Pb0.995Se1,404,0.019024,0.0000053994,0.000065721,2.4323,0.1347,185205.7636033633,0.00079995,0.0003288862
6006,10.1002/adma.201004200,80,1(a),73,Na0.005Pb0.995Se1,Na0.005Pb0.995Se1,404.5,0.019005,0.0000054102,0.000065851,2.4286,0.13572,184836.0504232745,0.0008015146,0.0003300315
6006,10.1002/adma.201004200,80,1(a),73,Na0.005Pb0.995Se1,Na0.005Pb0.995Se1,405,0.018986,0.0000054211,0.00006598,2.4249,0.13673,184464.407592555,0.00080304,0.0003311642
6006,10.1002/adma.201004200,80,1(a),73,Na0.005Pb0.995Se1,Na0.005Pb0.995Se1,405.5,0.018967,0.000005432,0.00006611,2.4213,0.13775,184094.2562592047,0.0008045899,0.0003322966
6006,10.1002/adma.201004200,80,1(a),73,Na0.005Pb0.995Se1,Na0.005Pb0.995Se1,406,0.018948,0.000005443,0.000066239,2.4176,0.13877,183722.2120154327,0.0008061005,0.0003334301
6006,10.1002/adma.201004200,80,1(a),73,Na0.005Pb0.995Se1,Na0.005Pb0.995Se1,406.5,0.018929,0.0000054539,0.000066369,2.414,0.13979,183355.0303452575,0.0008076503,0.0003345693
6006,10.1002/adma.201004200,80,1(a),73,Na0.005Pb0.995Se1,Na0.005Pb0.995Se1,407,0.01891,0.0000054649,0.000066499,2.4103,0.14081,182985.9649764863,0.0008091853,0.0003357198
6006,10.1002/adma.201004200,80,1(a),73,Na0.005Pb0.995Se1,Na0.005Pb0.995Se1,407.5,0.018891,0.000005476,0.000066628,2.4067,0.14183,182615.0474799123,0.0008106812,0.0003368435
6006,10.1002/adma.201004200,80,1(a),73,Na0.005Pb0.995Se1,Na0.005Pb0.995Se1,408,0.018873,0.000005487,0.000066758,2.4031,0.14285,182248.9520685256,0.0008122163,0.0003379869
6006,10.1002/adma.201004200,80,1(a),73,Na0.005Pb0.995Se1,Na0.005Pb0.995Se1,408.5,0.018854,0.0000054981,0.000066888,2.3995,0.14387,181881.0134410069,0.0008137365,0.0003391275
6006,10.1002/adma.201004200,80,1(a),73,Na0.005Pb0.995Se1,Na0.005Pb0.995Se1,409,0.018835,0.0000055092,0.000067018,2.396,0.14489,181514.5574675089,0.0008152567,0.0003402574
6006,10.1002/adma.201004200,80,1(a),73,Na0.005Pb0.995Se1,Na0.005Pb0.995Se1,409.5,0.018816,0.0000055204,0.000067148,2.3924,0.14591,181146.29374683,0.0008167622,0.0003413987
6006,10.1002/adma.201004200,80,1(a),73,Na0.005Pb0.995Se1,Na0.005Pb0.995Se1,410,0.018797,0.0000055315,0.000067278,2.3888,0.14693,180782.7894784416,0.0008182824,0.0003425496
6006,10.1002/adma.201004200,80,1(a),73,Na0.005Pb0.995Se1,Na0.005Pb0.995Se1,410.5,0.018778,0.0000055427,0.000067408,2.3853,0.14795,180417.4860627492,0.0008197879,0.0003436834
6006,10.1002/adma.201004200,80,1(a),73,Na0.005Pb0.995Se1,Na0.005Pb0.995Se1,411,0.018759,0.000005554,0.000067538,2.3818,0.14897,180050.4141159525,0.0008212786,0.0003448143
6006,10.1002/adma.201004200,80,1(a),73,Na0.005Pb0.995Se1,Na0.005Pb0.995Se1,411.5,0.01874,0.0000055652,0.000067669,2.3783,0.14998,179688.0615251923,0.0008228084,0.000345965
6006,10.1002/adma.201004200,80,1(a),73,Na0.005Pb0.995Se1,Na0.005Pb0.995Se1,412,0.018721,0.0000055765,0.000067799,2.3748,0.151,179323.9487133507,0.0008242992,0.0003471026
6006,10.1002/adma.201004200,80,1(a),73,Na0.005Pb0.995Se1,Na0.005Pb0.995Se1,412.5,0.018702,0.0000055878,0.000067929,2.3713,0.15202,178961.3085650882,0.0008257899,0.0003482436
6006,10.1002/adma.201004200,80,1(a),73,Na0.005Pb0.995Se1,Na0.005Pb0.995Se1,413,0.018683,0.0000055992,0.00006806,2.3678,0.15304,178596.9424203458,0.0008272903,0.0003493919
6006,10.1002/adma.201004200,80,1(a),73,Na0.005Pb0.995Se1,Na0.005Pb0.995Se1,413.5,0.018664,0.0000056106,0.00006819,2.3643,0.15406,178234.0569636046,0.0008287663,0.0003505335
6006,10.1002/adma.201004200,80,1(a),73,Na0.005Pb0.995Se1,Na0.005Pb0.995Se1,414,0.018645,0.000005622,0.00006832,2.3609,0.15508,177872.6431874778,0.0008302423,0.0003516635
6006,10.1002/adma.201004200,80,1(a),73,Na0.005Pb0.995Se1,Na0.005Pb0.995Se1,414.5,0.018626,0.0000056334,0.000068451,2.3574,0.1561,177512.6921574892,0.0008317427,0.0003528221
6006,10.1002/adma.201004200,80,1(a),73,Na0.005Pb0.995Se1,Na0.005Pb0.995Se1,415,0.018607,0.0000056449,0.000068581,2.354,0.15712,177151.0567060533,0.0008332041,0.0003539524
6006,10.1002/adma.201004200,80,1(a),73,Na0.005Pb0.995Se1,Na0.005Pb0.995Se1,415.5,0.018588,0.0000056563,0.000068712,2.3506,0.15814,176794.0172904549,0.0008347045,0.0003551027
6006,10.1002/adma.201004200,80,1(a),73,Na0.005Pb0.995Se1,Na0.005Pb0.995Se1,416,0.018569,0.0000056679,0.000068843,2.3471,0.15916,176432.1882884313,0.0008361754,0.000356259
6006,10.1002/adma.201004200,80,1(a),73,Na0.005Pb0.995Se1,Na0.005Pb0.995Se1,416.5,0.01855,0.0000056794,0.000068973,2.3437,0.16018,176074.9374933972,0.0008376369,0.0003573993
6006,10.1002/adma.201004200,80,1(a),73,Na0.005Pb0.995Se1,Na0.005Pb0.995Se1,417,0.018532,0.000005691,0.000069104,2.3404,0.1612,175716.0428747144,0.0008391079,0.0003585318
6006,10.1002/adma.201004200,80,1(a),73,Na0.005Pb0.995Se1,Na0.005Pb0.995Se1,417.5,0.018513,0.0000057026,0.000069235,2.337,0.16222,175358.6083540841,0.0008405789,0.0003596829
6006,10.1002/adma.201004200,80,1(a),73,Na0.005Pb0.995Se1,Na0.005Pb0.995Se1,418,0.018494,0.0000057142,0.000069366,2.3336,0.16323,175002.6250393756,0.00084205,0.0003608373
6006,10.1002/adma.201004200,80,1(a),73,Na0.005Pb0.995Se1,Na0.005Pb0.995Se1,418.5,0.018475,0.0000057259,0.000069497,2.3303,0.16425,174645.0339684591,0.0008435063,0.0003619733
6006,10.1002/adma.201004200,80,1(a),73,Na0.005Pb0.995Se1,Na0.005Pb0.995Se1,419,0.018456,0.0000057375,0.000069628,2.3269,0.16527,174291.9389978214,0.0008449775,0.0003631344
6006,10.1002/adma.201004200,80,1(a),73,Na0.005Pb0.995Se1,Na0.005Pb0.995Se1,419.5,0.018437,0.0000057492,0.000069759,2.3236,0.16629,173937.2434425659,0.000846434,0.000364277
6006,10.1002/adma.201004200,80,1(a),73,Na0.005Pb0.995Se1,Na0.005Pb0.995Se1,420,0.018418,0.000005761,0.00006989,2.3203,0.16731,173580.9755250824,0.0008478757,0.0003654164
6006,10.1002/adma.201004200,80,1(a),73,Na0.005Pb0.995Se1,Na0.005Pb0.995Se1,420.5,0.018399,0.0000057727,0.000070021,2.317,0.16833,173229.1648621962,0.0008493323,0.0003665655
6006,10.1002/adma.201004200,80,1(a),73,Na0.005Pb0.995Se1,Na0.005Pb0.995Se1,421,0.01838,0.0000057845,0.000070152,2.3137,0.16935,172875.7887457862,0.0008507742,0.0003677115
6006,10.1002/adma.201004200,80,1(a),73,Na0.005Pb0.995Se1,Na0.005Pb0.995Se1,421.5,0.018361,0.0000057963,0.000070283,2.3104,0.17037,172523.8514224591,0.0008522161,0.0003688608
6006,10.1002/adma.201004200,80,1(a),73,Na0.005Pb0.995Se1,Na0.005Pb0.995Se1,422,0.018342,0.0000058082,0.000070415,2.3071,0.17139,172170.3798078579,0.0008536676,0.0003700176
6006,10.1002/adma.201004200,80,1(a),73,Na0.005Pb0.995Se1,Na0.005Pb0.995Se1,422.5,0.018323,0.0000058201,0.000070546,2.3038,0.17241,171818.3536365354,0.0008550949,0.0003711672
6006,10.1002/adma.201004200,80,1(a),73,Na0.005Pb0.995Se1,Na0.005Pb0.995Se1,423,0.018304,0.000005832,0.000070677,2.3006,0.17343,171467.7640603567,0.0008565223,0.0003723039
6006,10.1002/adma.201004200,80,1(a),73,Na0.005Pb0.995Se1,Na0.005Pb0.995Se1,423.5,0.018285,0.0000058439,0.000070809,2.2973,0.17445,171118.6023032564,0.000857974,0.0003734706
6006,10.1002/adma.201004200,80,1(a),73,Na0.005Pb0.995Se1,Na0.005Pb0.995Se1,424,0.018266,0.0000058558,0.00007094,2.2941,0.17546,170770.8596605075,0.0008594016,0.0003746138
6006,10.1002/adma.201004200,80,1(a),73,Na0.005Pb0.995Se1,Na0.005Pb0.995Se1,424.5,0.018247,0.0000058678,0.000071072,2.2909,0.17648,170421.6230955384,0.0008608387,0.0003757644
6006,10.1002/adma.201004200,80,1(a),73,Na0.005Pb0.995Se1,Na0.005Pb0.995Se1,425,0.018228,0.0000058798,0.000071203,2.2876,0.1775,170073.8120344229,0.0008622516,0.0003769241
6006,10.1002/adma.201004200,80,1(a),73,Na0.005Pb0.995Se1,Na0.005Pb0.995Se1,425.5,0.018209,0.0000058918,0.000071335,2.2844,0.17852,169727.4177670661,0.0008636889,0.0003780813
6006,10.1002/adma.201004200,80,1(a),73,Na0.005Pb0.995Se1,Na0.005Pb0.995Se1,426,0.01819,0.0000059039,0.000071467,2.2812,0.17954,169379.5626619692,0.0008651116,0.0003792353
6006,10.1002/adma.201004200,80,1(a),73,Na0.005Pb0.995Se1,Na0.005Pb0.995Se1,426.5,0.018172,0.000005916,0.000071599,2.2781,0.18056,169033.1304935768,0.0008665343,0.0003803759
6006,10.1002/adma.201004200,80,1(a),73,Na0.005Pb0.995Se1,Na0.005Pb0.995Se1,427,0.018153,0.0000059281,0.00007173,2.2749,0.18158,168688.1125487087,0.0008679329,0.0003815257
6006,10.1002/adma.201004200,80,1(a),73,Na0.005Pb0.995Se1,Na0.005Pb0.995Se1,427.5,0.018134,0.0000059402,0.000071862,2.2717,0.1826,168344.5001851789,0.0008693558,0.0003826895
6006,10.1002/adma.201004200,80,1(a),73,Na0.005Pb0.995Se1,Na0.005Pb0.995Se1,428,0.018115,0.0000059524,0.000071994,2.2686,0.18362,167999.4624017203,0.0008707641,0.0003838332
6006,10.1002/adma.201004200,80,1(a),73,Na0.005Pb0.995Se1,Na0.005Pb0.995Se1,428.5,0.018096,0.0000059646,0.000072126,2.2654,0.18464,167655.8360996546,0.0008721725,0.0003849971
6006,10.1002/adma.201004200,80,1(a),73,Na0.005Pb0.995Se1,Na0.005Pb0.995Se1,429,0.018077,0.0000059768,0.000072258,2.2623,0.18566,167313.612635524,0.0008735809,0.0003861473
6006,10.1002/adma.201004200,80,1(a),73,Na0.005Pb0.995Se1,Na0.005Pb0.995Se1,429.5,0.018058,0.000005989,0.00007239,2.2592,0.18668,166972.7834362999,0.0008749895,0.0003873006
6006,10.1002/adma.201004200,80,1(a),73,Na0.005Pb0.995Se1,Na0.005Pb0.995Se1,430,0.018039,0.0000060013,0.000072522,2.2561,0.1877,166630.5633779348,0.0008763835,0.0003884507