sid,DOI,figureid,fignum,sampleid,samplename,composition,Temperature,Carrier mobility,Electrical resistivity,Seebeck coefficient,Thermal conductivity,ZT,Electrical conductivity,Power factor,Figure of merit Z
6006,10.1002/adma.201004200,80,1(a),124,Na0.0125Pb0.9875Se1,Na0.0125Pb0.9875Se1,480,0.0085236,0.0000054603,0.000055293,2.5189,0.14289,183140.1205061993,0.0005599172,0.0002222864
6006,10.1002/adma.201004200,80,1(a),124,Na0.0125Pb0.9875Se1,Na0.0125Pb0.9875Se1,480.5,0.0085157,0.0000054691,0.000055441,2.5162,0.144,182845.4407489349,0.0005620129,0.0002233578
6006,10.1002/adma.201004200,80,1(a),124,Na0.0125Pb0.9875Se1,Na0.0125Pb0.9875Se1,481,0.0085078,0.0000054778,0.000055589,2.5136,0.14511,182555.0403446639,0.0005641201,0.0002244271
6006,10.1002/adma.201004200,80,1(a),124,Na0.0125Pb0.9875Se1,Na0.0125Pb0.9875Se1,481.5,0.0084999,0.0000054866,0.000055737,2.5109,0.14621,182262.2389093428,0.0005662183,0.0002255041
6006,10.1002/adma.201004200,80,1(a),124,Na0.0125Pb0.9875Se1,Na0.0125Pb0.9875Se1,482,0.0084919,0.0000054953,0.000055885,2.5083,0.14732,181973.6866049169,0.0005683281,0.000226579
6006,10.1002/adma.201004200,80,1(a),124,Na0.0125Pb0.9875Se1,Na0.0125Pb0.9875Se1,482.5,0.008484,0.0000055041,0.000056033,2.5056,0.14843,181682.7455896513,0.0005704288,0.0002276616
6006,10.1002/adma.201004200,80,1(a),124,Na0.0125Pb0.9875Se1,Na0.0125Pb0.9875Se1,483,0.0084761,0.0000055129,0.000056181,2.503,0.14954,181392.7334070997,0.0005725307,0.0002287378
6006,10.1002/adma.201004200,80,1(a),124,Na0.0125Pb0.9875Se1,Na0.0125Pb0.9875Se1,483.5,0.0084682,0.0000055217,0.000056329,2.5004,0.15064,181103.6456163863,0.0005746339,0.0002298168
6006,10.1002/adma.201004200,80,1(a),124,Na0.0125Pb0.9875Se1,Na0.0125Pb0.9875Se1,484,0.0084603,0.0000055305,0.000056477,2.4978,0.15175,180815.4778049001,0.0005767384,0.0002308985
6006,10.1002/adma.201004200,80,1(a),124,Na0.0125Pb0.9875Se1,Na0.0125Pb0.9875Se1,484.5,0.0084524,0.0000055393,0.000056625,2.4951,0.15286,180528.2255880707,0.000578844,0.0002319923
6006,10.1002/adma.201004200,80,1(a),124,Na0.0125Pb0.9875Se1,Na0.0125Pb0.9875Se1,485,0.0084445,0.0000055482,0.000056772,2.4925,0.15397,180238.6359540031,0.0005809199,0.0002330672
6006,10.1002/adma.201004200,80,1(a),124,Na0.0125Pb0.9875Se1,Na0.0125Pb0.9875Se1,485.5,0.0084365,0.000005557,0.00005692,2.4899,0.15507,179953.2121648371,0.000583028,0.0002341572
6006,10.1002/adma.201004200,80,1(a),124,Na0.0125Pb0.9875Se1,Na0.0125Pb0.9875Se1,486,0.0084286,0.0000055659,0.000057068,2.4873,0.15618,179665.4629080652,0.0005851267,0.0002352457
6006,10.1002/adma.201004200,80,1(a),124,Na0.0125Pb0.9875Se1,Na0.0125Pb0.9875Se1,486.5,0.0084207,0.0000055748,0.000057216,2.4847,0.15729,179378.6324173064,0.0005872266,0.000236337
6006,10.1002/adma.201004200,80,1(a),124,Na0.0125Pb0.9875Se1,Na0.0125Pb0.9875Se1,487,0.0084128,0.0000055837,0.000057363,2.4821,0.1584,179092.7162992281,0.000589307,0.0002374228
6006,10.1002/adma.201004200,80,1(a),124,Na0.0125Pb0.9875Se1,Na0.0125Pb0.9875Se1,487.5,0.0084049,0.0000055926,0.000057511,2.4795,0.1595,178807.7101884633,0.0005914092,0.0002385195
6006,10.1002/adma.201004200,80,1(a),124,Na0.0125Pb0.9875Se1,Na0.0125Pb0.9875Se1,488,0.008397,0.0000056015,0.000057659,2.4769,0.16061,178523.6097473891,0.0005935125,0.0002396191
6006,10.1002/adma.201004200,80,1(a),124,Na0.0125Pb0.9875Se1,Na0.0125Pb0.9875Se1,488.5,0.0083891,0.0000056104,0.000057806,2.4743,0.16172,178240.4106659062,0.0005955963,0.0002407131
6006,10.1002/adma.201004200,80,1(a),124,Na0.0125Pb0.9875Se1,Na0.0125Pb0.9875Se1,489,0.0083811,0.0000056194,0.000057954,2.4717,0.16283,177954.941808734,0.0005976912,0.0002418138
6006,10.1002/adma.201004200,80,1(a),124,Na0.0125Pb0.9875Se1,Na0.0125Pb0.9875Se1,489.5,0.0083732,0.0000056283,0.000058102,2.4691,0.16393,177673.5426327666,0.0005997979,0.0002429217
6006,10.1002/adma.201004200,80,1(a),124,Na0.0125Pb0.9875Se1,Na0.0125Pb0.9875Se1,490,0.0083653,0.0000056373,0.000058249,2.4665,0.16504,177389.8852287442,0.0006018743,0.0002440196
6006,10.1002/adma.201004200,80,1(a),124,Na0.0125Pb0.9875Se1,Na0.0125Pb0.9875Se1,490.5,0.0083574,0.0000056463,0.000058397,2.4639,0.16615,177107.1321042099,0.0006039724,0.0002451286
6006,10.1002/adma.201004200,80,1(a),124,Na0.0125Pb0.9875Se1,Na0.0125Pb0.9875Se1,491,0.0083495,0.0000056553,0.000058544,2.4613,0.16726,176825.2789418775,0.0006060509,0.0002462321
6006,10.1002/adma.201004200,80,1(a),124,Na0.0125Pb0.9875Se1,Na0.0125Pb0.9875Se1,491.5,0.0083416,0.0000056643,0.000058691,2.4587,0.16837,176544.3214519005,0.0006081305,0.0002473382
6006,10.1002/adma.201004200,80,1(a),124,Na0.0125Pb0.9875Se1,Na0.0125Pb0.9875Se1,492,0.0083337,0.0000056733,0.000058839,2.4562,0.16947,176264.2553716532,0.0006102318,0.0002484455
6006,10.1002/adma.201004200,80,1(a),124,Na0.0125Pb0.9875Se1,Na0.0125Pb0.9875Se1,492.5,0.0083257,0.0000056823,0.000058986,2.4536,0.17058,175985.0764655157,0.0006123134,0.0002495571
6006,10.1002/adma.201004200,80,1(a),124,Na0.0125Pb0.9875Se1,Na0.0125Pb0.9875Se1,493,0.0083178,0.0000056914,0.000059133,2.451,0.17169,175703.693291633,0.0006143852,0.0002506671
6006,10.1002/adma.201004200,80,1(a),124,Na0.0125Pb0.9875Se1,Na0.0125Pb0.9875Se1,493.5,0.0083099,0.0000057005,0.000059281,2.4485,0.1728,175423.2084904833,0.0006164787,0.0002517781
6006,10.1002/adma.201004200,80,1(a),124,Na0.0125Pb0.9875Se1,Na0.0125Pb0.9875Se1,494,0.008302,0.0000057095,0.000059428,2.4459,0.1739,175146.6853489798,0.0006185633,0.000252898
6006,10.1002/adma.201004200,80,1(a),124,Na0.0125Pb0.9875Se1,Na0.0125Pb0.9875Se1,494.5,0.0082941,0.0000057186,0.000059575,2.4433,0.17501,174867.9746791173,0.000620638,0.0002540163
6006,10.1002/adma.201004200,80,1(a),124,Na0.0125Pb0.9875Se1,Na0.0125Pb0.9875Se1,495,0.0082862,0.0000057277,0.000059722,2.4408,0.17612,174590.1496237582,0.0006227137,0.0002551269
6006,10.1002/adma.201004200,80,1(a),124,Na0.0125Pb0.9875Se1,Na0.0125Pb0.9875Se1,495.5,0.0082783,0.0000057368,0.000059869,2.4382,0.17723,174313.2059684842,0.0006247903,0.0002562506
6006,10.1002/adma.201004200,80,1(a),124,Na0.0125Pb0.9875Se1,Na0.0125Pb0.9875Se1,496,0.0082703,0.000005746,0.000060016,2.4357,0.17833,174034.1106856944,0.000626857,0.0002573621
6006,10.1002/adma.201004200,80,1(a),124,Na0.0125Pb0.9875Se1,Na0.0125Pb0.9875Se1,496.5,0.0082624,0.0000057551,0.000060163,2.4331,0.17944,173758.9268648677,0.0006289355,0.0002584914
6006,10.1002/adma.201004200,80,1(a),124,Na0.0125Pb0.9875Se1,Na0.0125Pb0.9875Se1,497,0.0082545,0.0000057643,0.00006031,2.4306,0.18055,173481.6022760786,0.000631004,0.0002596083
6006,10.1002/adma.201004200,80,1(a),124,Na0.0125Pb0.9875Se1,Na0.0125Pb0.9875Se1,497.5,0.0082466,0.0000057734,0.000060457,2.428,0.18166,173208.1615685731,0.0006330843,0.0002607431
6006,10.1002/adma.201004200,80,1(a),124,Na0.0125Pb0.9875Se1,Na0.0125Pb0.9875Se1,498,0.0082387,0.0000057826,0.000060604,2.4255,0.18276,172932.5908760765,0.0006351546,0.0002618654
6006,10.1002/adma.201004200,80,1(a),124,Na0.0125Pb0.9875Se1,Na0.0125Pb0.9875Se1,498.5,0.0082308,0.0000057918,0.000060751,2.4229,0.18387,172657.8956455679,0.0006372257,0.0002630013
6006,10.1002/adma.201004200,80,1(a),124,Na0.0125Pb0.9875Se1,Na0.0125Pb0.9875Se1,499,0.0082229,0.000005801,0.000060898,2.4204,0.18498,172384.0717117738,0.0006392978,0.000264129
6006,10.1002/adma.201004200,80,1(a),124,Na0.0125Pb0.9875Se1,Na0.0125Pb0.9875Se1,499.5,0.0082149,0.0000058102,0.000061045,2.4178,0.18609,172111.1149358026,0.0006413707,0.0002652704
6006,10.1002/adma.201004200,80,1(a),124,Na0.0125Pb0.9875Se1,Na0.0125Pb0.9875Se1,500,0.008207,0.0000058195,0.000061191,2.4153,0.18719,171836.0683907552,0.0006434124,0.0002663903
6006,10.1002/adma.201004200,80,1(a),124,Na0.0125Pb0.9875Se1,Na0.0125Pb0.9875Se1,500.5,0.0081991,0.0000058287,0.000061338,2.4128,0.1883,171564.8429323863,0.000645487,0.0002675261
6006,10.1002/adma.201004200,80,1(a),124,Na0.0125Pb0.9875Se1,Na0.0125Pb0.9875Se1,501,0.0081912,0.000005838,0.000061485,2.4103,0.18941,171291.538198013,0.0006475514,0.0002686601
6006,10.1002/adma.201004200,80,1(a),124,Na0.0125Pb0.9875Se1,Na0.0125Pb0.9875Se1,501.5,0.0081833,0.0000058473,0.000061631,2.4077,0.19052,171019.1028337865,0.0006495956,0.0002697992
6006,10.1002/adma.201004200,80,1(a),124,Na0.0125Pb0.9875Se1,Na0.0125Pb0.9875Se1,502,0.0081754,0.0000058566,0.000061778,2.4052,0.19163,170747.5326981525,0.0006516616,0.0002709386
6006,10.1002/adma.201004200,80,1(a),124,Na0.0125Pb0.9875Se1,Na0.0125Pb0.9875Se1,502.5,0.0081675,0.0000058659,0.000061924,2.4027,0.19273,170476.8236758213,0.0006537073,0.000272072
6006,10.1002/adma.201004200,80,1(a),124,Na0.0125Pb0.9875Se1,Na0.0125Pb0.9875Se1,503,0.0081595,0.0000058752,0.000062071,2.4002,0.19384,170206.9716775599,0.000655775,0.0002732168
6006,10.1002/adma.201004200,80,1(a),124,Na0.0125Pb0.9875Se1,Na0.0125Pb0.9875Se1,503.5,0.0081516,0.0000058845,0.000062217,2.3977,0.19495,169937.9726399864,0.0006578223,0.0002743555
6006,10.1002/adma.201004200,80,1(a),124,Na0.0125Pb0.9875Se1,Na0.0125Pb0.9875Se1,504,0.0081437,0.0000058939,0.000062363,2.3951,0.19606,169666.9437893415,0.0006598591,0.0002755038
6006,10.1002/adma.201004200,80,1(a),124,Na0.0125Pb0.9875Se1,Na0.0125Pb0.9875Se1,504.5,0.0081358,0.0000059032,0.00006251,2.3926,0.19716,169399.6476487329,0.0006619291,0.0002766568
6006,10.1002/adma.201004200,80,1(a),124,Na0.0125Pb0.9875Se1,Na0.0125Pb0.9875Se1,505,0.0081279,0.0000059126,0.000062656,2.3901,0.19827,169130.3318337111,0.0006639675,0.0002777991
6006,10.1002/adma.201004200,80,1(a),124,Na0.0125Pb0.9875Se1,Na0.0125Pb0.9875Se1,505.5,0.00812,0.000005922,0.000062802,2.3876,0.19938,168861.8709895306,0.0006660066,0.000278944
6006,10.1002/adma.201004200,80,1(a),124,Na0.0125Pb0.9875Se1,Na0.0125Pb0.9875Se1,506,0.0081121,0.0000059314,0.000062948,2.3851,0.20049,168594.2610513538,0.0006680464,0.0002800916
6006,10.1002/adma.201004200,80,1(a),124,Na0.0125Pb0.9875Se1,Na0.0125Pb0.9875Se1,506.5,0.0081041,0.0000059408,0.000063094,2.3826,0.20159,168327.49798007,0.000670087,0.0002812419
6006,10.1002/adma.201004200,80,1(a),124,Na0.0125Pb0.9875Se1,Na0.0125Pb0.9875Se1,507,0.0080962,0.0000059503,0.00006324,2.3801,0.2027,168058.7533401677,0.000672117,0.0002823902
6006,10.1002/adma.201004200,80,1(a),124,Na0.0125Pb0.9875Se1,Na0.0125Pb0.9875Se1,507.5,0.0080883,0.0000059597,0.000063386,2.3776,0.20381,167793.6808899777,0.0006741589,0.000283546
6006,10.1002/adma.201004200,80,1(a),124,Na0.0125Pb0.9875Se1,Na0.0125Pb0.9875Se1,508,0.0080804,0.0000059692,0.000063532,2.3751,0.20492,167526.6367352409,0.0006761903,0.0002846997
6006,10.1002/adma.201004200,80,1(a),124,Na0.0125Pb0.9875Se1,Na0.0125Pb0.9875Se1,508.5,0.0080725,0.0000059787,0.000063678,2.3726,0.20602,167260.441233044,0.0006782223,0.0002858562
6006,10.1002/adma.201004200,80,1(a),124,Na0.0125Pb0.9875Se1,Na0.0125Pb0.9875Se1,509,0.0080646,0.0000059882,0.000063824,2.3702,0.20713,166995.0903443439,0.000680255,0.0002870032
6006,10.1002/adma.201004200,80,1(a),124,Na0.0125Pb0.9875Se1,Na0.0125Pb0.9875Se1,509.5,0.0080567,0.0000059977,0.00006397,2.3677,0.20824,166730.580055688,0.0006822884,0.000288165
6006,10.1002/adma.201004200,80,1(a),124,Na0.0125Pb0.9875Se1,Na0.0125Pb0.9875Se1,510,0.0080487,0.0000060072,0.000064115,2.3652,0.20935,166466.9063790119,0.000684301,0.0002893206
6006,10.1002/adma.201004200,80,1(a),124,Na0.0125Pb0.9875Se1,Na0.0125Pb0.9875Se1,510.5,0.0080408,0.0000060167,0.000064261,2.3627,0.21045,166204.0653514385,0.0006863357,0.0002904879
6006,10.1002/adma.201004200,80,1(a),124,Na0.0125Pb0.9875Se1,Na0.0125Pb0.9875Se1,511,0.0080329,0.0000060263,0.000064407,2.3602,0.21156,165939.2994042779,0.0006883596,0.0002916531
6006,10.1002/adma.201004200,80,1(a),124,Na0.0125Pb0.9875Se1,Na0.0125Pb0.9875Se1,511.5,0.008025,0.0000060359,0.000064552,2.3578,0.21267,165675.3756689143,0.0006903628,0.0002927996
6006,10.1002/adma.201004200,80,1(a),124,Na0.0125Pb0.9875Se1,Na0.0125Pb0.9875Se1,512,0.0080171,0.0000060455,0.000064698,2.3553,0.21378,165412.2901331569,0.0006923879,0.0002939702
6006,10.1002/adma.201004200,80,1(a),124,Na0.0125Pb0.9875Se1,Na0.0125Pb0.9875Se1,512.5,0.0080092,0.0000060551,0.000064843,2.3528,0.21489,165150.0388102591,0.0006943923,0.0002951344
6006,10.1002/adma.201004200,80,1(a),124,Na0.0125Pb0.9875Se1,Na0.0125Pb0.9875Se1,513,0.0080013,0.0000060647,0.000064988,2.3503,0.21599,164888.6177387175,0.0006963972,0.0002963014
6006,10.1002/adma.201004200,80,1(a),124,Na0.0125Pb0.9875Se1,Na0.0125Pb0.9875Se1,513.5,0.0079933,0.0000060743,0.000065134,2.3479,0.2171,164628.022982072,0.0006984242,0.0002974676
6006,10.1002/adma.201004200,80,1(a),124,Na0.0125Pb0.9875Se1,Na0.0125Pb0.9875Se1,514,0.0079854,0.0000060839,0.000065279,2.3454,0.21821,164368.2506287085,0.0007004303,0.00029864
6006,10.1002/adma.201004200,80,1(a),124,Na0.0125Pb0.9875Se1,Na0.0125Pb0.9875Se1,514.5,0.0079775,0.0000060936,0.000065424,2.343,0.21932,164106.6036497309,0.0007024255,0.0002997975
6006,10.1002/adma.201004200,80,1(a),124,Na0.0125Pb0.9875Se1,Na0.0125Pb0.9875Se1,515,0.0079696,0.0000061033,0.000065569,2.3405,0.22042,163845.7883440106,0.0007044212,0.0003009704
6006,10.1002/adma.201004200,80,1(a),124,Na0.0125Pb0.9875Se1,Na0.0125Pb0.9875Se1,515.5,0.0079617,0.000006113,0.000065715,2.338,0.22153,163585.8007524947,0.0007064389,0.0003021552
6006,10.1002/adma.201004200,80,1(a),124,Na0.0125Pb0.9875Se1,Na0.0125Pb0.9875Se1,516,0.0079538,0.0000061227,0.00006586,2.3356,0.22264,163326.6369412187,0.0007084358,0.0003033207
6006,10.1002/adma.201004200,80,1(a),124,Na0.0125Pb0.9875Se1,Na0.0125Pb0.9875Se1,516.5,0.0079459,0.0000061324,0.000066005,2.3331,0.22375,163068.2930011089,0.0007104331,0.0003045018
6006,10.1002/adma.201004200,80,1(a),124,Na0.0125Pb0.9875Se1,Na0.0125Pb0.9875Se1,517,0.0079379,0.0000061421,0.00006615,2.3307,0.22485,162810.765047785,0.000712431,0.0003056725
6006,10.1002/adma.201004200,80,1(a),124,Na0.0125Pb0.9875Se1,Na0.0125Pb0.9875Se1,517.5,0.00793,0.0000061519,0.000066295,2.3282,0.22596,162551.4068824266,0.0007144178,0.0003068541
6006,10.1002/adma.201004200,80,1(a),124,Na0.0125Pb0.9875Se1,Na0.0125Pb0.9875Se1,518,0.0079221,0.0000061617,0.000066439,2.3258,0.22707,162292.873719915,0.0007163836,0.000308016
6006,10.1002/adma.201004200,80,1(a),124,Na0.0125Pb0.9875Se1,Na0.0125Pb0.9875Se1,518.5,0.0079142,0.0000061714,0.000066584,2.3233,0.22818,162037.7872119778,0.000718383,0.000309208
6006,10.1002/adma.201004200,80,1(a),124,Na0.0125Pb0.9875Se1,Na0.0125Pb0.9875Se1,519,0.0079063,0.0000061813,0.000066729,2.3209,0.22928,161778.2667076505,0.0007203597,0.0003103795
6006,10.1002/adma.201004200,80,1(a),124,Na0.0125Pb0.9875Se1,Na0.0125Pb0.9875Se1,519.5,0.0078984,0.0000061911,0.000066874,2.3185,0.23039,161522.1850721197,0.0007223485,0.0003115586
6006,10.1002/adma.201004200,80,1(a),124,Na0.0125Pb0.9875Se1,Na0.0125Pb0.9875Se1,520,0.0078905,0.0000062009,0.000067018,2.316,0.2315,161266.912867487,0.0007243162,0.0003127445
6006,10.1002/adma.201004200,80,1(a),124,Na0.0125Pb0.9875Se1,Na0.0125Pb0.9875Se1,520.5,0.0078825,0.0000062107,0.000067163,2.3136,0.23261,161012.4462620961,0.000726306,0.0003139289
6006,10.1002/adma.201004200,80,1(a),124,Na0.0125Pb0.9875Se1,Na0.0125Pb0.9875Se1,521,0.0078746,0.0000062206,0.000067307,2.3112,0.23371,160756.1971514002,0.0007282629,0.0003151016
6006,10.1002/adma.201004200,80,1(a),124,Na0.0125Pb0.9875Se1,Na0.0125Pb0.9875Se1,521.5,0.0078667,0.0000062305,0.000067452,2.3087,0.23482,160500.7623786213,0.0007302419,0.0003163
6006,10.1002/adma.201004200,80,1(a),124,Na0.0125Pb0.9875Se1,Na0.0125Pb0.9875Se1,522,0.0078588,0.0000062404,0.000067596,2.3063,0.23593,160246.1380680726,0.0007321997,0.0003174781
6006,10.1002/adma.201004200,80,1(a),124,Na0.0125Pb0.9875Se1,Na0.0125Pb0.9875Se1,522.5,0.0078509,0.0000062503,0.000067741,2.3039,0.23704,159992.3203686223,0.0007341797,0.0003186682
6006,10.1002/adma.201004200,80,1(a),124,Na0.0125Pb0.9875Se1,Na0.0125Pb0.9875Se1,523,0.007843,0.0000062602,0.000067885,2.3015,0.23815,159739.3054534999,0.0007361383,0.0003198515
6006,10.1002/adma.201004200,80,1(a),124,Na0.0125Pb0.9875Se1,Na0.0125Pb0.9875Se1,523.5,0.0078351,0.0000062702,0.000068029,2.299,0.23925,159484.5459474977,0.0007380857,0.0003210464
6006,10.1002/adma.201004200,80,1(a),124,Na0.0125Pb0.9875Se1,Na0.0125Pb0.9875Se1,524,0.0078271,0.0000062801,0.000068174,2.2966,0.24036,159233.1332303626,0.0007400669,0.0003222446
6006,10.1002/adma.201004200,80,1(a),124,Na0.0125Pb0.9875Se1,Na0.0125Pb0.9875Se1,524.5,0.0078192,0.0000062901,0.000068318,2.2942,0.24147,158979.9844199615,0.0007420151,0.0003234309
6006,10.1002/adma.201004200,80,1(a),124,Na0.0125Pb0.9875Se1,Na0.0125Pb0.9875Se1,525,0.0078113,0.0000063001,0.000068462,2.2918,0.24258,158727.6392438215,0.0007439637,0.0003246198
6006,10.1002/adma.201004200,80,1(a),124,Na0.0125Pb0.9875Se1,Na0.0125Pb0.9875Se1,525.5,0.0078034,0.0000063101,0.000068606,2.2894,0.24368,158476.093881238,0.0007459126,0.0003258114
6006,10.1002/adma.201004200,80,1(a),124,Na0.0125Pb0.9875Se1,Na0.0125Pb0.9875Se1,526,0.0077955,0.0000063202,0.00006875,2.287,0.24479,158222.8410493339,0.0007478501,0.0003270005
6006,10.1002/adma.201004200,80,1(a),124,Na0.0125Pb0.9875Se1,Na0.0125Pb0.9875Se1,526.5,0.0077876,0.0000063302,0.000068894,2.2846,0.2459,157972.8918517582,0.0007497999,0.0003281974
6006,10.1002/adma.201004200,80,1(a),124,Na0.0125Pb0.9875Se1,Na0.0125Pb0.9875Se1,527,0.0077797,0.0000063403,0.000069038,2.2821,0.24701,157721.2434742835,0.0007517382,0.0003294063
6006,10.1002/adma.201004200,80,1(a),124,Na0.0125Pb0.9875Se1,Na0.0125Pb0.9875Se1,527.5,0.0077717,0.0000063504,0.000069182,2.2797,0.24811,157470.3955656337,0.0007536768,0.0003306035
6006,10.1002/adma.201004200,80,1(a),124,Na0.0125Pb0.9875Se1,Na0.0125Pb0.9875Se1,528,0.0077638,0.0000063605,0.000069326,2.2773,0.24922,157220.344312554,0.0007556158,0.0003318034
6006,10.1002/adma.201004200,80,1(a),124,Na0.0125Pb0.9875Se1,Na0.0125Pb0.9875Se1,528.5,0.0077559,0.0000063706,0.000069469,2.2749,0.25033,156971.0859259724,0.0007575334,0.0003329963
6006,10.1002/adma.201004200,80,1(a),124,Na0.0125Pb0.9875Se1,Na0.0125Pb0.9875Se1,529,0.007748,0.0000063807,0.000069613,2.2725,0.25144,156722.6166408074,0.0007594731,0.0003342016
6006,10.1002/adma.201004200,80,1(a),124,Na0.0125Pb0.9875Se1,Na0.0125Pb0.9875Se1,529.5,0.0077401,0.0000063908,0.000069757,2.2702,0.25254,156474.9327157789,0.0007614131,0.0003353947
6006,10.1002/adma.201004200,80,1(a),124,Na0.0125Pb0.9875Se1,Na0.0125Pb0.9875Se1,530,0.0077322,0.000006401,0.0000699,2.2678,0.25365,156225.5897516013,0.0007633198,0.0003365904
6006,10.1002/adma.201004200,80,1(a),124,Na0.0125Pb0.9875Se1,Na0.0125Pb0.9875Se1,530.5,0.0077243,0.0000064112,0.000070044,2.2654,0.25476,155977.0401796855,0.0007652486,0.0003377985
6006,10.1002/adma.201004200,80,1(a),124,Na0.0125Pb0.9875Se1,Na0.0125Pb0.9875Se1,531,0.0077163,0.0000064214,0.000070188,2.263,0.25587,155729.2802192668,0.0007671778,0.0003390092
6006,10.1002/adma.201004200,80,1(a),124,Na0.0125Pb0.9875Se1,Na0.0125Pb0.9875Se1,531.5,0.0077084,0.0000064316,0.000070331,2.2606,0.25697,155482.3061135643,0.0007690854,0.0003402129
6006,10.1002/adma.201004200,80,1(a),124,Na0.0125Pb0.9875Se1,Na0.0125Pb0.9875Se1,532,0.0077005,0.0000064418,0.000070475,2.2582,0.25808,155236.1141295911,0.0007710152,0.0003414291
6006,10.1002/adma.201004200,80,1(a),124,Na0.0125Pb0.9875Se1,Na0.0125Pb0.9875Se1,532.5,0.0076926,0.0000064521,0.000070618,2.2558,0.25919,154988.2983834721,0.0007729114,0.000342633
6006,10.1002/adma.201004200,80,1(a),124,Na0.0125Pb0.9875Se1,Na0.0125Pb0.9875Se1,533,0.0076847,0.0000064624,0.000070761,2.2534,0.2603,154741.2725922258,0.000774808,0.0003438395
6006,10.1002/adma.201004200,80,1(a),124,Na0.0125Pb0.9875Se1,Na0.0125Pb0.9875Se1,533.5,0.0076768,0.0000064727,0.000070905,2.2511,0.26141,154495.0329846895,0.0007767267,0.0003450432
6006,10.1002/adma.201004200,80,1(a),124,Na0.0125Pb0.9875Se1,Na0.0125Pb0.9875Se1,534,0.0076689,0.000006483,0.000071048,2.2487,0.26251,154249.5758136665,0.0007786238,0.0003462551
6006,10.1002/adma.201004200,80,1(a),124,Na0.0125Pb0.9875Se1,Na0.0125Pb0.9875Se1,534.5,0.0076609,0.0000064933,0.000071191,2.2463,0.26362,154004.8973557359,0.0007805212,0.0003474697
6006,10.1002/adma.201004200,80,1(a),124,Na0.0125Pb0.9875Se1,Na0.0125Pb0.9875Se1,535,0.007653,0.0000065036,0.000071334,2.2439,0.26473,153760.9939110646,0.0007824189,0.0003486871