sid,DOI,figureid,fignum,sampleid,samplename,composition,Temperature,Carrier mobility,Electrical resistivity,Seebeck coefficient,Thermal conductivity,ZT,Electrical conductivity,Power factor,Figure of merit Z
6006,10.1002/adma.201004200,80,1(a),73,Na0.005Pb0.995Se1,Na0.005Pb0.995Se1,430.5,0.01802,0.0000060136,0.000072655,2.253,0.18871,166289.7432486364,0.0008778018,0.0003896147
6006,10.1002/adma.201004200,80,1(a),73,Na0.005Pb0.995Se1,Na0.005Pb0.995Se1,431,0.018001,0.0000060259,0.000072787,2.2499,0.18973,165950.3144758459,0.000879196,0.0003907712
6006,10.1002/adma.201004200,80,1(a),73,Na0.005Pb0.995Se1,Na0.005Pb0.995Se1,431.5,0.017982,0.0000060382,0.000072919,2.2468,0.19075,165612.2685568547,0.0008805903,0.0003919309
6006,10.1002/adma.201004200,80,1(a),73,Na0.005Pb0.995Se1,Na0.005Pb0.995Se1,432,0.017963,0.0000060506,0.000073051,2.2437,0.19177,165272.865500942,0.0008819702,0.0003930874
6006,10.1002/adma.201004200,80,1(a),73,Na0.005Pb0.995Se1,Na0.005Pb0.995Se1,432.5,0.017944,0.000006063,0.000073184,2.2406,0.19279,164934.8507339601,0.0008833742,0.0003942579
6006,10.1002/adma.201004200,80,1(a),73,Na0.005Pb0.995Se1,Na0.005Pb0.995Se1,433,0.017925,0.0000060754,0.000073316,2.2376,0.19381,164598.2157553412,0.0008847542,0.0003954032
6006,10.1002/adma.201004200,80,1(a),73,Na0.005Pb0.995Se1,Na0.005Pb0.995Se1,433.5,0.017906,0.0000060878,0.000073449,2.2345,0.19483,164262.9521337757,0.0008861585,0.0003965802
6006,10.1002/adma.201004200,80,1(a),73,Na0.005Pb0.995Se1,Na0.005Pb0.995Se1,434,0.017887,0.0000061003,0.000073581,2.2315,0.19585,163926.3642771667,0.0008875241,0.0003977254
6006,10.1002/adma.201004200,80,1(a),73,Na0.005Pb0.995Se1,Na0.005Pb0.995Se1,434.5,0.017868,0.0000061128,0.000073714,2.2285,0.19687,163591.1529904463,0.000888914,0.0003988845
6006,10.1002/adma.201004200,80,1(a),73,Na0.005Pb0.995Se1,Na0.005Pb0.995Se1,435,0.017849,0.0000061253,0.000073847,2.2255,0.19789,163257.3098460484,0.0008903041,0.0004000468
6006,10.1002/adma.201004200,80,1(a),73,Na0.005Pb0.995Se1,Na0.005Pb0.995Se1,435.5,0.017831,0.0000061379,0.000073979,2.2224,0.19891,162922.1720783981,0.0008916555,0.0004012129
6006,10.1002/adma.201004200,80,1(a),73,Na0.005Pb0.995Se1,Na0.005Pb0.995Se1,436,0.017812,0.0000061504,0.000074112,2.2194,0.19993,162591.0509885536,0.0008930457,0.0004023816
6006,10.1002/adma.201004200,80,1(a),73,Na0.005Pb0.995Se1,Na0.005Pb0.995Se1,436.5,0.017793,0.000006163,0.000074245,2.2165,0.20095,162258.6402725945,0.0008944216,0.0004035288
6006,10.1002/adma.201004200,80,1(a),73,Na0.005Pb0.995Se1,Na0.005Pb0.995Se1,437,0.017774,0.0000061756,0.000074378,2.2135,0.20196,161927.5859835482,0.0008957975,0.0004046973
6006,10.1002/adma.201004200,80,1(a),73,Na0.005Pb0.995Se1,Na0.005Pb0.995Se1,437.5,0.017755,0.0000061883,0.000074511,2.2105,0.20298,161595.2684905386,0.000897159,0.0004058625
6006,10.1002/adma.201004200,80,1(a),73,Na0.005Pb0.995Se1,Na0.005Pb0.995Se1,438,0.017736,0.000006201,0.000074644,2.2075,0.204,161264.3122077085,0.0008985207,0.0004070309
6006,10.1002/adma.201004200,80,1(a),73,Na0.005Pb0.995Se1,Na0.005Pb0.995Se1,438.5,0.017717,0.0000062137,0.000074777,2.2046,0.20502,160934.7087886444,0.0008998825,0.000408184
6006,10.1002/adma.201004200,80,1(a),73,Na0.005Pb0.995Se1,Na0.005Pb0.995Se1,439,0.017698,0.0000062264,0.00007491,2.2016,0.20604,160606.4499550302,0.0009012444,0.0004093588
6006,10.1002/adma.201004200,80,1(a),73,Na0.005Pb0.995Se1,Na0.005Pb0.995Se1,439.5,0.017679,0.0000062391,0.000075043,2.1987,0.20706,160279.5274959529,0.0009026064,0.0004105182
6006,10.1002/adma.201004200,80,1(a),73,Na0.005Pb0.995Se1,Na0.005Pb0.995Se1,440,0.01766,0.0000062519,0.000075177,2.1958,0.20808,159951.3747820662,0.0009039782,0.0004116851
6006,10.1002/adma.201004200,80,1(a),73,Na0.005Pb0.995Se1,Na0.005Pb0.995Se1,440.5,0.017641,0.0000062647,0.00007531,2.1928,0.2091,159624.5630277587,0.000905326,0.000412863
6006,10.1002/adma.201004200,80,1(a),73,Na0.005Pb0.995Se1,Na0.005Pb0.995Se1,441,0.017622,0.0000062775,0.000075443,2.1899,0.21012,159299.0840302668,0.000906674,0.0004140253
6006,10.1002/adma.201004200,80,1(a),73,Na0.005Pb0.995Se1,Na0.005Pb0.995Se1,441.5,0.017603,0.0000062903,0.000075577,2.187,0.21114,158974.9296535936,0.0009080462,0.0004152017
6006,10.1002/adma.201004200,80,1(a),73,Na0.005Pb0.995Se1,Na0.005Pb0.995Se1,442,0.017584,0.0000063032,0.00007571,2.1841,0.21216,158649.5748191395,0.00090938,0.0004163637
6006,10.1002/adma.201004200,80,1(a),73,Na0.005Pb0.995Se1,Na0.005Pb0.995Se1,442.5,0.017565,0.0000063161,0.000075844,2.1812,0.21318,158325.5489938411,0.000910738,0.0004175399
6006,10.1002/adma.201004200,80,1(a),73,Na0.005Pb0.995Se1,Na0.005Pb0.995Se1,443,0.017546,0.000006329,0.000075977,2.1784,0.2142,158002.8440511929,0.0009120721,0.000418689
6006,10.1002/adma.201004200,80,1(a),73,Na0.005Pb0.995Se1,Na0.005Pb0.995Se1,443.5,0.017527,0.000006342,0.000076111,2.1755,0.21521,157678.9656259855,0.000913416,0.0004198649
6006,10.1002/adma.201004200,80,1(a),73,Na0.005Pb0.995Se1,Na0.005Pb0.995Se1,444,0.017508,0.0000063549,0.000076245,2.1726,0.21623,157358.8884168122,0.0009147744,0.0004210506
6006,10.1002/adma.201004200,80,1(a),73,Na0.005Pb0.995Se1,Na0.005Pb0.995Se1,444.5,0.017489,0.0000063679,0.000076379,2.1698,0.21725,157037.6419227689,0.0009161186,0.0004222134
6006,10.1002/adma.201004200,80,1(a),73,Na0.005Pb0.995Se1,Na0.005Pb0.995Se1,445,0.017471,0.000006381,0.000076513,2.1669,0.21827,156715.2483936687,0.0009174485,0.0004233922
6006,10.1002/adma.201004200,80,1(a),73,Na0.005Pb0.995Se1,Na0.005Pb0.995Se1,445.5,0.017452,0.000006394,0.000076647,2.1641,0.21929,156396.6218329684,0.000918793,0.0004245613
6006,10.1002/adma.201004200,80,1(a),73,Na0.005Pb0.995Se1,Na0.005Pb0.995Se1,446,0.017433,0.0000064071,0.000076781,2.1613,0.22031,156076.852242044,0.0009201233,0.0004257268
6006,10.1002/adma.201004200,80,1(a),73,Na0.005Pb0.995Se1,Na0.005Pb0.995Se1,446.5,0.017414,0.0000064202,0.000076915,2.1585,0.22133,155758.3875891717,0.0009214537,0.0004268954
6006,10.1002/adma.201004200,80,1(a),73,Na0.005Pb0.995Se1,Na0.005Pb0.995Se1,447,0.017395,0.0000064333,0.000077049,2.1556,0.22235,155441.2199026938,0.0009227843,0.000428087
6006,10.1002/adma.201004200,80,1(a),73,Na0.005Pb0.995Se1,Na0.005Pb0.995Se1,447.5,0.017376,0.0000064464,0.000077183,2.1528,0.22337,155125.3412757508,0.0009241151,0.0004292619
6006,10.1002/adma.201004200,80,1(a),73,Na0.005Pb0.995Se1,Na0.005Pb0.995Se1,448,0.017357,0.0000064596,0.000077317,2.15,0.22439,154808.3472660846,0.0009254317,0.0004304333
6006,10.1002/adma.201004200,80,1(a),73,Na0.005Pb0.995Se1,Na0.005Pb0.995Se1,448.5,0.017338,0.0000064728,0.000077451,2.1473,0.22541,154492.6461500433,0.0009267485,0.0004315878
6006,10.1002/adma.201004200,80,1(a),73,Na0.005Pb0.995Se1,Na0.005Pb0.995Se1,449,0.017319,0.000006486,0.000077586,2.1445,0.22643,154178.2300339192,0.0009280893,0.0004327766
6006,10.1002/adma.201004200,80,1(a),73,Na0.005Pb0.995Se1,Na0.005Pb0.995Se1,449.5,0.0173,0.0000064992,0.00007772,2.1417,0.22745,153865.0910881339,0.0009294065,0.0004339573
6006,10.1002/adma.201004200,80,1(a),73,Na0.005Pb0.995Se1,Na0.005Pb0.995Se1,450,0.017281,0.0000065125,0.000077855,2.1389,0.22846,153550.8637236085,0.0009307334,0.0004351458
6006,10.1002/adma.201004200,80,1(a),73,Na0.005Pb0.995Se1,Na0.005Pb0.995Se1,450.5,0.017262,0.0000065258,0.000077989,2.1362,0.22948,153237.9171902295,0.0009320366,0.0004363058
6006,10.1002/adma.201004200,80,1(a),73,Na0.005Pb0.995Se1,Na0.005Pb0.995Se1,451,0.017243,0.0000065391,0.000078124,2.1334,0.2305,152926.2436726767,0.0009333638,0.0004375006
6006,10.1002/adma.201004200,80,1(a),73,Na0.005Pb0.995Se1,Na0.005Pb0.995Se1,451.5,0.017224,0.0000065524,0.000078259,2.1307,0.23152,152615.8354190831,0.0009346913,0.000438678
6006,10.1002/adma.201004200,80,1(a),73,Na0.005Pb0.995Se1,Na0.005Pb0.995Se1,452,0.017205,0.0000065658,0.000078394,2.128,0.23254,152304.3650431022,0.0009360046,0.0004398518
6006,10.1002/adma.201004200,80,1(a),73,Na0.005Pb0.995Se1,Na0.005Pb0.995Se1,452.5,0.017186,0.0000065792,0.000078528,2.1252,0.23356,151994.1634241245,0.0009372943,0.0004410382
6006,10.1002/adma.201004200,80,1(a),73,Na0.005Pb0.995Se1,Na0.005Pb0.995Se1,453,0.017167,0.0000065926,0.000078663,2.1225,0.23458,151685.2228255923,0.0009386081,0.0004422182
6006,10.1002/adma.201004200,80,1(a),73,Na0.005Pb0.995Se1,Na0.005Pb0.995Se1,453.5,0.017148,0.000006606,0.000078798,2.1198,0.2356,151377.5355737209,0.000939922,0.0004434013
6006,10.1002/adma.201004200,80,1(a),73,Na0.005Pb0.995Se1,Na0.005Pb0.995Se1,454,0.01713,0.0000066195,0.000078933,2.1171,0.23662,151068.8118437949,0.0009412219,0.0004445808
6006,10.1002/adma.201004200,80,1(a),73,Na0.005Pb0.995Se1,Na0.005Pb0.995Se1,454.5,0.017111,0.000006633,0.000079069,2.1144,0.23764,150761.3447911955,0.0009425459,0.0004457746
6006,10.1002/adma.201004200,80,1(a),73,Na0.005Pb0.995Se1,Na0.005Pb0.995Se1,455,0.017092,0.0000066465,0.000079204,2.1117,0.23866,150455.1267584443,0.0009438462,0.0004469604
6006,10.1002/adma.201004200,80,1(a),73,Na0.005Pb0.995Se1,Na0.005Pb0.995Se1,455.5,0.017073,0.00000666,0.000079339,2.109,0.23968,150150.1501501501,0.0009451467,0.0004481492
6006,10.1002/adma.201004200,80,1(a),73,Na0.005Pb0.995Se1,Na0.005Pb0.995Se1,456,0.017054,0.0000066736,0.000079474,2.1063,0.2407,149844.1620714457,0.0009464332,0.0004493345
6006,10.1002/adma.201004200,80,1(a),73,Na0.005Pb0.995Se1,Na0.005Pb0.995Se1,456.5,0.017035,0.0000066872,0.00007961,2.1037,0.24171,149539.4185907405,0.0009477438,0.0004505128
6006,10.1002/adma.201004200,80,1(a),73,Na0.005Pb0.995Se1,Na0.005Pb0.995Se1,457,0.017016,0.0000067008,0.000079745,2.101,0.24273,149235.9121298949,0.0009490307,0.0004517043
6006,10.1002/adma.201004200,80,1(a),73,Na0.005Pb0.995Se1,Na0.005Pb0.995Se1,457.5,0.016997,0.0000067144,0.000079881,2.0984,0.24375,148933.6351721673,0.0009503417,0.0004528887
6006,10.1002/adma.201004200,80,1(a),73,Na0.005Pb0.995Se1,Na0.005Pb0.995Se1,458,0.016978,0.0000067281,0.000080016,2.0957,0.24477,148630.3711300367,0.0009516149,0.0004540797
6006,10.1002/adma.201004200,80,1(a),73,Na0.005Pb0.995Se1,Na0.005Pb0.995Se1,458.5,0.016959,0.0000067418,0.000080152,2.0931,0.24579,148328.3396125664,0.0009529121,0.0004552636
6006,10.1002/adma.201004200,80,1(a),73,Na0.005Pb0.995Se1,Na0.005Pb0.995Se1,459,0.01694,0.0000067555,0.000080288,2.0904,0.24681,148027.5331211605,0.0009542096,0.0004564723
6006,10.1002/adma.201004200,80,1(a),73,Na0.005Pb0.995Se1,Na0.005Pb0.995Se1,459.5,0.016921,0.0000067692,0.000080424,2.0878,0.24783,147727.9442179282,0.0009555073,0.0004576623
6006,10.1002/adma.201004200,80,1(a),73,Na0.005Pb0.995Se1,Na0.005Pb0.995Se1,460,0.016902,0.000006783,0.00008056,2.0852,0.24885,147427.3920094353,0.000956791,0.0004588486
6006,10.1002/adma.201004200,80,1(a),73,Na0.005Pb0.995Se1,Na0.005Pb0.995Se1,460.5,0.016883,0.0000067968,0.000080696,2.0826,0.24987,147128.0602636535,0.000958075,0.000460038
6006,10.1002/adma.201004200,80,1(a),73,Na0.005Pb0.995Se1,Na0.005Pb0.995Se1,461,0.016864,0.0000068106,0.000080832,2.08,0.25089,146829.9415616833,0.0009593593,0.0004612304
6006,10.1002/adma.201004200,80,1(a),73,Na0.005Pb0.995Se1,Na0.005Pb0.995Se1,461.5,0.016845,0.0000068244,0.000080968,2.0774,0.25191,146533.028544634,0.0009606437,0.000462426
6006,10.1002/adma.201004200,80,1(a),73,Na0.005Pb0.995Se1,Na0.005Pb0.995Se1,462,0.016826,0.0000068383,0.000081104,2.0748,0.25293,146235.1754090929,0.0009619143,0.0004636179
6006,10.1002/adma.201004200,80,1(a),73,Na0.005Pb0.995Se1,Na0.005Pb0.995Se1,462.5,0.016807,0.0000068522,0.000081241,2.0722,0.25395,145938.530690873,0.0009632089,0.0004648243
6006,10.1002/adma.201004200,80,1(a),73,Na0.005Pb0.995Se1,Na0.005Pb0.995Se1,463,0.016788,0.0000068661,0.000081377,2.0696,0.25496,145643.0870508731,0.00096448,0.0004660224
6006,10.1002/adma.201004200,80,1(a),73,Na0.005Pb0.995Se1,Na0.005Pb0.995Se1,463.5,0.01677,0.00000688,0.000081513,2.0671,0.25598,145348.8372093023,0.0009657513,0.0004672011
6006,10.1002/adma.201004200,80,1(a),73,Na0.005Pb0.995Se1,Na0.005Pb0.995Se1,464,0.016751,0.000006894,0.00008165,2.0645,0.257,145053.6698578474,0.0009670326,0.0004684101
6006,10.1002/adma.201004200,80,1(a),73,Na0.005Pb0.995Se1,Na0.005Pb0.995Se1,464.5,0.016732,0.000006908,0.000081787,2.0619,0.25802,144759.6988998263,0.000968314,0.0004696222
6006,10.1002/adma.201004200,80,1(a),73,Na0.005Pb0.995Se1,Na0.005Pb0.995Se1,465,0.016713,0.000006922,0.000081923,2.0594,0.25904,144466.9170759896,0.0009695721,0.0004708032
6006,10.1002/adma.201004200,80,1(a),73,Na0.005Pb0.995Se1,Na0.005Pb0.995Se1,465.5,0.016694,0.000006936,0.00008206,2.0568,0.26006,144175.3171856978,0.000970854,0.0004720216
6006,10.1002/adma.201004200,80,1(a),73,Na0.005Pb0.995Se1,Na0.005Pb0.995Se1,466,0.016675,0.0000069501,0.000082197,2.0543,0.26108,143882.8218299017,0.0009721222,0.0004732134
6006,10.1002/adma.201004200,80,1(a),73,Na0.005Pb0.995Se1,Na0.005Pb0.995Se1,466.5,0.016656,0.0000069642,0.000082334,2.0518,0.2621,143591.5108698774,0.0009733907,0.0004744082
6006,10.1002/adma.201004200,80,1(a),73,Na0.005Pb0.995Se1,Na0.005Pb0.995Se1,467,0.016637,0.0000069783,0.000082471,2.0492,0.26312,143301.3771262342,0.0009746594,0.0004756292
6006,10.1002/adma.201004200,80,1(a),73,Na0.005Pb0.995Se1,Na0.005Pb0.995Se1,467.5,0.016618,0.0000069924,0.000082608,2.0467,0.26414,143012.4134774898,0.0009759284,0.0004768302
6006,10.1002/adma.201004200,80,1(a),73,Na0.005Pb0.995Se1,Na0.005Pb0.995Se1,468,0.016599,0.0000070066,0.000082745,2.0442,0.26516,142722.5758570491,0.0009771837,0.0004780274
6006,10.1002/adma.201004200,80,1(a),73,Na0.005Pb0.995Se1,Na0.005Pb0.995Se1,468.5,0.01658,0.0000070208,0.000082883,2.0417,0.26618,142433.9106654512,0.0009784628,0.0004792393
6006,10.1002/adma.201004200,80,1(a),73,Na0.005Pb0.995Se1,Na0.005Pb0.995Se1,469,0.016561,0.000007035,0.00008302,2.0392,0.26719,142146.4108031272,0.0009797186,0.0004804426
6006,10.1002/adma.201004200,80,1(a),73,Na0.005Pb0.995Se1,Na0.005Pb0.995Se1,469.5,0.016542,0.0000070492,0.000083157,2.0367,0.26821,141860.0692277138,0.0009809747,0.0004816491
6006,10.1002/adma.201004200,80,1(a),73,Na0.005Pb0.995Se1,Na0.005Pb0.995Se1,470,0.016523,0.0000070635,0.000083295,2.0342,0.26923,141572.8746372195,0.0009822407,0.0004828634
6006,10.1002/adma.201004200,80,1(a),73,Na0.005Pb0.995Se1,Na0.005Pb0.995Se1,470.5,0.016504,0.0000070778,0.000083433,2.0317,0.27025,141286.8405436717,0.0009835069,0.0004840808
6006,10.1002/adma.201004200,80,1(a),73,Na0.005Pb0.995Se1,Na0.005Pb0.995Se1,471,0.016485,0.0000070921,0.00008357,2.0292,0.27127,141001.959927243,0.0009847499,0.0004852897
6006,10.1002/adma.201004200,80,1(a),73,Na0.005Pb0.995Se1,Na0.005Pb0.995Se1,471.5,0.016466,0.0000071064,0.000083708,2.0268,0.27229,140718.2258246088,0.0009860167,0.0004864894
6006,10.1002/adma.201004200,80,1(a),73,Na0.005Pb0.995Se1,Na0.005Pb0.995Se1,472,0.016447,0.0000071208,0.000083846,2.0243,0.27331,140433.6591394226,0.0009872699,0.0004877093
6006,10.1002/adma.201004200,80,1(a),73,Na0.005Pb0.995Se1,Na0.005Pb0.995Se1,472.5,0.016429,0.0000071352,0.000083984,2.0218,0.27433,140150.2410584146,0.0009885234,0.0004889323
6006,10.1002/adma.201004200,80,1(a),73,Na0.005Pb0.995Se1,Na0.005Pb0.995Se1,473,0.01641,0.0000071496,0.000084122,2.0194,0.27535,139867.9646413785,0.0009897772,0.0004901343
6006,10.1002/adma.201004200,80,1(a),73,Na0.005Pb0.995Se1,Na0.005Pb0.995Se1,473.5,0.016391,0.000007164,0.00008426,2.0169,0.27637,139586.8230039084,0.0009910312,0.0004913636
6006,10.1002/adma.201004200,80,1(a),73,Na0.005Pb0.995Se1,Na0.005Pb0.995Se1,474,0.016372,0.0000071785,0.000084399,2.0145,0.27739,139304.8687051612,0.0009922952,0.0004925764
6006,10.1002/adma.201004200,80,1(a),73,Na0.005Pb0.995Se1,Na0.005Pb0.995Se1,474.5,0.016353,0.000007193,0.000084537,2.012,0.27841,139024.0511608508,0.000993536,0.0004938052
6006,10.1002/adma.201004200,80,1(a),73,Na0.005Pb0.995Se1,Na0.005Pb0.995Se1,475,0.016334,0.0000072075,0.000084675,2.0096,0.27943,138744.3635102324,0.0009947771,0.0004950125
6006,10.1002/adma.201004200,80,1(a),73,Na0.005Pb0.995Se1,Na0.005Pb0.995Se1,475.5,0.016315,0.0000072221,0.000084814,2.0072,0.28044,138463.8816964595,0.0009960281,0.0004962276
6006,10.1002/adma.201004200,80,1(a),73,Na0.005Pb0.995Se1,Na0.005Pb0.995Se1,476,0.016296,0.0000072367,0.000084953,2.0048,0.28146,138184.5316235301,0.0009972795,0.0004974459
6006,10.1002/adma.201004200,80,1(a),73,Na0.005Pb0.995Se1,Na0.005Pb0.995Se1,476.5,0.016277,0.0000072513,0.000085091,2.0023,0.28248,137906.3064553942,0.0009985076,0.0004986803
6006,10.1002/adma.201004200,80,1(a),73,Na0.005Pb0.995Se1,Na0.005Pb0.995Se1,477,0.016258,0.0000072659,0.00008523,1.9999,0.2835,137629.199410947,0.0009997595,0.0004999048
6006,10.1002/adma.201004200,80,1(a),73,Na0.005Pb0.995Se1,Na0.005Pb0.995Se1,477.5,0.016239,0.0000072805,0.000085369,1.9975,0.28452,137353.2037634778,0.0010010118,0.0005011323
6006,10.1002/adma.201004200,80,1(a),73,Na0.005Pb0.995Se1,Na0.005Pb0.995Se1,478,0.01622,0.0000072952,0.000085508,1.9951,0.28554,137076.4338194978,0.0010022505,0.000502356
6006,10.1002/adma.201004200,80,1(a),73,Na0.005Pb0.995Se1,Na0.005Pb0.995Se1,478.5,0.016201,0.0000073099,0.000085647,1.9927,0.28656,136800.7770284135,0.0010034896,0.0005035829
6006,10.1002/adma.201004200,80,1(a),73,Na0.005Pb0.995Se1,Na0.005Pb0.995Se1,479,0.016182,0.0000073247,0.000085786,1.9903,0.28758,136524.3627725368,0.0010047153,0.0005048059
6006,10.1002/adma.201004200,80,1(a),73,Na0.005Pb0.995Se1,Na0.005Pb0.995Se1,479.5,0.016163,0.0000073394,0.000085926,1.988,0.2886,136250.9196937079,0.0010059783,0.0005060253
6006,10.1002/adma.201004200,80,1(a),73,Na0.005Pb0.995Se1,Na0.005Pb0.995Se1,480,0.016144,0.0000073542,0.000086065,1.9856,0.28962,135976.7207854015,0.0010072046,0.0005072545
6006,10.1002/adma.201004200,80,1(a),73,Na0.005Pb0.995Se1,Na0.005Pb0.995Se1,480.5,0.016125,0.000007369,0.000086204,1.9832,0.29064,135703.6232867418,0.0010084312,0.0005084869
6006,10.1002/adma.201004200,80,1(a),73,Na0.005Pb0.995Se1,Na0.005Pb0.995Se1,481,0.016106,0.0000073839,0.000086344,1.9809,0.29166,135429.7864272268,0.0010096678,0.0005097016
6006,10.1002/adma.201004200,80,1(a),73,Na0.005Pb0.995Se1,Na0.005Pb0.995Se1,481.5,0.016087,0.0000073987,0.000086484,1.9785,0.29268,135158.8792625731,0.0010109184,0.000510952
6006,10.1002/adma.201004200,80,1(a),73,Na0.005Pb0.995Se1,Na0.005Pb0.995Se1,482,0.016069,0.0000074136,0.000086624,1.9761,0.29369,134887.2342721485,0.0010121557,0.0005121986
6006,10.1002/adma.201004200,80,1(a),73,Na0.005Pb0.995Se1,Na0.005Pb0.995Se1,482.5,0.01605,0.0000074285,0.000086763,1.9738,0.29471,134616.6790065289,0.0010133699,0.0005134106
6006,10.1002/adma.201004200,80,1(a),73,Na0.005Pb0.995Se1,Na0.005Pb0.995Se1,483,0.016031,0.0000074435,0.000086903,1.9714,0.29573,134345.4020286156,0.0010145941,0.0005146567
6006,10.1002/adma.201004200,80,1(a),73,Na0.005Pb0.995Se1,Na0.005Pb0.995Se1,483.5,0.016012,0.0000074585,0.000087043,1.9691,0.29675,134075.2161962861,0.0010158187,0.0005158797
6006,10.1002/adma.201004200,80,1(a),73,Na0.005Pb0.995Se1,Na0.005Pb0.995Se1,484,0.015993,0.0000074735,0.000087184,1.9668,0.29777,133806.1149394527,0.001017067,0.0005171176
6006,10.1002/adma.201004200,80,1(a),73,Na0.005Pb0.995Se1,Na0.005Pb0.995Se1,484.5,0.015974,0.0000074885,0.000087324,1.9644,0.29879,133538.091740669,0.0010182922,0.0005183731
6006,10.1002/adma.201004200,80,1(a),73,Na0.005Pb0.995Se1,Na0.005Pb0.995Se1,485,0.015955,0.0000075036,0.000087464,1.9621,0.29981,133269.3640385948,0.0010195041,0.0005195985
6006,10.1002/adma.201004200,80,1(a),73,Na0.005Pb0.995Se1,Na0.005Pb0.995Se1,485.5,0.015936,0.0000075186,0.000087605,1.9598,0.30083,133003.4846912989,0.0010207533,0.0005208457
6006,10.1002/adma.201004200,80,1(a),73,Na0.005Pb0.995Se1,Na0.005Pb0.995Se1,486,0.015917,0.0000075337,0.000087745,1.9575,0.30185,132736.9021861768,0.001021966,0.0005220771
6006,10.1002/adma.201004200,80,1(a),73,Na0.005Pb0.995Se1,Na0.005Pb0.995Se1,486.5,0.015898,0.0000075489,0.000087886,1.9552,0.30287,132469.631337016,0.0010231887,0.0005233166
6006,10.1002/adma.201004200,80,1(a),73,Na0.005Pb0.995Se1,Na0.005Pb0.995Se1,487,0.015879,0.0000075641,0.000088027,1.9529,0.30389,132203.4346452321,0.0010244117,0.0005245592
6006,10.1002/adma.201004200,80,1(a),73,Na0.005Pb0.995Se1,Na0.005Pb0.995Se1,487.5,0.01586,0.0000075793,0.000088168,1.9506,0.30491,131938.3056482789,0.0010256351,0.0005258049