sid,DOI,figureid,fignum,sampleid,samplename,composition,Temperature,Carrier mobility,Electrical resistivity,Seebeck coefficient,Thermal conductivity,ZT,Electrical conductivity,Power factor,Figure of merit Z
6006,10.1002/adma.201004200,80,1(a),73,Na0.005Pb0.995Se1,Na0.005Pb0.995Se1,835.5,0.0026739,0.000035057,0.00020751,1.067,1.0143,28524.9736143994,0.0012282968,0.0011511685
6006,10.1002/adma.201004200,80,1(a),73,Na0.005Pb0.995Se1,Na0.005Pb0.995Se1,836,0.0026549,0.000035137,0.00020757,1.0667,1.0153,28460.0278908273,0.001226209,0.001149535
6006,10.1002/adma.201004200,80,1(a),73,Na0.005Pb0.995Se1,Na0.005Pb0.995Se1,836.5,0.002636,,0.00020762,1.0665,1.0163,,,
6006,10.1002/adma.201004200,80,1(a),73,Na0.005Pb0.995Se1,Na0.005Pb0.995Se1,837,0.002617,,0.00020768,1.0663,1.0173,,,
6006,10.1002/adma.201004200,80,1(a),73,Na0.005Pb0.995Se1,Na0.005Pb0.995Se1,837.5,0.0025981,,0.00020773,1.0661,1.0184,,,
6006,10.1002/adma.201004200,80,1(a),73,Na0.005Pb0.995Se1,Na0.005Pb0.995Se1,838,0.0025791,,0.00020778,1.0659,1.0194,,,
6006,10.1002/adma.201004200,80,1(a),73,Na0.005Pb0.995Se1,Na0.005Pb0.995Se1,838.5,0.0025602,,0.00020783,1.0657,1.0204,,,
6006,10.1002/adma.201004200,80,1(a),73,Na0.005Pb0.995Se1,Na0.005Pb0.995Se1,839,0.0025412,,0.00020788,1.0655,1.0214,,,
6006,10.1002/adma.201004200,80,1(a),73,Na0.005Pb0.995Se1,Na0.005Pb0.995Se1,839.5,0.0025223,,0.00020792,1.0653,1.0224,,,
6006,10.1002/adma.201004200,80,1(a),73,Na0.005Pb0.995Se1,Na0.005Pb0.995Se1,840,0.0025033,,0.00020797,1.0652,1.0235,,,
6006,10.1002/adma.201004200,80,1(a),73,Na0.005Pb0.995Se1,Na0.005Pb0.995Se1,840.5,0.0024844,,0.00020801,1.065,1.0245,,,
6006,10.1002/adma.201004200,80,1(a),73,Na0.005Pb0.995Se1,Na0.005Pb0.995Se1,841,0.0024655,,0.00020805,1.0648,1.0255,,,
6006,10.1002/adma.201004200,80,1(a),73,Na0.005Pb0.995Se1,Na0.005Pb0.995Se1,841.5,0.0024465,,0.00020809,1.0646,1.0265,,,
6006,10.1002/adma.201004200,19,3(a),73,Na0.005Pb0.995Se1,Na0.005Pb0.995Se1,299.5,,0.0000041313,,3.6228,,242054.5590976206,,
6006,10.1002/adma.201004200,19,3(a),73,Na0.005Pb0.995Se1,Na0.005Pb0.995Se1,300,,0.0000041304,,3.6144,,242107.301956227,,
6006,10.1002/adma.201004200,19,3(a),73,Na0.005Pb0.995Se1,Na0.005Pb0.995Se1,300.5,0.022946,0.0000041296,,3.6059,,242154.2037969779,,
6006,10.1002/adma.201004200,19,3(a),73,Na0.005Pb0.995Se1,Na0.005Pb0.995Se1,301,0.022927,0.0000041288,,3.5976,,242201.1238132145,,
6006,10.1002/adma.201004200,19,3(a),73,Na0.005Pb0.995Se1,Na0.005Pb0.995Se1,301.5,0.022908,0.0000041282,,3.5892,,242236.3257594109,,
6006,10.1002/adma.201004200,19,3(a),73,Na0.005Pb0.995Se1,Na0.005Pb0.995Se1,302,0.022889,0.0000041277,,3.5809,,242265.6685321123,,
6006,10.1002/adma.201004200,19,3(a),73,Na0.005Pb0.995Se1,Na0.005Pb0.995Se1,302.5,0.02287,0.0000041272,,3.5727,,242295.0184144214,,
6006,10.1002/adma.201004200,19,3(a),73,Na0.005Pb0.995Se1,Na0.005Pb0.995Se1,303,0.022851,0.0000041269,,3.5645,,242312.6317574935,,
6006,10.1002/adma.201004200,19,3(a),73,Na0.005Pb0.995Se1,Na0.005Pb0.995Se1,303.5,0.022832,0.0000041266,,3.5563,,242330.2476615131,,
6006,10.1002/adma.201004200,19,3(a),73,Na0.005Pb0.995Se1,Na0.005Pb0.995Se1,304,0.022813,0.0000041264,,3.5481,,242341.9930205506,,
6006,10.1002/adma.201004200,19,3(a),73,Na0.005Pb0.995Se1,Na0.005Pb0.995Se1,304.5,0.022794,0.0000041263,,3.54,,242347.8661270388,,
6006,10.1002/adma.201004200,19,3(a),73,Na0.005Pb0.995Se1,Na0.005Pb0.995Se1,842,0.0024276,,,1.0644,1.0275,,,
6006,10.1002/adma.201004200,19,3(a),73,Na0.005Pb0.995Se1,Na0.005Pb0.995Se1,842.5,0.0024086,,,1.0642,1.0286,,,
6006,10.1002/adma.201004200,19,3(a),73,Na0.005Pb0.995Se1,Na0.005Pb0.995Se1,843,0.0023897,,,1.064,1.0296,,,
6006,10.1002/adma.201004200,19,3(a),73,Na0.005Pb0.995Se1,Na0.005Pb0.995Se1,843.5,0.0023707,,,1.0639,1.0306,,,
6006,10.1002/adma.201004200,19,3(a),73,Na0.005Pb0.995Se1,Na0.005Pb0.995Se1,844,0.0023518,,,1.0637,1.0316,,,
6006,10.1002/adma.201004200,19,3(a),73,Na0.005Pb0.995Se1,Na0.005Pb0.995Se1,844.5,0.0023328,,,1.0635,1.0326,,,
6006,10.1002/adma.201004200,19,3(a),73,Na0.005Pb0.995Se1,Na0.005Pb0.995Se1,845,0.0023139,,,1.0633,1.0336,,,
6006,10.1002/adma.201004200,19,3(a),73,Na0.005Pb0.995Se1,Na0.005Pb0.995Se1,845.5,0.0022949,,,1.0632,1.0347,,,
6006,10.1002/adma.201004200,19,3(a),73,Na0.005Pb0.995Se1,Na0.005Pb0.995Se1,846,0.002276,,,1.063,1.0357,,,
6006,10.1002/adma.201004200,19,3(a),73,Na0.005Pb0.995Se1,Na0.005Pb0.995Se1,846.5,0.002257,,,1.0628,1.0367,,,
6006,10.1002/adma.201004200,19,3(a),73,Na0.005Pb0.995Se1,Na0.005Pb0.995Se1,847,0.0022381,,,1.0627,1.0377,,,
6006,10.1002/adma.201004200,19,3(a),73,Na0.005Pb0.995Se1,Na0.005Pb0.995Se1,847.5,0.0022192,,,1.0625,,,,
6006,10.1002/adma.201004200,19,3(a),73,Na0.005Pb0.995Se1,Na0.005Pb0.995Se1,848,0.0022002,,,1.0623,,,,
6006,10.1002/adma.201004200,19,3(a),73,Na0.005Pb0.995Se1,Na0.005Pb0.995Se1,848.5,0.0021813,,,1.0622,,,,
6006,10.1002/adma.201004200,19,3(a),73,Na0.005Pb0.995Se1,Na0.005Pb0.995Se1,849,0.0021623,,,1.062,,,,
6006,10.1002/adma.201004200,19,3(a),73,Na0.005Pb0.995Se1,Na0.005Pb0.995Se1,849.5,0.0021434,,,1.0618,,,,
6006,10.1002/adma.201004200,7,2(a),73,Na0.005Pb0.995Se1,Na0.005Pb0.995Se1,296,,0.0000041405,,,,241516.7250332085,,
6006,10.1002/adma.201004200,7,2(a),73,Na0.005Pb0.995Se1,Na0.005Pb0.995Se1,296.5,,0.0000041389,,,,241610.0896373432,,
6006,10.1002/adma.201004200,7,2(a),73,Na0.005Pb0.995Se1,Na0.005Pb0.995Se1,297,,0.0000041374,,,,241697.6845361821,,
6006,10.1002/adma.201004200,7,2(a),73,Na0.005Pb0.995Se1,Na0.005Pb0.995Se1,297.5,,0.000004136,,,,241779.497098646,,
6006,10.1002/adma.201004200,7,2(a),73,Na0.005Pb0.995Se1,Na0.005Pb0.995Se1,298,,0.0000041347,,,,241855.5155150313,,
6006,10.1002/adma.201004200,7,2(a),73,Na0.005Pb0.995Se1,Na0.005Pb0.995Se1,298.5,,0.0000041334,,,,241931.5817486815,,
6006,10.1002/adma.201004200,7,2(a),73,Na0.005Pb0.995Se1,Na0.005Pb0.995Se1,299,,0.0000041323,,,,241995.9828666844,,
6006,10.1002/adma.201004200,25442,2b,73,Na0.005Pb0.995Se1,Na0.005Pb0.995Se1,850,0.0021244,,,,,,,
6006,10.1002/adma.201004200,25442,2b,73,Na0.005Pb0.995Se1,Na0.005Pb0.995Se1,850.5,0.0021055,,,,,,,
6006,10.1002/adma.201004200,25442,2b,73,Na0.005Pb0.995Se1,Na0.005Pb0.995Se1,851,0.0020865,,,,,,,
6006,10.1002/adma.201004200,25442,2b,73,Na0.005Pb0.995Se1,Na0.005Pb0.995Se1,851.5,0.0020676,,,,,,,
6006,10.1002/adma.201004200,25442,2b,73,Na0.005Pb0.995Se1,Na0.005Pb0.995Se1,852,0.0020486,,,,,,,
6006,10.1002/adma.201004200,25442,2b,73,Na0.005Pb0.995Se1,Na0.005Pb0.995Se1,852.5,0.0020297,,,,,,,
6006,10.1002/adma.201004200,25442,2b,73,Na0.005Pb0.995Se1,Na0.005Pb0.995Se1,853,0.0020108,,,,,,,
6006,10.1002/adma.201004200,25442,2b,73,Na0.005Pb0.995Se1,Na0.005Pb0.995Se1,853.5,0.0019918,,,,,,,
6006,10.1002/adma.201004200,25442,2b,73,Na0.005Pb0.995Se1,Na0.005Pb0.995Se1,854,0.0019729,,,,,,,
6006,10.1002/adma.201004200,25442,2b,73,Na0.005Pb0.995Se1,Na0.005Pb0.995Se1,854.5,0.0019539,,,,,,,
6006,10.1002/adma.201004200,25442,2b,73,Na0.005Pb0.995Se1,Na0.005Pb0.995Se1,855,0.001935,,,,,,,
6006,10.1002/adma.201004200,25442,2b,73,Na0.005Pb0.995Se1,Na0.005Pb0.995Se1,855.5,0.001916,,,,,,,
6006,10.1002/adma.201004200,80,1(a),102,Na0.025Pb0.975Se1,Na0.025Pb0.975Se1,309,0.0071957,0.0000034802,0.000021549,4.1249,-0.14866,287339.8080570082,0.0001334289,0.0000323472
6006,10.1002/adma.201004200,80,1(a),102,Na0.025Pb0.975Se1,Na0.025Pb0.975Se1,309.5,0.0071915,0.0000034849,0.000021479,4.1203,-0.14774,286952.2798358633,0.0001323847,0.0000321299
6006,10.1002/adma.201004200,80,1(a),102,Na0.025Pb0.975Se1,Na0.025Pb0.975Se1,310,0.0071874,0.0000034896,0.000021411,4.1158,-0.14682,286565.7955066483,0.0001313706,0.0000319186
6006,10.1002/adma.201004200,80,1(a),102,Na0.025Pb0.975Se1,Na0.025Pb0.975Se1,310.5,0.0071833,0.0000034944,0.000021345,4.1112,-0.1459,286172.1611721612,0.0001303826,0.000031714
6006,10.1002/adma.201004200,80,1(a),102,Na0.025Pb0.975Se1,Na0.025Pb0.975Se1,311,0.0071791,0.0000034991,0.00002128,4.1067,-0.14498,285787.7739990283,0.0001294157,0.0000315133
6006,10.1002/adma.201004200,80,1(a),102,Na0.025Pb0.975Se1,Na0.025Pb0.975Se1,311.5,0.007175,0.0000035039,0.000021217,4.1022,-0.14406,285396.2727246782,0.0001284743,0.0000313184
6006,10.1002/adma.201004200,80,1(a),102,Na0.025Pb0.975Se1,Na0.025Pb0.975Se1,312,0.0071709,0.0000035086,0.000021156,4.0977,-0.14314,285013.9656843185,0.0001275655,0.000031131
6006,10.1002/adma.201004200,80,1(a),102,Na0.025Pb0.975Se1,Na0.025Pb0.975Se1,312.5,0.0071667,0.0000035134,0.000021096,4.0932,-0.14222,284624.5801787442,0.0001266697,0.0000309464
6006,10.1002/adma.201004200,80,1(a),102,Na0.025Pb0.975Se1,Na0.025Pb0.975Se1,313,0.0071626,0.0000035181,0.000021038,4.0887,-0.1413,284244.3364315966,0.0001258058,0.0000307691
6006,10.1002/adma.201004200,80,1(a),102,Na0.025Pb0.975Se1,Na0.025Pb0.975Se1,313.5,0.0071585,0.0000035229,0.000020981,4.0842,-0.14038,283857.0495898266,0.0001249545,0.0000305946
6006,10.1002/adma.201004200,80,1(a),102,Na0.025Pb0.975Se1,Na0.025Pb0.975Se1,314,0.0071543,0.0000035277,0.000020926,4.0797,-0.13946,283470.8166794229,0.0001241312,0.0000304265
6006,10.1002/adma.201004200,80,1(a),102,Na0.025Pb0.975Se1,Na0.025Pb0.975Se1,314.5,0.0071502,0.0000035325,0.000020873,4.0753,-0.13853,283085.6334041047,0.0001233354,0.0000302641
6006,10.1002/adma.201004200,80,1(a),102,Na0.025Pb0.975Se1,Na0.025Pb0.975Se1,315,0.007146,0.0000035373,0.000020821,4.0709,-0.13761,282701.4954909111,0.0001225551,0.0000301052
6006,10.1002/adma.201004200,80,1(a),102,Na0.025Pb0.975Se1,Na0.025Pb0.975Se1,315.5,0.0071419,0.0000035421,0.000020771,4.0664,-0.13669,282318.3986900426,0.0001218019,0.0000299532
6006,10.1002/adma.201004200,80,1(a),102,Na0.025Pb0.975Se1,Na0.025Pb0.975Se1,316,0.0071378,0.0000035469,0.000020722,4.062,-0.13577,281936.3387747047,0.0001210638,0.000029804
6006,10.1002/adma.201004200,80,1(a),102,Na0.025Pb0.975Se1,Na0.025Pb0.975Se1,316.5,0.0071336,0.0000035517,0.000020675,4.0576,-0.13485,281555.3115409522,0.0001203524,0.000029661
6006,10.1002/adma.201004200,80,1(a),102,Na0.025Pb0.975Se1,Na0.025Pb0.975Se1,317,0.0071295,0.0000035565,0.00002063,4.0532,-0.13393,281175.3128075355,0.0001196673,0.0000295242
6006,10.1002/adma.201004200,80,1(a),102,Na0.025Pb0.975Se1,Na0.025Pb0.975Se1,317.5,0.0071254,0.0000035613,0.000020586,4.0488,-0.13301,280796.338415747,0.0001189968,0.0000293906
6006,10.1002/adma.201004200,80,1(a),102,Na0.025Pb0.975Se1,Na0.025Pb0.975Se1,318,0.0071212,0.0000035662,0.000020543,4.0444,-0.13209,280410.521002748,0.0001183374,0.0000292596
6006,10.1002/adma.201004200,80,1(a),102,Na0.025Pb0.975Se1,Na0.025Pb0.975Se1,318.5,0.0071171,0.000003571,0.000020502,4.0401,-0.13117,280033.6040324839,0.0001177071,0.0000291347
6006,10.1002/adma.201004200,80,1(a),102,Na0.025Pb0.975Se1,Na0.025Pb0.975Se1,319,0.007113,0.0000035759,0.000020463,4.0357,-0.13025,279649.8783523029,0.000117099,0.0000290158
6006,10.1002/adma.201004200,80,1(a),102,Na0.025Pb0.975Se1,Na0.025Pb0.975Se1,319.5,0.0071088,0.0000035807,0.000020425,4.0314,-0.12933,279275.0020945625,0.0001165081,0.0000289002
6006,10.1002/adma.201004200,80,1(a),102,Na0.025Pb0.975Se1,Na0.025Pb0.975Se1,320,0.0071047,0.0000035855,0.000020389,4.0271,-0.12841,278901.1295495747,0.0001159424,0.0000287905
6006,10.1002/adma.201004200,80,1(a),102,Na0.025Pb0.975Se1,Na0.025Pb0.975Se1,320.5,0.0071006,0.0000035904,0.000020354,4.0227,-0.12749,278520.4991087344,0.000115387,0.000028684
6006,10.1002/adma.201004200,80,1(a),102,Na0.025Pb0.975Se1,Na0.025Pb0.975Se1,321,0.0070964,0.0000035953,0.00002032,4.0184,-0.12656,278140.9061830723,0.000114845,0.0000285798
6006,10.1002/adma.201004200,80,1(a),102,Na0.025Pb0.975Se1,Na0.025Pb0.975Se1,321.5,0.0070923,0.0000036001,0.000020288,4.0141,-0.12564,277770.0619427238,0.000114331,0.0000284823
6006,10.1002/adma.201004200,80,1(a),102,Na0.025Pb0.975Se1,Na0.025Pb0.975Se1,322,0.0070881,0.000003605,0.000020258,4.0098,-0.12472,277392.5104022191,0.0001138382,0.00002839
6006,10.1002/adma.201004200,80,1(a),102,Na0.025Pb0.975Se1,Na0.025Pb0.975Se1,322.5,0.007084,0.0000036099,0.000020228,4.0056,-0.1238,277015.9838222666,0.0001133472,0.0000282972
6006,10.1002/adma.201004200,80,1(a),102,Na0.025Pb0.975Se1,Na0.025Pb0.975Se1,323,0.0070799,0.0000036148,0.000020201,4.0013,-0.12288,276640.478034746,0.0001128916,0.0000282137
6006,10.1002/adma.201004200,80,1(a),102,Na0.025Pb0.975Se1,Na0.025Pb0.975Se1,323.5,0.0070757,0.0000036197,0.000020174,3.997,-0.12196,276265.9888941073,0.0001124376,0.0000281305
6006,10.1002/adma.201004200,80,1(a),102,Na0.025Pb0.975Se1,Na0.025Pb0.975Se1,324,0.0070716,0.0000036246,0.00002015,3.9928,-0.12104,275892.5122772168,0.0001120186,0.0000280551
6006,10.1002/adma.201004200,80,1(a),102,Na0.025Pb0.975Se1,Na0.025Pb0.975Se1,324.5,0.0070675,0.0000036294,0.000020126,3.9886,-0.12012,275527.6354218328,0.0001116041,0.0000279808
6006,10.1002/adma.201004200,80,1(a),102,Na0.025Pb0.975Se1,Na0.025Pb0.975Se1,325,0.0070633,0.0000036343,0.000020104,3.9843,-0.1192,275156.1511157582,0.0001112101,0.0000279121
6006,10.1002/adma.201004200,80,1(a),102,Na0.025Pb0.975Se1,Na0.025Pb0.975Se1,325.5,0.0070592,0.0000036393,0.000020083,3.9801,-0.11828,274778.1166707883,0.0001108254,0.0000278449
6006,10.1002/adma.201004200,80,1(a),102,Na0.025Pb0.975Se1,Na0.025Pb0.975Se1,326,0.0070551,0.0000036442,0.000020064,3.9759,-0.11736,274408.6493606278,0.0001104671,0.0000277842
6006,10.1002/adma.201004200,80,1(a),102,Na0.025Pb0.975Se1,Na0.025Pb0.975Se1,326.5,0.0070509,0.0000036491,0.000020046,3.9717,-0.11644,274040.1742895509,0.0001101209,0.0000277264
6006,10.1002/adma.201004200,80,1(a),102,Na0.025Pb0.975Se1,Na0.025Pb0.975Se1,327,0.0070468,0.000003654,0.00002003,3.9675,-0.11552,273672.6874657909,0.0001097977,0.0000276743
6006,10.1002/adma.201004200,80,1(a),102,Na0.025Pb0.975Se1,Na0.025Pb0.975Se1,327.5,0.0070427,0.0000036589,0.000020014,3.9634,-0.11459,273306.1849189647,0.0001094756,0.0000276216
6006,10.1002/adma.201004200,80,1(a),102,Na0.025Pb0.975Se1,Na0.025Pb0.975Se1,328,0.0070385,0.0000036639,0.000020001,3.9592,-0.11367,272933.2132427195,0.0001091842,0.0000275773
6006,10.1002/adma.201004200,80,1(a),102,Na0.025Pb0.975Se1,Na0.025Pb0.975Se1,328.5,0.0070344,0.0000036688,0.000019988,3.955,-0.11275,272568.6873092019,0.0001088967,0.0000275339
6006,10.1002/adma.201004200,80,1(a),102,Na0.025Pb0.975Se1,Na0.025Pb0.975Se1,329,0.0070302,0.0000036737,0.000019977,3.9509,-0.11183,272205.1337888233,0.0001086318,0.0000274954
6006,10.1002/adma.201004200,80,1(a),102,Na0.025Pb0.975Se1,Na0.025Pb0.975Se1,329.5,0.0070261,0.0000036787,0.000019967,3.9468,-0.11091,271835.1591594857,0.0001083755,0.0000274591
6006,10.1002/adma.201004200,80,1(a),102,Na0.025Pb0.975Se1,Na0.025Pb0.975Se1,330,0.007022,0.0000036836,0.000019958,3.9426,-0.10999,271473.5584754045,0.0001081338,0.000027427
6006,10.1002/adma.201004200,80,1(a),102,Na0.025Pb0.975Se1,Na0.025Pb0.975Se1,330.5,0.0070178,0.0000036886,0.000019951,3.9385,-0.10907,271105.5685083771,0.0001079115,0.0000273991
6006,10.1002/adma.201004200,80,1(a),102,Na0.025Pb0.975Se1,Na0.025Pb0.975Se1,331,0.0070137,0.0000036935,0.000019945,3.9344,-0.10815,270745.9049681874,0.0001077035,0.0000273748
6006,10.1002/adma.201004200,80,1(a),102,Na0.025Pb0.975Se1,Na0.025Pb0.975Se1,331.5,0.0070096,0.0000036985,0.00001994,3.9303,-0.10723,270379.88373665,0.000107504,0.0000273526
6006,10.1002/adma.201004200,80,1(a),102,Na0.025Pb0.975Se1,Na0.025Pb0.975Se1,332,0.0070054,0.0000037034,0.000019937,3.9262,-0.10631,270022.1418156289,0.0001073295,0.0000273367
6006,10.1002/adma.201004200,80,1(a),102,Na0.025Pb0.975Se1,Na0.025Pb0.975Se1,332.5,0.0070013,0.0000037084,0.000019935,3.9222,-0.10539,269658.0735627225,0.0001071633,0.0000273222
6006,10.1002/adma.201004200,80,1(a),102,Na0.025Pb0.975Se1,Na0.025Pb0.975Se1,333,0.0069972,0.0000037134,0.000019934,3.9181,-0.10447,269294.9857273658,0.0001070082,0.0000273113
6006,10.1002/adma.201004200,80,1(a),102,Na0.025Pb0.975Se1,Na0.025Pb0.975Se1,333.5,0.006993,0.0000037183,0.000019934,3.914,-0.10355,268940.1070381626,0.0001068672,0.0000273038
6006,10.1002/adma.201004200,80,1(a),102,Na0.025Pb0.975Se1,Na0.025Pb0.975Se1,334,0.0069889,0.0000037233,0.000019936,3.91,-0.10262,268578.9487819945,0.0001067451,0.0000273005
6006,10.1002/adma.201004200,80,1(a),102,Na0.025Pb0.975Se1,Na0.025Pb0.975Se1,334.5,0.0069848,0.0000037283,0.000019939,3.9059,-0.1017,268218.7592200199,0.000106634,0.0000273008
6006,10.1002/adma.201004200,80,1(a),102,Na0.025Pb0.975Se1,Na0.025Pb0.975Se1,335,0.0069806,0.0000037333,0.000019943,3.9019,-0.10078,267859.5344601291,0.000106534,0.0000273031
6006,10.1002/adma.201004200,80,1(a),102,Na0.025Pb0.975Se1,Na0.025Pb0.975Se1,335.5,0.0069765,0.0000037382,0.000019948,3.8979,-0.099862,267508.4265154352,0.0001064477,0.000027309
6006,10.1002/adma.201004200,80,1(a),102,Na0.025Pb0.975Se1,Na0.025Pb0.975Se1,336,0.0069723,0.0000037432,0.000019955,3.8939,-0.098941,267151.1006625347,0.0001063801,0.0000273197
6006,10.1002/adma.201004200,80,1(a),102,Na0.025Pb0.975Se1,Na0.025Pb0.975Se1,336.5,0.0069682,0.0000037482,0.000019963,3.8899,-0.09802,266794.7281361721,0.0001063234,0.0000273332
6006,10.1002/adma.201004200,80,1(a),102,Na0.025Pb0.975Se1,Na0.025Pb0.975Se1,337,0.0069641,0.0000037532,0.000019972,3.8859,-0.0971,266439.3051262922,0.0001062775,0.0000273495
6006,10.1002/adma.201004200,80,1(a),102,Na0.025Pb0.975Se1,Na0.025Pb0.975Se1,337.5,0.0069599,0.0000037582,0.000019982,3.8819,-0.096179,266084.8278431164,0.0001062424,0.0000273687
6006,10.1002/adma.201004200,80,1(a),102,Na0.025Pb0.975Se1,Na0.025Pb0.975Se1,338,0.0069558,0.0000037632,0.000019993,3.8779,-0.095258,265731.2925170068,0.0001062181,0.0000273906
6006,10.1002/adma.201004200,80,1(a),102,Na0.025Pb0.975Se1,Na0.025Pb0.975Se1,338.5,0.0069517,0.0000037682,0.000020005,3.874,-0.094337,265378.6953983334,0.0001062046,0.0000274147
6006,10.1002/adma.201004200,80,1(a),102,Na0.025Pb0.975Se1,Na0.025Pb0.975Se1,339,0.0069475,0.0000037732,0.000020019,3.87,-0.093416,265027.0327573412,0.0001062123,0.000027445
6006,10.1002/adma.201004200,80,1(a),102,Na0.025Pb0.975Se1,Na0.025Pb0.975Se1,339.5,0.0069434,0.0000037782,0.000020034,3.8661,-0.092496,264676.3008840188,0.0001062308,0.0000274775
6006,10.1002/adma.201004200,80,1(a),102,Na0.025Pb0.975Se1,Na0.025Pb0.975Se1,340,0.0069393,0.0000037832,0.00002005,3.8621,-0.091575,264326.4960879678,0.0001062599,0.0000275135
6006,10.1002/adma.201004200,80,1(a),102,Na0.025Pb0.975Se1,Na0.025Pb0.975Se1,340.5,0.0069351,0.0000037882,0.000020067,3.8582,-0.090654,263977.6146982736,0.0001062997,0.0000275516
6006,10.1002/adma.201004200,80,1(a),102,Na0.025Pb0.975Se1,Na0.025Pb0.975Se1,341,0.006931,0.0000037933,0.000020085,3.8543,-0.089733,263622.7031871985,0.0001063473,0.0000275919
6006,10.1002/adma.201004200,80,1(a),102,Na0.025Pb0.975Se1,Na0.025Pb0.975Se1,341.5,0.0069269,0.0000037983,0.000020104,3.8504,-0.088812,263275.675960298,0.0001064083,0.0000276357
6006,10.1002/adma.201004200,80,1(a),102,Na0.025Pb0.975Se1,Na0.025Pb0.975Se1,342,0.0069227,0.0000038033,0.000020125,3.8464,-0.087892,262929.5611705624,0.0001064906,0.0000276858
6006,10.1002/adma.201004200,80,1(a),102,Na0.025Pb0.975Se1,Na0.025Pb0.975Se1,342.5,0.0069186,0.0000038083,0.000020146,3.8426,-0.086971,262584.3552241158,0.0001065728,0.0000277346
6006,10.1002/adma.201004200,80,1(a),102,Na0.025Pb0.975Se1,Na0.025Pb0.975Se1,343,0.0069144,0.0000038133,0.000020169,3.8387,-0.08605,262240.0545459313,0.0001066763,0.0000277897
6006,10.1002/adma.201004200,80,1(a),102,Na0.025Pb0.975Se1,Na0.025Pb0.975Se1,343.5,0.0069103,0.0000038184,0.000020193,3.8348,-0.085129,261889.7967735177,0.0001067875,0.0000278469
6006,10.1002/adma.201004200,80,1(a),102,Na0.025Pb0.975Se1,Na0.025Pb0.975Se1,344,0.0069062,0.0000038234,0.000020218,3.8309,-0.084209,261547.3139090862,0.000106912,0.0000279078
6006,10.1002/adma.201004200,80,1(a),102,Na0.025Pb0.975Se1,Na0.025Pb0.975Se1,344.5,0.006902,0.0000038284,0.000020243,3.8271,-0.083288,261205.7256295058,0.0001070366,0.0000279681
6006,10.1002/adma.201004200,80,1(a),102,Na0.025Pb0.975Se1,Na0.025Pb0.975Se1,345,0.0068979,0.0000038335,0.00002027,3.8232,-0.082367,260858.2235554976,0.0001071796,0.000028034
6006,10.1002/adma.201004200,80,1(a),102,Na0.025Pb0.975Se1,Na0.025Pb0.975Se1,345.5,0.0068938,0.0000038385,0.000020298,3.8194,-0.081446,260518.4316790413,0.0001073359,0.0000281028