sid,DOI,figureid,fignum,sampleid,samplename,composition,Temperature,Carrier mobility,Electrical resistivity,Seebeck coefficient,Thermal conductivity,ZT,Electrical conductivity,Power factor,Figure of merit Z
6006,10.1002/adma.201004200,80,1(a),124,Na0.0125Pb0.9875Se1,Na0.0125Pb0.9875Se1,759,0.0041074,0.000013928,0.00014366,1.4024,0.76094,71797.8173463527,0.0014817774,0.0010566011
6006,10.1002/adma.201004200,80,1(a),124,Na0.0125Pb0.9875Se1,Na0.0125Pb0.9875Se1,759.5,0.0040995,0.000013952,0.00014385,1.4011,0.76205,71674.3119266055,0.0014831438,0.0010585567
6006,10.1002/adma.201004200,80,1(a),124,Na0.0125Pb0.9875Se1,Na0.0125Pb0.9875Se1,760,0.0040916,0.000013977,0.00014405,1.3998,0.76316,71546.1114688417,0.0014846106,0.0010605877
6006,10.1002/adma.201004200,80,1(a),124,Na0.0125Pb0.9875Se1,Na0.0125Pb0.9875Se1,760.5,0.0040837,0.000014001,0.00014424,1.3986,0.76427,71423.4697521606,0.001485978,0.0010624753
6006,10.1002/adma.201004200,80,1(a),124,Na0.0125Pb0.9875Se1,Na0.0125Pb0.9875Se1,761,0.0040758,0.000014026,0.00014444,1.3973,0.76537,71296.1642663625,0.0014874457,0.0010645142
6006,10.1002/adma.201004200,80,1(a),124,Na0.0125Pb0.9875Se1,Na0.0125Pb0.9875Se1,761.5,0.0040678,0.000014051,0.00014463,1.396,0.76648,71169.311792755,0.0014887081,0.0010664098
6006,10.1002/adma.201004200,80,1(a),124,Na0.0125Pb0.9875Se1,Na0.0125Pb0.9875Se1,762,0.0040599,0.000014075,0.00014483,1.3947,0.76759,71047.9573712256,0.0014902827,0.0010685328
6006,10.1002/adma.201004200,80,1(a),124,Na0.0125Pb0.9875Se1,Na0.0125Pb0.9875Se1,762.5,0.004052,0.0000141,0.00014502,1.3934,0.7687,70921.9858156028,0.0014915461,0.0010704364
6006,10.1002/adma.201004200,80,1(a),124,Na0.0125Pb0.9875Se1,Na0.0125Pb0.9875Se1,763,0.0040441,0.000014125,0.00014522,1.3922,0.7698,70796.4601769912,0.0014930158,0.0010724148
6006,10.1002/adma.201004200,80,1(a),124,Na0.0125Pb0.9875Se1,Na0.0125Pb0.9875Se1,763.5,0.0040362,0.000014149,0.00014541,1.3909,0.77091,70676.3728885434,0.001494386,0.0010744022
6006,10.1002/adma.201004200,80,1(a),124,Na0.0125Pb0.9875Se1,Na0.0125Pb0.9875Se1,764,0.0040283,0.000014174,0.00014561,1.3896,0.77202,70551.7144066601,0.0014958566,0.0010764656
6006,10.1002/adma.201004200,80,1(a),124,Na0.0125Pb0.9875Se1,Na0.0125Pb0.9875Se1,764.5,0.0040204,0.000014199,0.0001458,1.3883,0.77313,70427.4948940066,0.0014971223,0.0010783853
6006,10.1002/adma.201004200,80,1(a),124,Na0.0125Pb0.9875Se1,Na0.0125Pb0.9875Se1,765,0.0040124,0.000014224,0.00014599,1.3871,0.77423,70303.7120359955,0.0014983886,0.0010802312
6006,10.1002/adma.201004200,80,1(a),124,Na0.0125Pb0.9875Se1,Na0.0125Pb0.9875Se1,765.5,0.0040045,0.000014249,0.00014619,1.3858,0.77534,70180.3635342831,0.0014998608,0.0010823068
6006,10.1002/adma.201004200,80,1(a),124,Na0.0125Pb0.9875Se1,Na0.0125Pb0.9875Se1,766,0.0039966,0.000014274,0.00014638,1.3846,0.77645,70057.4471066274,0.0015011282,0.0010841602
6006,10.1002/adma.201004200,80,1(a),124,Na0.0125Pb0.9875Se1,Na0.0125Pb0.9875Se1,766.5,0.0039887,0.000014299,0.00014658,1.3833,0.77756,69934.9604867473,0.0015026013,0.001086244
6006,10.1002/adma.201004200,80,1(a),124,Na0.0125Pb0.9875Se1,Na0.0125Pb0.9875Se1,767,0.0039808,0.000014324,0.00014677,1.3821,0.77866,69812.9014241832,0.0015038699,0.001088105
6006,10.1002/adma.201004200,80,1(a),124,Na0.0125Pb0.9875Se1,Na0.0125Pb0.9875Se1,767.5,0.0039729,0.000014349,0.00014697,1.3808,0.77977,69691.2676841592,0.001505344,0.001090197
6006,10.1002/adma.201004200,80,1(a),124,Na0.0125Pb0.9875Se1,Na0.0125Pb0.9875Se1,768,0.003965,0.000014374,0.00014716,1.3796,0.78088,69570.0570474468,0.0015066137,0.0010920656
6006,10.1002/adma.201004200,80,1(a),124,Na0.0125Pb0.9875Se1,Na0.0125Pb0.9875Se1,768.5,0.003957,0.000014399,0.00014736,1.3783,0.78199,69449.2673102299,0.0015080887,0.0010941658
6006,10.1002/adma.201004200,80,1(a),124,Na0.0125Pb0.9875Se1,Na0.0125Pb0.9875Se1,769,0.0039491,0.000014424,0.00014755,1.3771,0.7831,69328.8962839712,0.0015093596,0.0010960421
6006,10.1002/adma.201004200,80,1(a),124,Na0.0125Pb0.9875Se1,Na0.0125Pb0.9875Se1,769.5,0.0039412,0.000014449,0.00014775,1.3758,0.7842,69208.94179528,0.0015108355,0.0010981505
6006,10.1002/adma.201004200,80,1(a),124,Na0.0125Pb0.9875Se1,Na0.0125Pb0.9875Se1,770,0.0039333,0.000014474,0.00014794,1.3746,0.78531,69089.4016857814,0.0015121075,0.0011000345
6006,10.1002/adma.201004200,80,1(a),124,Na0.0125Pb0.9875Se1,Na0.0125Pb0.9875Se1,770.5,0.0039254,0.000014499,0.00014814,1.3733,0.78642,68970.273811987,0.0015135844,0.0011021513
6006,10.1002/adma.201004200,80,1(a),124,Na0.0125Pb0.9875Se1,Na0.0125Pb0.9875Se1,771,0.0039175,0.000014525,0.00014833,1.3721,0.78753,68846.8158347676,0.0015147531,0.001103967
6006,10.1002/adma.201004200,80,1(a),124,Na0.0125Pb0.9875Se1,Na0.0125Pb0.9875Se1,771.5,0.0039096,0.00001455,0.00014852,1.3709,0.78863,68728.5223367698,0.0015160268,0.0011058624
6006,10.1002/adma.201004200,80,1(a),124,Na0.0125Pb0.9875Se1,Na0.0125Pb0.9875Se1,772,0.0039016,0.000014575,0.00014872,1.3696,0.78974,68610.6346483705,0.0015175052,0.0011079915
6006,10.1002/adma.201004200,80,1(a),124,Na0.0125Pb0.9875Se1,Na0.0125Pb0.9875Se1,772.5,0.0038937,0.000014601,0.00014891,1.3684,0.79085,68488.4596945415,0.001518676,0.0011098188
6006,10.1002/adma.201004200,80,1(a),124,Na0.0125Pb0.9875Se1,Na0.0125Pb0.9875Se1,773,0.0038858,0.000014626,0.00014911,1.3672,0.79196,68371.3934089977,0.0015201553,0.0011118749
6006,10.1002/adma.201004200,80,1(a),124,Na0.0125Pb0.9875Se1,Na0.0125Pb0.9875Se1,773.5,0.0038779,0.000014652,0.0001493,1.366,0.79306,68250.0682500682,0.0015213275,0.0011137097
6006,10.1002/adma.201004200,80,1(a),124,Na0.0125Pb0.9875Se1,Na0.0125Pb0.9875Se1,774,0.00387,0.000014677,0.0001495,1.3648,0.79417,68133.8148122913,0.0015228078,0.0011157736
6006,10.1002/adma.201004200,80,1(a),124,Na0.0125Pb0.9875Se1,Na0.0125Pb0.9875Se1,774.5,0.0038621,0.000014703,0.00014969,1.3635,0.79528,68013.3306128001,0.0015239812,0.001117698
6006,10.1002/adma.201004200,80,1(a),124,Na0.0125Pb0.9875Se1,Na0.0125Pb0.9875Se1,775,0.0038542,0.000014728,0.00014988,1.3623,0.79639,67897.8815860945,0.001525259,0.0011196205
6006,10.1002/adma.201004200,80,1(a),124,Na0.0125Pb0.9875Se1,Na0.0125Pb0.9875Se1,775.5,0.0038462,0.000014754,0.00015008,1.3611,0.79749,67778.229632642,0.0015266373,0.0011216202
6006,10.1002/adma.201004200,80,1(a),124,Na0.0125Pb0.9875Se1,Na0.0125Pb0.9875Se1,776,0.0038383,0.000014779,0.00015027,1.3599,0.7986,67663.5766966642,0.0015279162,0.0011235504
6006,10.1002/adma.201004200,80,1(a),124,Na0.0125Pb0.9875Se1,Na0.0125Pb0.9875Se1,776.5,0.0038304,0.000014805,0.00015047,1.3587,0.79971,67544.7483958122,0.0015292956,0.0011255579
6006,10.1002/adma.201004200,80,1(a),124,Na0.0125Pb0.9875Se1,Na0.0125Pb0.9875Se1,777,0.0038225,0.000014831,0.00015066,1.3575,0.80082,67426.3367271256,0.0015304724,0.0011274198
6006,10.1002/adma.201004200,80,1(a),124,Na0.0125Pb0.9875Se1,Na0.0125Pb0.9875Se1,777.5,0.0038146,0.000014857,0.00015085,1.3563,0.80192,67308.3395032644,0.0015316499,0.0011292855
6006,10.1002/adma.201004200,80,1(a),124,Na0.0125Pb0.9875Se1,Na0.0125Pb0.9875Se1,778,0.0038067,0.000014882,0.00015105,1.3551,0.80303,67195.2694530305,0.0015331342,0.0011313808
6006,10.1002/adma.201004200,80,1(a),124,Na0.0125Pb0.9875Se1,Na0.0125Pb0.9875Se1,778.5,0.0037988,0.000014908,0.00015124,1.3539,0.80414,67078.0788838208,0.001534313,0.0011332543
6006,10.1002/adma.201004200,80,1(a),124,Na0.0125Pb0.9875Se1,Na0.0125Pb0.9875Se1,779,0.0037908,0.000014934,0.00015143,1.3527,0.80525,66961.2963706977,0.0015354925,0.0011351316
6006,10.1002/adma.201004200,80,1(a),124,Na0.0125Pb0.9875Se1,Na0.0125Pb0.9875Se1,779.5,0.0037829,0.00001496,0.00015163,1.3515,0.80636,66844.9197860963,0.0015368755,0.0011371628
6006,10.1002/adma.201004200,80,1(a),124,Na0.0125Pb0.9875Se1,Na0.0125Pb0.9875Se1,780,0.003775,0.000014986,0.00015182,1.3503,0.80746,66728.9470172161,0.0015380563,0.0011390479
6006,10.1002/adma.201004200,80,1(a),124,Na0.0125Pb0.9875Se1,Na0.0125Pb0.9875Se1,780.5,0.0037671,0.000015012,0.00015201,1.3491,0.80857,66613.375965894,0.0015392379,0.0011409369
6006,10.1002/adma.201004200,80,1(a),124,Na0.0125Pb0.9875Se1,Na0.0125Pb0.9875Se1,781,0.0037592,0.000015038,0.00015221,1.3479,0.80968,66498.2045484772,0.0015406227,0.00114298
6006,10.1002/adma.201004200,80,1(a),124,Na0.0125Pb0.9875Se1,Na0.0125Pb0.9875Se1,781.5,0.0037513,0.000015064,0.0001524,1.3467,0.81079,66383.4306956983,0.0015418056,0.0011448768
6006,10.1002/adma.201004200,80,1(a),124,Na0.0125Pb0.9875Se1,Na0.0125Pb0.9875Se1,782,0.0037434,0.00001509,0.00015259,1.3455,0.81189,66269.0523525514,0.0015429893,0.0011467776
6006,10.1002/adma.201004200,80,1(a),124,Na0.0125Pb0.9875Se1,Na0.0125Pb0.9875Se1,782.5,0.0037354,0.000015116,0.00015279,1.3443,0.813,66155.0674781688,0.0015443758,0.0011488327
6006,10.1002/adma.201004200,80,1(a),124,Na0.0125Pb0.9875Se1,Na0.0125Pb0.9875Se1,783,0.0037275,0.000015142,0.00015298,1.3432,0.81411,66041.4740457007,0.0015455607,0.0011506557
6006,10.1002/adma.201004200,80,1(a),124,Na0.0125Pb0.9875Se1,Na0.0125Pb0.9875Se1,783.5,0.0037196,0.000015168,0.00015317,1.342,0.81522,65928.2700421941,0.0015467464,0.0011525681
6006,10.1002/adma.201004200,80,1(a),124,Na0.0125Pb0.9875Se1,Na0.0125Pb0.9875Se1,784,0.0037117,0.000015194,0.00015336,1.3408,0.81632,65815.4534684744,0.0015479327,0.0011544844
6006,10.1002/adma.201004200,80,1(a),124,Na0.0125Pb0.9875Se1,Na0.0125Pb0.9875Se1,784.5,0.0037038,0.00001522,0.00015356,1.3396,0.81743,65703.0223390276,0.0015493215,0.0011565553
6006,10.1002/adma.201004200,80,1(a),124,Na0.0125Pb0.9875Se1,Na0.0125Pb0.9875Se1,785,0.0036959,0.000015247,0.00015375,1.3385,0.81854,65586.6727880895,0.0015504075,0.0011583171
6006,10.1002/adma.201004200,80,1(a),124,Na0.0125Pb0.9875Se1,Na0.0125Pb0.9875Se1,785.5,0.003688,0.000015273,0.00015394,1.3373,0.81965,65475.0212793819,0.0015515959,0.0011602452
6006,10.1002/adma.201004200,80,1(a),124,Na0.0125Pb0.9875Se1,Na0.0125Pb0.9875Se1,786,0.00368,0.000015299,0.00015413,1.3361,0.82075,65363.7492646578,0.0015527849,0.0011621772
6006,10.1002/adma.201004200,80,1(a),124,Na0.0125Pb0.9875Se1,Na0.0125Pb0.9875Se1,786.5,0.0036721,0.000015326,0.00015432,1.3349,0.82186,65248.5971551612,0.0015538733,0.0011640372
6006,10.1002/adma.201004200,80,1(a),124,Na0.0125Pb0.9875Se1,Na0.0125Pb0.9875Se1,787,0.0036642,0.000015352,0.00015452,1.3338,0.82297,65138.0927566441,0.0015552651,0.0011660407
6006,10.1002/adma.201004200,80,1(a),124,Na0.0125Pb0.9875Se1,Na0.0125Pb0.9875Se1,787.5,0.0036563,0.000015378,0.00015471,1.3326,0.82408,65027.9620236702,0.0015564562,0.0011679846
6006,10.1002/adma.201004200,80,1(a),124,Na0.0125Pb0.9875Se1,Na0.0125Pb0.9875Se1,788,0.0036484,0.000015405,0.0001549,1.3315,0.82518,64913.9889646219,0.0015575469,0.0011697686
6006,10.1002/adma.201004200,80,1(a),124,Na0.0125Pb0.9875Se1,Na0.0125Pb0.9875Se1,788.5,0.0036405,0.000015431,0.00015509,1.3303,0.82629,64804.6140885231,0.0015587394,0.0011717202
6006,10.1002/adma.201004200,80,1(a),124,Na0.0125Pb0.9875Se1,Na0.0125Pb0.9875Se1,789,0.0036326,0.000015458,0.00015528,1.3291,0.8274,64691.4219174537,0.0015598317,0.0011736
6006,10.1002/adma.201004200,80,1(a),124,Na0.0125Pb0.9875Se1,Na0.0125Pb0.9875Se1,789.5,0.0036246,0.000015484,0.00015547,1.328,0.82851,64582.7951433738,0.0015610256,0.0011754711
6006,10.1002/adma.201004200,80,1(a),124,Na0.0125Pb0.9875Se1,Na0.0125Pb0.9875Se1,790,0.0036167,0.000015511,0.00015566,1.3268,0.82962,64470.3758622913,0.0015621195,0.0011773587
6006,10.1002/adma.201004200,80,1(a),124,Na0.0125Pb0.9875Se1,Na0.0125Pb0.9875Se1,790.5,0.0036088,0.000015538,0.00015585,1.3257,0.83072,64358.3472776419,0.0015632142,0.0011791614
6006,10.1002/adma.201004200,80,1(a),124,Na0.0125Pb0.9875Se1,Na0.0125Pb0.9875Se1,791,0.0036009,0.000015564,0.00015604,1.3245,0.83183,64250.8352608584,0.0015644103,0.0011811327
6006,10.1002/adma.201004200,80,1(a),124,Na0.0125Pb0.9875Se1,Na0.0125Pb0.9875Se1,791.5,0.003593,0.000015591,0.00015623,1.3234,0.83294,64139.5676993137,0.0015655066,0.0011829429
6006,10.1002/adma.201004200,80,1(a),124,Na0.0125Pb0.9875Se1,Na0.0125Pb0.9875Se1,792,0.0035851,0.000015618,0.00015642,1.3222,0.83405,64028.6848508132,0.0015666037,0.0011848462
6006,10.1002/adma.201004200,80,1(a),124,Na0.0125Pb0.9875Se1,Na0.0125Pb0.9875Se1,792.5,0.0035772,0.000015644,0.00015661,1.3211,0.83515,63922.2705190488,0.0015678018,0.0011867397
6006,10.1002/adma.201004200,80,1(a),124,Na0.0125Pb0.9875Se1,Na0.0125Pb0.9875Se1,793,0.0035692,0.000015671,0.0001568,1.3199,0.83626,63812.1370684704,0.0015689005,0.001188651
6006,10.1002/adma.201004200,80,1(a),124,Na0.0125Pb0.9875Se1,Na0.0125Pb0.9875Se1,793.5,0.0035613,0.000015698,0.00015699,1.3188,0.83737,63702.3824691043,0.00157,0.0011904762
6006,10.1002/adma.201004200,80,1(a),124,Na0.0125Pb0.9875Se1,Na0.0125Pb0.9875Se1,794,0.0035534,0.000015725,0.00015718,1.3177,0.83848,63593.0047694754,0.0015711003,0.001192305
6006,10.1002/adma.201004200,80,1(a),124,Na0.0125Pb0.9875Se1,Na0.0125Pb0.9875Se1,794.5,0.0035455,0.000015752,0.00015737,1.3165,0.83958,63484.0020314881,0.0015722014,0.0011942282
6006,10.1002/adma.201004200,80,1(a),124,Na0.0125Pb0.9875Se1,Na0.0125Pb0.9875Se1,795,0.0035376,0.000015779,0.00015756,1.3154,0.84069,63375.3723303124,0.0015733034,0.0011960646
6006,10.1002/adma.201004200,80,1(a),124,Na0.0125Pb0.9875Se1,Na0.0125Pb0.9875Se1,795.5,0.0035297,0.000015806,0.00015775,1.3143,0.8418,63267.1137542705,0.0015744061,0.0011979046
6006,10.1002/adma.201004200,80,1(a),124,Na0.0125Pb0.9875Se1,Na0.0125Pb0.9875Se1,796,0.0035218,0.000015833,0.00015793,1.3131,0.84291,63159.2244047243,0.0015753101,0.0011996878
6006,10.1002/adma.201004200,80,1(a),124,Na0.0125Pb0.9875Se1,Na0.0125Pb0.9875Se1,796.5,0.0035138,0.00001586,0.00015812,1.312,0.84401,63051.7023959647,0.0015764145,0.0012015355
6006,10.1002/adma.201004200,80,1(a),124,Na0.0125Pb0.9875Se1,Na0.0125Pb0.9875Se1,797,0.0035059,0.000015887,0.00015831,1.3109,0.84512,62944.5458551017,0.0015775197,0.0012033868
6006,10.1002/adma.201004200,80,1(a),124,Na0.0125Pb0.9875Se1,Na0.0125Pb0.9875Se1,797.5,0.003498,0.000015914,0.0001585,1.3097,0.84623,62837.7529219555,0.0015786257,0.0012053338
6006,10.1002/adma.201004200,80,1(a),124,Na0.0125Pb0.9875Se1,Na0.0125Pb0.9875Se1,798,0.0034901,0.000015941,0.00015869,1.3086,0.84734,62731.3217489493,0.0015797325,0.0012071928
6006,10.1002/adma.201004200,80,1(a),124,Na0.0125Pb0.9875Se1,Na0.0125Pb0.9875Se1,798.5,0.0034822,0.000015968,0.00015887,1.3075,0.84844,62625.250501002,0.0015806411,0.0012089033
6006,10.1002/adma.201004200,80,1(a),124,Na0.0125Pb0.9875Se1,Na0.0125Pb0.9875Se1,799,0.0034743,0.000015995,0.00015906,1.3064,0.84955,62519.5373554236,0.0015817495,0.0012107697
6006,10.1002/adma.201004200,80,1(a),124,Na0.0125Pb0.9875Se1,Na0.0125Pb0.9875Se1,799.5,0.0034664,0.000016022,0.00015925,1.3052,0.85066,62414.18050181,0.0015828587,0.0012127327
6006,10.1002/adma.201004200,80,1(a),124,Na0.0125Pb0.9875Se1,Na0.0125Pb0.9875Se1,800,0.0034584,0.000016049,0.00015943,1.3041,0.85177,62309.1781419403,0.00158377,0.0012144544
6006,10.1002/adma.201004200,80,1(a),124,Na0.0125Pb0.9875Se1,Na0.0125Pb0.9875Se1,800.5,0.0034505,0.000016077,0.00015962,1.303,0.85288,62200.6593269889,0.0015847823,0.0012162565
6006,10.1002/adma.201004200,80,1(a),124,Na0.0125Pb0.9875Se1,Na0.0125Pb0.9875Se1,801,0.0034426,0.000016104,0.0001598,1.3019,0.85398,62096.3735717834,0.0015856955,0.0012179856
6006,10.1002/adma.201004200,80,1(a),124,Na0.0125Pb0.9875Se1,Na0.0125Pb0.9875Se1,801.5,0.0034347,0.000016131,0.00015999,1.3008,0.85509,61992.4369226954,0.001586808,0.0012198709
6006,10.1002/adma.201004200,80,1(a),124,Na0.0125Pb0.9875Se1,Na0.0125Pb0.9875Se1,802,0.0034268,0.000016159,0.00016017,1.2997,0.8562,61885.01763723,0.0015876248,0.0012215317
6006,10.1002/adma.201004200,80,1(a),124,Na0.0125Pb0.9875Se1,Na0.0125Pb0.9875Se1,802.5,0.0034189,0.000016186,0.00016036,1.2985,0.85731,61781.7867292722,0.001588739,0.0012235187
6006,10.1002/adma.201004200,80,1(a),124,Na0.0125Pb0.9875Se1,Na0.0125Pb0.9875Se1,803,0.003411,0.000016213,0.00016054,1.2974,0.85841,61678.8996484303,0.0015896559,0.0012252628
6006,10.1002/adma.201004200,80,1(a),124,Na0.0125Pb0.9875Se1,Na0.0125Pb0.9875Se1,803.5,0.003403,0.000016241,0.00016073,1.2963,0.85952,61572.5632658088,0.0015906738,0.0012270877
6006,10.1002/adma.201004200,80,1(a),124,Na0.0125Pb0.9875Se1,Na0.0125Pb0.9875Se1,804,0.0033951,0.000016268,0.00016091,1.2952,0.86063,61470.3712810425,0.0015915926,0.0012288392
6006,10.1002/adma.201004200,80,1(a),124,Na0.0125Pb0.9875Se1,Na0.0125Pb0.9875Se1,804.5,0.0033872,0.000016296,0.00016109,1.2941,0.86174,61364.7520864016,0.0015924146,0.001230519
6006,10.1002/adma.201004200,80,1(a),124,Na0.0125Pb0.9875Se1,Na0.0125Pb0.9875Se1,805,0.0033793,0.000016323,0.00016128,1.293,0.86284,61263.2481774184,0.001593533,0.0012324307
6006,10.1002/adma.201004200,80,1(a),124,Na0.0125Pb0.9875Se1,Na0.0125Pb0.9875Se1,805.5,0.0033714,0.000016351,0.00016146,1.2919,0.86395,61158.3389395144,0.001594357,0.001234118
6006,10.1002/adma.201004200,80,1(a),124,Na0.0125Pb0.9875Se1,Na0.0125Pb0.9875Se1,806,0.0033635,0.000016378,0.00016164,1.2908,0.86506,61057.5161802418,0.0015952796,0.0012358844
6006,10.1002/adma.201004200,80,1(a),124,Na0.0125Pb0.9875Se1,Na0.0125Pb0.9875Se1,806.5,0.0033556,0.000016406,0.00016183,1.2897,0.86617,60953.3097647202,0.0015963031,0.0012377321
6006,10.1002/adma.201004200,80,1(a),124,Na0.0125Pb0.9875Se1,Na0.0125Pb0.9875Se1,807,0.0033476,0.000016434,0.00016201,1.2886,0.86727,60849.4584398199,0.0015971303,0.0012394307
6006,10.1002/adma.201004200,80,1(a),124,Na0.0125Pb0.9875Se1,Na0.0125Pb0.9875Se1,807.5,0.0033397,0.000016461,0.00016219,1.2875,0.86838,60749.6506895085,0.0015980558,0.0012412084
6006,10.1002/adma.201004200,80,1(a),124,Na0.0125Pb0.9875Se1,Na0.0125Pb0.9875Se1,808,0.0033318,0.000016489,0.00016237,1.2864,0.86949,60646.4916004609,0.0015988851,0.0012429144
6006,10.1002/adma.201004200,80,1(a),124,Na0.0125Pb0.9875Se1,Na0.0125Pb0.9875Se1,808.5,0.0033239,0.000016517,0.00016255,1.2853,0.8706,60543.6822667555,0.0015997156,0.0012446243
6006,10.1002/adma.201004200,80,1(a),124,Na0.0125Pb0.9875Se1,Na0.0125Pb0.9875Se1,809,0.003316,0.000016545,0.00016273,1.2842,0.8717,60441.2209126624,0.0016005472,0.0012463379
6006,10.1002/adma.201004200,80,1(a),124,Na0.0125Pb0.9875Se1,Na0.0125Pb0.9875Se1,809.5,0.0033081,0.000016572,0.00016291,1.2831,0.87281,60342.7468018344,0.0016014765,0.0012481307
6006,10.1002/adma.201004200,80,1(a),124,Na0.0125Pb0.9875Se1,Na0.0125Pb0.9875Se1,810,0.0033002,0.0000166,0.00016309,1.282,0.87392,60240.9638554217,0.0016023101,0.0012498519
6006,10.1002/adma.201004200,80,1(a),124,Na0.0125Pb0.9875Se1,Na0.0125Pb0.9875Se1,810.5,0.0032922,0.000016628,0.00016327,1.2809,0.87503,60139.5236949723,0.0016031449,0.0012515769
6006,10.1002/adma.201004200,80,1(a),124,Na0.0125Pb0.9875Se1,Na0.0125Pb0.9875Se1,811,0.0032843,0.000016656,0.00016345,1.2798,0.87614,60038.4245917387,0.0016039807,0.0012533057
6006,10.1002/adma.201004200,80,1(a),124,Na0.0125Pb0.9875Se1,Na0.0125Pb0.9875Se1,811.5,0.0032764,0.000016684,0.00016363,1.2788,0.87724,59937.6648285783,0.0016048176,0.0012549403
6006,10.1002/adma.201004200,80,1(a),124,Na0.0125Pb0.9875Se1,Na0.0125Pb0.9875Se1,812,0.0032685,0.000016712,0.00016381,1.2777,0.87835,59837.2426998564,0.0016056556,0.0012566765
6006,10.1002/adma.201004200,80,1(a),124,Na0.0125Pb0.9875Se1,Na0.0125Pb0.9875Se1,812.5,0.0032606,0.00001674,0.00016399,1.2766,0.87946,59737.1565113501,0.0016064946,0.0012584166
6006,10.1002/adma.201004200,80,1(a),124,Na0.0125Pb0.9875Se1,Na0.0125Pb0.9875Se1,813,0.0032527,0.000016768,0.00016416,1.2755,0.88057,59637.4045801527,0.0016071389,0.001260007
6006,10.1002/adma.201004200,80,1(a),124,Na0.0125Pb0.9875Se1,Na0.0125Pb0.9875Se1,813.5,0.0032448,0.000016796,0.00016434,1.2744,0.88167,59537.9852345797,0.0016079802,0.0012617547
6006,10.1002/adma.201004200,80,1(a),124,Na0.0125Pb0.9875Se1,Na0.0125Pb0.9875Se1,814,0.0032368,0.000016824,0.00016452,1.2733,0.88278,59438.8968140751,0.0016088225,0.0012635063
6006,10.1002/adma.201004200,80,1(a),124,Na0.0125Pb0.9875Se1,Na0.0125Pb0.9875Se1,814.5,0.0032289,0.000016852,0.00016469,1.2722,0.88389,59340.1376691194,0.0016094705,0.001265108
6006,10.1002/adma.201004200,80,1(a),124,Na0.0125Pb0.9875Se1,Na0.0125Pb0.9875Se1,815,0.003221,0.00001688,0.00016487,1.2712,0.885,59241.7061611374,0.001610315,0.0012667676