sid,DOI,figureid,fignum,sampleid,samplename,composition,Temperature,Carrier mobility,Electrical resistivity,Seebeck coefficient,Thermal conductivity,ZT,Electrical conductivity,Power factor,Figure of merit Z
6006,10.1002/adma.201004200,80,1(a),367,Pb1Se1,Pb1Se1,702,,,0.000019977,1.2375,,,,
6006,10.1002/adma.201004200,80,1(a),367,Pb1Se1,Pb1Se1,702.5,,,0.00002,1.2378,,,,
6006,10.1002/adma.201004200,80,1(a),367,Pb1Se1,Pb1Se1,703,,,0.000020025,1.2381,,,,
6006,10.1002/adma.201004200,80,1(a),367,Pb1Se1,Pb1Se1,703.5,,,0.000020053,1.2384,,,,
6006,10.1002/adma.201004200,80,1(a),367,Pb1Se1,Pb1Se1,704,,,0.000020084,1.2387,,,,
6006,10.1002/adma.201004200,80,1(a),367,Pb1Se1,Pb1Se1,704.5,,,0.000020117,1.239,,,,
6006,10.1002/adma.201004200,80,1(a),367,Pb1Se1,Pb1Se1,705,,,0.000020153,1.2393,,,,
6006,10.1002/adma.201004200,80,1(a),367,Pb1Se1,Pb1Se1,705.5,,,0.000020191,1.2397,,,,
6006,10.1002/adma.201004200,80,1(a),367,Pb1Se1,Pb1Se1,706,,,0.000020232,1.24,,,,
6006,10.1002/adma.201004200,80,1(a),367,Pb1Se1,Pb1Se1,706.5,,,0.000020275,1.2403,,,,
6006,10.1002/adma.201004200,80,1(a),367,Pb1Se1,Pb1Se1,707,,,0.000020321,1.2406,,,,
6006,10.1002/adma.201004200,80,1(a),367,Pb1Se1,Pb1Se1,707.5,,,0.00002037,1.2409,,,,
6006,10.1002/adma.201004200,80,1(a),367,Pb1Se1,Pb1Se1,708,,,0.000020421,1.2412,,,,
6006,10.1002/adma.201004200,80,1(a),367,Pb1Se1,Pb1Se1,708.5,,,0.000020474,1.2416,,,,
6006,10.1002/adma.201004200,80,1(a),367,Pb1Se1,Pb1Se1,709,,,0.00002053,1.2419,,,,
6006,10.1002/adma.201004200,80,1(a),367,Pb1Se1,Pb1Se1,709.5,,,0.000020589,1.2422,,,,
6006,10.1002/adma.201004200,80,1(a),367,Pb1Se1,Pb1Se1,710,,,0.00002065,1.2425,,,,
6006,10.1002/adma.201004200,80,1(a),367,Pb1Se1,Pb1Se1,710.5,,,0.000020713,1.2428,,,,
6006,10.1002/adma.201004200,80,1(a),367,Pb1Se1,Pb1Se1,711,,,0.000020779,1.2431,,,,
6006,10.1002/adma.201004200,80,1(a),367,Pb1Se1,Pb1Se1,711.5,,,0.000020847,1.2435,,,,
6006,10.1002/adma.201004200,80,1(a),367,Pb1Se1,Pb1Se1,712,,,0.000020918,1.2438,,,,
6006,10.1002/adma.201004200,80,1(a),367,Pb1Se1,Pb1Se1,712.5,,,0.000020991,1.2441,,,,
6006,10.1002/adma.201004200,19,3(a),367,Pb1Se1,Pb1Se1,299.5,,,,1.6983,,,,
6006,10.1002/adma.201004200,19,3(a),367,Pb1Se1,Pb1Se1,300,,,,1.6946,,,,
6006,10.1002/adma.201004200,19,3(a),367,Pb1Se1,Pb1Se1,300.5,,,,1.6908,,,,
6006,10.1002/adma.201004200,19,3(a),367,Pb1Se1,Pb1Se1,301,,,,1.6871,,,,
6006,10.1002/adma.201004200,19,3(a),367,Pb1Se1,Pb1Se1,301.5,,,,1.6835,,,,
6006,10.1002/adma.201004200,19,3(a),367,Pb1Se1,Pb1Se1,302,,,,1.6798,,,,
6006,10.1002/adma.201004200,19,3(a),367,Pb1Se1,Pb1Se1,302.5,,,,1.6761,,,,
6006,10.1002/adma.201004200,19,3(a),367,Pb1Se1,Pb1Se1,303,,,,1.6725,,,,
6006,10.1002/adma.201004200,19,3(a),367,Pb1Se1,Pb1Se1,303.5,,,,1.6689,,,,
6006,10.1002/adma.201004200,19,3(a),367,Pb1Se1,Pb1Se1,304,,,,1.6653,,,,
6006,10.1002/adma.201004200,19,3(a),367,Pb1Se1,Pb1Se1,304.5,,,,1.6618,,,,
6006,10.1002/adma.201004200,19,3(a),367,Pb1Se1,Pb1Se1,305,,,,1.6582,,,,
6006,10.1002/adma.201004200,19,3(a),367,Pb1Se1,Pb1Se1,305.5,,,,1.6547,,,,
6006,10.1002/adma.201004200,19,3(a),367,Pb1Se1,Pb1Se1,306,,,,1.6512,,,,
6006,10.1002/adma.201004200,19,3(a),367,Pb1Se1,Pb1Se1,306.5,,,,1.6477,,,,
6006,10.1002/adma.201004200,19,3(a),367,Pb1Se1,Pb1Se1,307,,,,1.6442,,,,
6006,10.1002/adma.201004200,19,3(a),367,Pb1Se1,Pb1Se1,307.5,,,,1.6408,,,,
6006,10.1002/adma.201004200,19,3(a),367,Pb1Se1,Pb1Se1,308,,,,1.6374,,,,
6006,10.1002/adma.201004200,19,3(a),367,Pb1Se1,Pb1Se1,308.5,,,,1.634,,,,
6006,10.1002/adma.201004200,19,3(a),367,Pb1Se1,Pb1Se1,309,,,,1.6306,,,,
6006,10.1002/adma.201004200,19,3(a),367,Pb1Se1,Pb1Se1,713,,,,1.2444,,,,
6006,10.1002/adma.201004200,19,3(a),367,Pb1Se1,Pb1Se1,713.5,,,,1.2447,,,,
6006,10.1002/adma.201004200,19,3(a),367,Pb1Se1,Pb1Se1,714,,,,1.2451,,,,
6006,10.1002/adma.201004200,19,3(a),367,Pb1Se1,Pb1Se1,714.5,,,,1.2454,,,,
6006,10.1002/adma.201004200,19,3(a),367,Pb1Se1,Pb1Se1,715,,,,1.2457,,,,
6006,10.1002/adma.201004200,19,3(a),367,Pb1Se1,Pb1Se1,715.5,,,,1.246,,,,
6006,10.1002/adma.201004200,19,3(a),367,Pb1Se1,Pb1Se1,716,,,,1.2463,,,,
6006,10.1002/adma.201004200,19,3(a),367,Pb1Se1,Pb1Se1,716.5,,,,1.2467,,,,
6006,10.1002/adma.201004200,19,3(a),367,Pb1Se1,Pb1Se1,717,,,,1.247,,,,
6006,10.1002/adma.201004200,19,3(a),367,Pb1Se1,Pb1Se1,717.5,,,,1.2473,,,,
6006,10.1002/adma.201004200,19,3(a),367,Pb1Se1,Pb1Se1,718,,,,1.2476,,,,
6006,10.1002/adma.201004200,19,3(a),367,Pb1Se1,Pb1Se1,718.5,,,,1.2479,,,,
6006,10.1002/adma.201004200,19,3(a),367,Pb1Se1,Pb1Se1,719,,,,1.2483,,,,
6006,10.1002/adma.201004200,19,3(a),367,Pb1Se1,Pb1Se1,719.5,,,,1.2486,,,,
6006,10.1002/adma.201004200,19,3(a),367,Pb1Se1,Pb1Se1,720,,,,1.2489,,,,
6006,10.1002/adma.201004200,19,3(a),367,Pb1Se1,Pb1Se1,720.5,,,,1.2492,,,,
6006,10.1002/adma.201004200,19,3(a),367,Pb1Se1,Pb1Se1,721,,,,1.2496,,,,
6006,10.1002/adma.201004200,19,3(a),367,Pb1Se1,Pb1Se1,721.5,,,,1.2499,,,,
6006,10.1002/adma.201004200,19,3(a),367,Pb1Se1,Pb1Se1,722,,,,1.2502,,,,
6006,10.1002/adma.201004200,19,3(a),367,Pb1Se1,Pb1Se1,722.5,,,,1.2505,,,,
6006,10.1002/adma.201004200,19,3(a),367,Pb1Se1,Pb1Se1,723,,,,1.2508,,,,
6006,10.1002/adma.201004200,19,3(a),367,Pb1Se1,Pb1Se1,723.5,,,,1.2512,,,,
6006,10.1002/adma.201004200,19,3(a),367,Pb1Se1,Pb1Se1,724,,,,1.2515,,,,
6006,10.1002/adma.201004200,19,3(a),367,Pb1Se1,Pb1Se1,724.5,,,,1.2518,,,,
6006,10.1002/adma.201004200,19,3(a),367,Pb1Se1,Pb1Se1,725,,,,1.2521,,,,
6006,10.1002/adma.201004200,19,3(a),367,Pb1Se1,Pb1Se1,725.5,,,,1.2525,,,,
6006,10.1002/adma.201004200,19,3(a),367,Pb1Se1,Pb1Se1,726,,,,1.2528,,,,
6006,10.1002/adma.201004200,19,3(a),367,Pb1Se1,Pb1Se1,726.5,,,,1.2531,,,,
6006,10.1002/adma.201004200,19,3(a),367,Pb1Se1,Pb1Se1,727,,,,1.2534,,,,
6006,10.1002/adma.201004200,19,3(a),367,Pb1Se1,Pb1Se1,727.5,,,,1.2538,,,,
6006,10.1002/adma.201004200,19,3(a),367,Pb1Se1,Pb1Se1,728,,,,1.2541,,,,
6006,10.1002/adma.201004200,19,3(a),367,Pb1Se1,Pb1Se1,728.5,,,,1.2544,,,,
6006,10.1002/adma.201004200,19,3(a),367,Pb1Se1,Pb1Se1,729,,,,1.2548,,,,
6006,10.1002/adma.201004200,19,3(a),367,Pb1Se1,Pb1Se1,729.5,,,,1.2551,,,,
6006,10.1002/adma.201004200,19,3(a),367,Pb1Se1,Pb1Se1,730,,,,1.2554,,,,
6006,10.1002/adma.201004200,19,3(a),367,Pb1Se1,Pb1Se1,730.5,,,,1.2557,,,,
6006,10.1002/adma.201004200,19,3(a),367,Pb1Se1,Pb1Se1,731,,,,1.2561,,,,
6006,10.1002/adma.201004200,19,3(a),367,Pb1Se1,Pb1Se1,731.5,,,,1.2564,,,,
6006,10.1002/adma.201004200,19,3(a),367,Pb1Se1,Pb1Se1,732,,,,1.2567,,,,
6006,10.1002/adma.201004200,19,3(a),367,Pb1Se1,Pb1Se1,732.5,,,,1.257,,,,
6006,10.1002/adma.201004200,19,3(a),367,Pb1Se1,Pb1Se1,733,,,,1.2574,,,,
6006,10.1002/adma.201004200,19,3(a),367,Pb1Se1,Pb1Se1,733.5,,,,1.2577,,,,
6006,10.1002/adma.201004200,19,3(a),367,Pb1Se1,Pb1Se1,734,,,,1.258,,,,
6006,10.1002/adma.201004200,19,3(a),367,Pb1Se1,Pb1Se1,734.5,,,,1.2583,,,,
6006,10.1002/adma.201004200,19,3(a),367,Pb1Se1,Pb1Se1,735,,,,1.2587,,,,
6006,10.1002/adma.201004200,19,3(a),367,Pb1Se1,Pb1Se1,735.5,,,,1.259,,,,
6006,10.1002/adma.201004200,19,3(a),367,Pb1Se1,Pb1Se1,736,,,,1.2593,,,,
6006,10.1002/adma.201004200,19,3(a),367,Pb1Se1,Pb1Se1,736.5,,,,1.2597,,,,
6006,10.1002/adma.201004200,19,3(a),367,Pb1Se1,Pb1Se1,737,,,,1.26,,,,
6006,10.1002/adma.201004200,19,3(a),367,Pb1Se1,Pb1Se1,737.5,,,,1.2603,,,,
6006,10.1002/adma.201004200,19,3(a),367,Pb1Se1,Pb1Se1,738,,,,1.2606,,,,
6006,10.1002/adma.201004200,19,3(a),367,Pb1Se1,Pb1Se1,738.5,,,,1.261,,,,
6006,10.1002/adma.201004200,19,3(a),367,Pb1Se1,Pb1Se1,739,,,,1.2613,,,,
6006,10.1002/adma.201004200,19,3(a),367,Pb1Se1,Pb1Se1,739.5,,,,1.2616,,,,
6006,10.1002/adma.201004200,19,3(a),367,Pb1Se1,Pb1Se1,740,,,,1.2619,,,,
6006,10.1002/adma.201004200,19,3(a),367,Pb1Se1,Pb1Se1,740.5,,,,1.2623,,,,
6006,10.1002/adma.201004200,19,3(a),367,Pb1Se1,Pb1Se1,741,,,,1.2626,,,,
6006,10.1002/adma.201004200,19,3(a),367,Pb1Se1,Pb1Se1,741.5,,,,1.2629,,,,
6006,10.1002/adma.201004200,19,3(a),367,Pb1Se1,Pb1Se1,742,,,,1.2632,,,,
6006,10.1002/adma.201004200,19,3(a),367,Pb1Se1,Pb1Se1,742.5,,,,1.2636,,,,
6006,10.1002/adma.201004200,19,3(a),367,Pb1Se1,Pb1Se1,743,,,,1.2639,,,,
6006,10.1002/adma.201004200,19,3(a),367,Pb1Se1,Pb1Se1,743.5,,,,1.2642,,,,
6006,10.1002/adma.201004200,19,3(a),367,Pb1Se1,Pb1Se1,744,,,,1.2646,,,,
6006,10.1002/adma.201004200,19,3(a),367,Pb1Se1,Pb1Se1,744.5,,,,1.2649,,,,
6006,10.1002/adma.201004200,19,3(a),367,Pb1Se1,Pb1Se1,745,,,,1.2652,,,,
6006,10.1002/adma.201004200,19,3(a),367,Pb1Se1,Pb1Se1,745.5,,,,1.2655,,,,
6006,10.1002/adma.201004200,19,3(a),367,Pb1Se1,Pb1Se1,746,,,,1.2659,,,,
6006,10.1002/adma.201004200,19,3(a),367,Pb1Se1,Pb1Se1,746.5,,,,1.2662,,,,
6006,10.1002/adma.201004200,19,3(a),367,Pb1Se1,Pb1Se1,747,,,,1.2665,,,,
6006,10.1002/adma.201004200,19,3(a),367,Pb1Se1,Pb1Se1,747.5,,,,1.2668,,,,
6006,10.1002/adma.201004200,19,3(a),367,Pb1Se1,Pb1Se1,748,,,,1.2672,,,,
6006,10.1002/adma.201004200,19,3(a),367,Pb1Se1,Pb1Se1,748.5,,,,1.2675,,,,
6006,10.1002/adma.201004200,19,3(a),367,Pb1Se1,Pb1Se1,749,,,,1.2678,,,,
6006,10.1002/adma.201004200,19,3(a),367,Pb1Se1,Pb1Se1,749.5,,,,1.2681,,,,
6006,10.1002/adma.201004200,19,3(a),367,Pb1Se1,Pb1Se1,750,,,,1.2685,,,,
6006,10.1002/adma.201004200,19,3(a),367,Pb1Se1,Pb1Se1,750.5,,,,1.2688,,,,
6006,10.1002/adma.201004200,19,3(a),367,Pb1Se1,Pb1Se1,751,,,,1.2691,,,,
6006,10.1002/adma.201004200,19,3(a),367,Pb1Se1,Pb1Se1,751.5,,,,1.2694,,,,
6006,10.1002/adma.201004200,19,3(a),367,Pb1Se1,Pb1Se1,752,,,,1.2698,,,,
6006,10.1002/adma.201004200,19,3(a),367,Pb1Se1,Pb1Se1,752.5,,,,1.2701,,,,
6006,10.1002/adma.201004200,19,3(a),367,Pb1Se1,Pb1Se1,753,,,,1.2704,,,,
6006,10.1002/adma.201004200,19,3(a),367,Pb1Se1,Pb1Se1,753.5,,,,1.2707,,,,
6006,10.1002/adma.201004200,19,3(a),367,Pb1Se1,Pb1Se1,754,,,,1.271,,,,
6006,10.1002/adma.201004200,19,3(a),367,Pb1Se1,Pb1Se1,754.5,,,,1.2714,,,,
6006,10.1002/adma.201004200,19,3(a),367,Pb1Se1,Pb1Se1,755,,,,1.2717,,,,
6006,10.1002/adma.201004200,19,3(a),367,Pb1Se1,Pb1Se1,755.5,,,,1.272,,,,
6006,10.1002/adma.201004200,19,3(a),367,Pb1Se1,Pb1Se1,756,,,,1.2723,,,,
6006,10.1002/adma.201004200,19,3(a),367,Pb1Se1,Pb1Se1,756.5,,,,1.2726,,,,
6006,10.1002/adma.201004200,19,3(a),367,Pb1Se1,Pb1Se1,757,,,,1.273,,,,
6006,10.1002/adma.201004200,19,3(a),367,Pb1Se1,Pb1Se1,757.5,,,,1.2733,,,,
6006,10.1002/adma.201004200,19,3(a),367,Pb1Se1,Pb1Se1,758,,,,1.2736,,,,
6006,10.1002/adma.201004200,19,3(a),367,Pb1Se1,Pb1Se1,758.5,,,,1.2739,,,,
6006,10.1002/adma.201004200,19,3(a),367,Pb1Se1,Pb1Se1,759,,,,1.2742,,,,
6006,10.1002/adma.201004200,19,3(a),367,Pb1Se1,Pb1Se1,759.5,,,,1.2746,,,,
6006,10.1002/adma.201004200,19,3(a),367,Pb1Se1,Pb1Se1,760,,,,1.2749,,,,
6006,10.1002/adma.201004200,19,3(a),367,Pb1Se1,Pb1Se1,760.5,,,,1.2752,,,,
6006,10.1002/adma.201004200,19,3(a),367,Pb1Se1,Pb1Se1,761,,,,1.2755,,,,
6006,10.1002/adma.201004200,19,3(a),367,Pb1Se1,Pb1Se1,761.5,,,,1.2758,,,,
6006,10.1002/adma.201004200,19,3(a),367,Pb1Se1,Pb1Se1,762,,,,1.2761,,,,
6006,10.1002/adma.201004200,19,3(a),367,Pb1Se1,Pb1Se1,762.5,,,,1.2765,,,,
6006,10.1002/adma.201004200,19,3(a),367,Pb1Se1,Pb1Se1,763,,,,1.2768,,,,
6006,10.1002/adma.201004200,19,3(a),367,Pb1Se1,Pb1Se1,763.5,,,,1.2771,,,,
6006,10.1002/adma.201004200,19,3(a),367,Pb1Se1,Pb1Se1,764,,,,1.2774,,,,
6006,10.1002/adma.201004200,19,3(a),367,Pb1Se1,Pb1Se1,764.5,,,,1.2777,,,,
6006,10.1002/adma.201004200,19,3(a),367,Pb1Se1,Pb1Se1,765,,,,1.278,,,,
6006,10.1002/adma.201004200,19,3(a),367,Pb1Se1,Pb1Se1,765.5,,,,1.2783,,,,
6006,10.1002/adma.201004200,19,3(a),367,Pb1Se1,Pb1Se1,766,,,,1.2787,,,,
6006,10.1002/adma.201004200,19,3(a),367,Pb1Se1,Pb1Se1,766.5,,,,1.279,,,,
6006,10.1002/adma.201004200,19,3(a),367,Pb1Se1,Pb1Se1,767,,,,1.2793,,,,
6006,10.1002/adma.201004200,19,3(a),367,Pb1Se1,Pb1Se1,767.5,,,,1.2796,,,,
6006,10.1002/adma.201004200,19,3(a),367,Pb1Se1,Pb1Se1,768,,,,1.2799,,,,
6006,10.1002/adma.201004200,19,3(a),367,Pb1Se1,Pb1Se1,768.5,,,,1.2802,,,,
6006,10.1002/adma.201004200,19,3(a),367,Pb1Se1,Pb1Se1,769,,,,1.2805,,,,
6006,10.1002/adma.201004200,19,3(a),367,Pb1Se1,Pb1Se1,769.5,,,,1.2808,,,,
6006,10.1002/adma.201004200,19,3(a),367,Pb1Se1,Pb1Se1,770,,,,1.2811,,,,
6006,10.1002/adma.201004200,19,3(a),367,Pb1Se1,Pb1Se1,770.5,,,,1.2814,,,,
6006,10.1002/adma.201004200,19,3(a),367,Pb1Se1,Pb1Se1,771,,,,1.2817,,,,
6006,10.1002/adma.201004200,19,3(a),367,Pb1Se1,Pb1Se1,771.5,,,,1.282,,,,
6006,10.1002/adma.201004200,19,3(a),367,Pb1Se1,Pb1Se1,772,,,,1.2823,,,,
6006,10.1002/adma.201004200,19,3(a),367,Pb1Se1,Pb1Se1,772.5,,,,1.2826,,,,
6006,10.1002/adma.201004200,19,3(a),367,Pb1Se1,Pb1Se1,773,,,,1.2829,,,,
6006,10.1002/adma.201004200,19,3(a),367,Pb1Se1,Pb1Se1,773.5,,,,1.2832,,,,
6006,10.1002/adma.201004200,19,3(a),367,Pb1Se1,Pb1Se1,774,,,,1.2835,,,,
6006,10.1002/adma.201004200,19,3(a),367,Pb1Se1,Pb1Se1,774.5,,,,1.2838,,,,
6006,10.1002/adma.201004200,19,3(a),367,Pb1Se1,Pb1Se1,775,,,,1.2841,,,,
6006,10.1002/adma.201004200,19,3(a),367,Pb1Se1,Pb1Se1,775.5,,,,1.2844,,,,
6006,10.1002/adma.201004200,19,3(a),367,Pb1Se1,Pb1Se1,776,,,,1.2847,,,,
6006,10.1002/adma.201004200,19,3(a),367,Pb1Se1,Pb1Se1,776.5,,,,1.285,,,,
6006,10.1002/adma.201004200,19,3(a),367,Pb1Se1,Pb1Se1,777,,,,1.2853,,,,
6006,10.1002/adma.201004200,19,3(a),367,Pb1Se1,Pb1Se1,777.5,,,,1.2856,,,,
6006,10.1002/adma.201004200,19,3(a),367,Pb1Se1,Pb1Se1,778,,,,1.2859,,,,
6006,10.1002/adma.201004200,19,3(a),367,Pb1Se1,Pb1Se1,778.5,,,,1.2862,,,,
6006,10.1002/adma.201004200,19,3(a),367,Pb1Se1,Pb1Se1,779,,,,1.2865,,,,
6006,10.1002/adma.201004200,19,3(a),367,Pb1Se1,Pb1Se1,779.5,,,,1.2868,,,,
6006,10.1002/adma.201004200,19,3(a),367,Pb1Se1,Pb1Se1,780,,,,1.2871,,,,
6006,10.1002/adma.201004200,19,3(a),367,Pb1Se1,Pb1Se1,780.5,,,,1.2874,,,,
6006,10.1002/adma.201004200,19,3(a),367,Pb1Se1,Pb1Se1,781,,,,1.2877,,,,
6006,10.1002/adma.201004200,19,3(a),367,Pb1Se1,Pb1Se1,781.5,,,,1.288,,,,
6006,10.1002/adma.201004200,19,3(a),367,Pb1Se1,Pb1Se1,782,,,,1.2882,,,,
6006,10.1002/adma.201004200,19,3(a),367,Pb1Se1,Pb1Se1,782.5,,,,1.2885,,,,
6006,10.1002/adma.201004200,19,3(a),367,Pb1Se1,Pb1Se1,783,,,,1.2888,,,,
6006,10.1002/adma.201004200,19,3(a),367,Pb1Se1,Pb1Se1,783.5,,,,1.2891,,,,
6006,10.1002/adma.201004200,19,3(a),367,Pb1Se1,Pb1Se1,784,,,,1.2894,,,,
6006,10.1002/adma.201004200,19,3(a),367,Pb1Se1,Pb1Se1,784.5,,,,1.2896,,,,
6006,10.1002/adma.201004200,19,3(a),367,Pb1Se1,Pb1Se1,785,,,,1.2899,,,,
6006,10.1002/adma.201004200,19,3(a),367,Pb1Se1,Pb1Se1,785.5,,,,1.2902,,,,
6006,10.1002/adma.201004200,19,3(a),367,Pb1Se1,Pb1Se1,786,,,,1.2905,,,,
6006,10.1002/adma.201004200,19,3(a),367,Pb1Se1,Pb1Se1,786.5,,,,1.2908,,,,
6006,10.1002/adma.201004200,19,3(a),367,Pb1Se1,Pb1Se1,787,,,,1.291,,,,
6006,10.1002/adma.201004200,19,3(a),367,Pb1Se1,Pb1Se1,787.5,,,,1.2913,,,,
6006,10.1002/adma.201004200,19,3(a),367,Pb1Se1,Pb1Se1,788,,,,1.2916,,,,
6006,10.1002/adma.201004200,19,3(a),367,Pb1Se1,Pb1Se1,788.5,,,,1.2919,,,,
6006,10.1002/adma.201004200,19,3(a),367,Pb1Se1,Pb1Se1,789,,,,1.2921,,,,
6006,10.1002/adma.201004200,19,3(a),367,Pb1Se1,Pb1Se1,789.5,,,,1.2924,,,,
6006,10.1002/adma.201004200,19,3(a),367,Pb1Se1,Pb1Se1,790,,,,1.2927,,,,
6006,10.1002/adma.201004200,19,3(a),367,Pb1Se1,Pb1Se1,790.5,,,,1.2929,,,,
6006,10.1002/adma.201004200,19,3(a),367,Pb1Se1,Pb1Se1,791,,,,1.2932,,,,
6006,10.1002/adma.201004200,19,3(a),367,Pb1Se1,Pb1Se1,791.5,,,,1.2934,,,,
6006,10.1002/adma.201004200,19,3(a),367,Pb1Se1,Pb1Se1,792,,,,1.2937,,,,
6006,10.1002/adma.201004200,19,3(a),367,Pb1Se1,Pb1Se1,792.5,,,,1.294,,,,
6006,10.1002/adma.201004200,19,3(a),367,Pb1Se1,Pb1Se1,793,,,,1.2942,,,,
6006,10.1002/adma.201004200,19,3(a),367,Pb1Se1,Pb1Se1,793.5,,,,1.2945,,,,
6006,10.1002/adma.201004200,19,3(a),367,Pb1Se1,Pb1Se1,794,,,,1.2947,,,,
6006,10.1002/adma.201004200,19,3(a),367,Pb1Se1,Pb1Se1,794.5,,,,1.295,,,,
6006,10.1002/adma.201004200,19,3(a),367,Pb1Se1,Pb1Se1,795,,,,1.2953,,,,
6006,10.1002/adma.201004200,19,3(a),367,Pb1Se1,Pb1Se1,795.5,,,,1.2955,,,,
6006,10.1002/adma.201004200,19,3(a),367,Pb1Se1,Pb1Se1,796,,,,1.2958,,,,
6006,10.1002/adma.201004200,19,3(a),367,Pb1Se1,Pb1Se1,796.5,,,,1.296,,,,
6006,10.1002/adma.201004200,19,3(a),367,Pb1Se1,Pb1Se1,797,,,,1.2963,,,,
6006,10.1002/adma.201004200,19,3(a),367,Pb1Se1,Pb1Se1,797.5,,,,1.2965,,,,
6006,10.1002/adma.201004200,19,3(a),367,Pb1Se1,Pb1Se1,798,,,,1.2967,,,,
6006,10.1002/adma.201004200,19,3(a),367,Pb1Se1,Pb1Se1,798.5,,,,1.297,,,,
6006,10.1002/adma.201004200,19,3(a),367,Pb1Se1,Pb1Se1,799,,,,1.2972,,,,
6006,10.1002/adma.201004200,19,3(a),367,Pb1Se1,Pb1Se1,799.5,,,,1.2975,,,,
6006,10.1002/adma.201004200,19,3(a),367,Pb1Se1,Pb1Se1,800,,,,1.2977,,,,
6006,10.1002/adma.201004200,19,3(a),367,Pb1Se1,Pb1Se1,800.5,,,,1.2979,,,,
6006,10.1002/adma.201004200,19,3(a),367,Pb1Se1,Pb1Se1,801,,,,1.2982,,,,
6006,10.1002/adma.201004200,19,3(a),367,Pb1Se1,Pb1Se1,801.5,,,,1.2984,,,,
6006,10.1002/adma.201004200,19,3(a),367,Pb1Se1,Pb1Se1,802,,,,1.2986,,,,
6006,10.1002/adma.201004200,19,3(a),367,Pb1Se1,Pb1Se1,802.5,,,,1.2989,,,,
6006,10.1002/adma.201004200,19,3(a),367,Pb1Se1,Pb1Se1,803,,,,1.2991,,,,
6006,10.1002/adma.201004200,19,3(a),367,Pb1Se1,Pb1Se1,803.5,,,,1.2993,,,,
6006,10.1002/adma.201004200,19,3(a),367,Pb1Se1,Pb1Se1,804,,,,1.2995,,,,
6006,10.1002/adma.201004200,19,3(a),367,Pb1Se1,Pb1Se1,804.5,,,,1.2998,,,,
6006,10.1002/adma.201004200,19,3(a),367,Pb1Se1,Pb1Se1,805,,,,1.3,,,,
6006,10.1002/adma.201004200,19,3(a),367,Pb1Se1,Pb1Se1,805.5,,,,1.3002,,,,
6006,10.1002/adma.201004200,19,3(a),367,Pb1Se1,Pb1Se1,806,,,,1.3004,,,,
6006,10.1002/adma.201004200,19,3(a),367,Pb1Se1,Pb1Se1,806.5,,,,1.3006,,,,
6006,10.1002/adma.201004200,19,3(a),367,Pb1Se1,Pb1Se1,807,,,,1.3008,,,,
6006,10.1002/adma.201004200,19,3(a),367,Pb1Se1,Pb1Se1,807.5,,,,1.301,,,,
6006,10.1002/adma.201004200,19,3(a),367,Pb1Se1,Pb1Se1,808,,,,1.3013,,,,
6006,10.1002/adma.201004200,19,3(a),367,Pb1Se1,Pb1Se1,808.5,,,,1.3015,,,,
6006,10.1002/adma.201004200,19,3(a),367,Pb1Se1,Pb1Se1,809,,,,1.3017,,,,
6006,10.1002/adma.201004200,19,3(a),367,Pb1Se1,Pb1Se1,809.5,,,,1.3019,,,,
6006,10.1002/adma.201004200,19,3(a),367,Pb1Se1,Pb1Se1,810,,,,1.3021,,,,
6006,10.1002/adma.201004200,19,3(a),367,Pb1Se1,Pb1Se1,810.5,,,,1.3023,,,,
6006,10.1002/adma.201004200,19,3(a),367,Pb1Se1,Pb1Se1,811,,,,1.3025,,,,
6006,10.1002/adma.201004200,19,3(a),367,Pb1Se1,Pb1Se1,811.5,,,,1.3027,,,,
6006,10.1002/adma.201004200,19,3(a),367,Pb1Se1,Pb1Se1,812,,,,1.3028,,,,
6006,10.1002/adma.201004200,19,3(a),367,Pb1Se1,Pb1Se1,812.5,,,,1.303,,,,
6006,10.1002/adma.201004200,19,3(a),367,Pb1Se1,Pb1Se1,813,,,,1.3032,,,,
6006,10.1002/adma.201004200,19,3(a),367,Pb1Se1,Pb1Se1,813.5,,,,1.3034,,,,
6006,10.1002/adma.201004200,19,3(a),367,Pb1Se1,Pb1Se1,814,,,,1.3036,,,,
6006,10.1002/adma.201004200,19,3(a),367,Pb1Se1,Pb1Se1,814.5,,,,1.3038,,,,
6006,10.1002/adma.201004200,19,3(a),367,Pb1Se1,Pb1Se1,815,,,,1.304,,,,
6006,10.1002/adma.201004200,19,3(a),367,Pb1Se1,Pb1Se1,815.5,,,,1.3041,,,,
6006,10.1002/adma.201004200,19,3(a),367,Pb1Se1,Pb1Se1,816,,,,1.3043,,,,
6006,10.1002/adma.201004200,19,3(a),367,Pb1Se1,Pb1Se1,816.5,,,,1.3045,,,,
6006,10.1002/adma.201004200,19,3(a),367,Pb1Se1,Pb1Se1,817,,,,1.3046,,,,
6006,10.1002/adma.201004200,19,3(a),367,Pb1Se1,Pb1Se1,817.5,,,,1.3048,,,,
6006,10.1002/adma.201004200,19,3(a),367,Pb1Se1,Pb1Se1,818,,,,1.305,,,,
6006,10.1002/adma.201004200,19,3(a),367,Pb1Se1,Pb1Se1,818.5,,,,1.3051,,,,
6006,10.1002/adma.201004200,19,3(a),367,Pb1Se1,Pb1Se1,819,,,,1.3053,,,,
6006,10.1002/adma.201004200,19,3(a),367,Pb1Se1,Pb1Se1,819.5,,,,1.3054,,,,
6006,10.1002/adma.201004200,19,3(a),367,Pb1Se1,Pb1Se1,820,,,,1.3056,,,,
6006,10.1002/adma.201004200,19,3(a),367,Pb1Se1,Pb1Se1,820.5,,,,1.3057,,,,
6006,10.1002/adma.201004200,19,3(a),367,Pb1Se1,Pb1Se1,821,,,,1.3059,,,,
6006,10.1002/adma.201004200,19,3(a),367,Pb1Se1,Pb1Se1,821.5,,,,1.306,,,,
6006,10.1002/adma.201004200,19,3(a),367,Pb1Se1,Pb1Se1,822,,,,1.3062,,,,
6006,10.1002/adma.201004200,19,3(a),367,Pb1Se1,Pb1Se1,822.5,,,,1.3063,,,,
6006,10.1002/adma.201004200,19,3(a),367,Pb1Se1,Pb1Se1,823,,,,1.3065,,,,
6006,10.1002/adma.201004200,19,3(a),367,Pb1Se1,Pb1Se1,823.5,,,,1.3066,,,,
6006,10.1002/adma.201004200,19,3(a),367,Pb1Se1,Pb1Se1,824,,,,1.3067,,,,
6006,10.1002/adma.201004200,19,3(a),367,Pb1Se1,Pb1Se1,824.5,,,,1.3069,,,,
6006,10.1002/adma.201004200,19,3(a),367,Pb1Se1,Pb1Se1,825,,,,1.307,,,,
6006,10.1002/adma.201004200,19,3(a),367,Pb1Se1,Pb1Se1,825.5,,,,1.3071,,,,