sid,DOI,figureid,fignum,sampleid,samplename,composition,Temperature,Carrier mobility,Electrical resistivity,Seebeck coefficient,Thermal conductivity,ZT,Electrical conductivity,Power factor,Figure of merit Z
6006,10.1002/adma.201004200,80,1(a),147,Na0.0035Pb0.9965Se1,Na0.0035Pb0.9965Se1,654.5,0.012294,0.000022083,0.00018906,1.179,0.7838,45283.7023955079,0.0016186063,0.0013728637
6006,10.1002/adma.201004200,80,1(a),147,Na0.0035Pb0.9965Se1,Na0.0035Pb0.9965Se1,655,0.012269,0.000022135,0.00018926,1.178,0.7848,45177.3209848656,0.0016182222,0.001373703
6006,10.1002/adma.201004200,80,1(a),147,Na0.0035Pb0.9965Se1,Na0.0035Pb0.9965Se1,655.5,0.012245,0.000022187,0.00018946,1.1771,0.7858,45071.4382295939,0.0016178434,0.0013744316
6006,10.1002/adma.201004200,80,1(a),147,Na0.0035Pb0.9965Se1,Na0.0035Pb0.9965Se1,656,0.012221,0.00002224,0.00018966,1.1762,0.78679,44964.0287769784,0.0016173973,0.001375104
6006,10.1002/adma.201004200,80,1(a),147,Na0.0035Pb0.9965Se1,Na0.0035Pb0.9965Se1,656.5,0.012197,0.000022293,0.00018986,1.1753,0.78779,44857.13004082,0.0016169569,0.0013757822
6006,10.1002/adma.201004200,80,1(a),147,Na0.0035Pb0.9965Se1,Na0.0035Pb0.9965Se1,657,0.012173,0.000022346,0.00019006,1.1744,0.78879,44750.7383871834,0.0016165221,0.0013764664
6006,10.1002/adma.201004200,80,1(a),147,Na0.0035Pb0.9965Se1,Na0.0035Pb0.9965Se1,657.5,0.012149,0.000022399,0.00019026,1.1735,0.78978,44644.8502165275,0.001616093,0.0013771564
6006,10.1002/adma.201004200,80,1(a),147,Na0.0035Pb0.9965Se1,Na0.0035Pb0.9965Se1,658,0.012124,0.000022452,0.00019046,1.1726,0.79078,44539.4619632995,0.0016156695,0.0013778522
6006,10.1002/adma.201004200,80,1(a),147,Na0.0035Pb0.9965Se1,Na0.0035Pb0.9965Se1,658.5,0.0121,0.000022505,0.00019065,1.1717,0.79177,44434.5700955343,0.0016150821,0.0013784092
6006,10.1002/adma.201004200,80,1(a),147,Na0.0035Pb0.9965Se1,Na0.0035Pb0.9965Se1,659,0.012076,0.000022559,0.00019085,1.1708,0.79277,44328.2060375017,0.0016145983,0.0013790556
6006,10.1002/adma.201004200,80,1(a),147,Na0.0035Pb0.9965Se1,Na0.0035Pb0.9965Se1,659.5,0.012052,0.000022612,0.00019105,1.1699,0.79377,44224.3056784009,0.0016141917,0.0013797689
6006,10.1002/adma.201004200,80,1(a),147,Na0.0035Pb0.9965Se1,Na0.0035Pb0.9965Se1,660,0.012028,0.000022666,0.00019125,1.1691,0.79476,44118.9446748434,0.0016137193,0.0013803091
6006,10.1002/adma.201004200,80,1(a),147,Na0.0035Pb0.9965Se1,Na0.0035Pb0.9965Se1,660.5,0.012004,0.00002272,0.00019146,1.1682,0.79576,44014.0845070423,0.0016134213,0.0013811173
6006,10.1002/adma.201004200,80,1(a),147,Na0.0035Pb0.9965Se1,Na0.0035Pb0.9965Se1,661,0.011979,0.000022774,0.00019166,1.1673,0.79675,43909.721612365,0.0016129602,0.0013817872
6006,10.1002/adma.201004200,80,1(a),147,Na0.0035Pb0.9965Se1,Na0.0035Pb0.9965Se1,661.5,0.011955,0.000022828,0.00019186,1.1664,0.79775,43805.8524618889,0.0016125048,0.001382463
6006,10.1002/adma.201004200,80,1(a),147,Na0.0035Pb0.9965Se1,Na0.0035Pb0.9965Se1,662,0.011931,0.000022883,0.00019206,1.1656,0.79875,43700.5637372722,0.0016119846,0.0013829655
6006,10.1002/adma.201004200,80,1(a),147,Na0.0035Pb0.9965Se1,Na0.0035Pb0.9965Se1,662.5,0.011907,0.000022937,0.00019226,1.1647,0.79974,43597.6806033919,0.0016115406,0.001383653
6006,10.1002/adma.201004200,80,1(a),147,Na0.0035Pb0.9965Se1,Na0.0035Pb0.9965Se1,663,0.011883,0.000022992,0.00019246,1.1638,0.80074,43493.3890048713,0.0016110322,0.0013842861
6006,10.1002/adma.201004200,80,1(a),147,Na0.0035Pb0.9965Se1,Na0.0035Pb0.9965Se1,663.5,0.011858,0.000023047,0.00019266,1.163,0.80173,43389.595175077,0.0016105296,0.0013848062
6006,10.1002/adma.201004200,80,1(a),147,Na0.0035Pb0.9965Se1,Na0.0035Pb0.9965Se1,664,0.011834,0.000023102,0.00019286,1.1621,0.80273,43286.2955588261,0.0016100329,0.0013854512
6006,10.1002/adma.201004200,80,1(a),147,Na0.0035Pb0.9965Se1,Na0.0035Pb0.9965Se1,664.5,0.01181,0.000023157,0.00019306,1.1613,0.80373,43183.4866347109,0.001609542,0.0013859829
6006,10.1002/adma.201004200,80,1(a),147,Na0.0035Pb0.9965Se1,Na0.0035Pb0.9965Se1,665,0.011786,0.000023212,0.00019326,1.1604,0.80472,43081.1649146993,0.0016090568,0.0013866398
6006,10.1002/adma.201004200,80,1(a),147,Na0.0035Pb0.9965Se1,Na0.0035Pb0.9965Se1,665.5,0.011762,0.000023268,0.00019346,1.1596,0.80572,42977.4798005845,0.0016085083,0.0013871234
6006,10.1002/adma.201004200,80,1(a),147,Na0.0035Pb0.9965Se1,Na0.0035Pb0.9965Se1,666,0.011738,0.000023323,0.00019366,1.1587,0.80672,42876.1308579514,0.0016080348,0.0013877922
6006,10.1002/adma.201004200,80,1(a),147,Na0.0035Pb0.9965Se1,Na0.0035Pb0.9965Se1,666.5,0.011713,0.000023379,0.00019386,1.1579,0.80771,42773.4291458146,0.0016074982,0.0013882876
6006,10.1002/adma.201004200,80,1(a),147,Na0.0035Pb0.9965Se1,Na0.0035Pb0.9965Se1,667,0.011689,0.000023435,0.00019406,1.1571,0.80871,42671.2182632814,0.0016069675,0.0013887888
6006,10.1002/adma.201004200,80,1(a),147,Na0.0035Pb0.9965Se1,Na0.0035Pb0.9965Se1,667.5,0.011665,0.000023491,0.00019426,1.1562,0.8097,42569.4947000979,0.0016064428,0.001389416
6006,10.1002/adma.201004200,80,1(a),147,Na0.0035Pb0.9965Se1,Na0.0035Pb0.9965Se1,668,0.011641,0.000023547,0.00019446,1.1554,0.8107,42468.2549794029,0.001605924,0.001389929
6006,10.1002/adma.201004200,80,1(a),147,Na0.0035Pb0.9965Se1,Na0.0035Pb0.9965Se1,668.5,0.011617,0.000023604,0.00019466,1.1546,0.8117,42365.7007286901,0.001605343,0.0013903889
6006,10.1002/adma.201004200,80,1(a),147,Na0.0035Pb0.9965Se1,Na0.0035Pb0.9965Se1,669,0.011593,0.00002366,0.00019486,1.1537,0.81269,42265.4268808115,0.001604836,0.0013910341
6006,10.1002/adma.201004200,80,1(a),147,Na0.0035Pb0.9965Se1,Na0.0035Pb0.9965Se1,669.5,0.011568,0.000023717,0.00019507,1.1529,0.81369,42163.8487161108,0.0016044316,0.0013916486
6006,10.1002/adma.201004200,80,1(a),147,Na0.0035Pb0.9965Se1,Na0.0035Pb0.9965Se1,670,0.011544,0.000023774,0.00019527,1.1521,0.81468,42062.7576343905,0.0016038686,0.0013921262
6006,10.1002/adma.201004200,80,1(a),147,Na0.0035Pb0.9965Se1,Na0.0035Pb0.9965Se1,670.5,0.01152,0.000023831,0.00019547,1.1513,0.81568,41962.1501405732,0.0016033117,0.0013926098
6006,10.1002/adma.201004200,80,1(a),147,Na0.0035Pb0.9965Se1,Na0.0035Pb0.9965Se1,671,0.011496,0.000023888,0.00019567,1.1505,0.81668,41862.0227729404,0.0016027608,0.0013930993
6006,10.1002/adma.201004200,80,1(a),147,Na0.0035Pb0.9965Se1,Na0.0035Pb0.9965Se1,671.5,0.011472,0.000023945,0.00019587,1.1497,0.81767,41762.3721027354,0.0016022158,0.0013935947
6006,10.1002/adma.201004200,80,1(a),147,Na0.0035Pb0.9965Se1,Na0.0035Pb0.9965Se1,672,0.011447,0.000024002,0.00019607,1.1489,0.81867,41663.1947337722,0.0016016767,0.0013940959
6006,10.1002/adma.201004200,80,1(a),147,Na0.0035Pb0.9965Se1,Na0.0035Pb0.9965Se1,672.5,0.011423,0.00002406,0.00019627,1.1481,0.81966,41562.7597672485,0.001601077,0.0013945449
6006,10.1002/adma.201004200,80,1(a),147,Na0.0035Pb0.9965Se1,Na0.0035Pb0.9965Se1,673,0.011399,0.000024118,0.00019647,1.1473,0.82066,41462.8078613484,0.0016004835,0.001395
6006,10.1002/adma.201004200,80,1(a),147,Na0.0035Pb0.9965Se1,Na0.0035Pb0.9965Se1,673.5,0.011375,0.000024176,0.00019667,1.1465,0.82166,41363.3355393779,0.0015998961,0.0013954611
6006,10.1002/adma.201004200,80,1(a),147,Na0.0035Pb0.9965Se1,Na0.0035Pb0.9965Se1,674,0.011351,0.000024234,0.00019688,1.1457,0.82265,41264.3393579269,0.0015994774,0.00139607
6006,10.1002/adma.201004200,80,1(a),147,Na0.0035Pb0.9965Se1,Na0.0035Pb0.9965Se1,674.5,0.011327,0.000024292,0.00019708,1.1449,0.82365,41165.8159064713,0.001598902,0.0013965429
6006,10.1002/adma.201004200,80,1(a),147,Na0.0035Pb0.9965Se1,Na0.0035Pb0.9965Se1,675,0.011302,0.00002435,0.00019728,1.1441,0.82465,41067.7618069815,0.0015983326,0.0013970217
6006,10.1002/adma.201004200,80,1(a),147,Na0.0035Pb0.9965Se1,Na0.0035Pb0.9965Se1,675.5,0.011278,0.000024409,0.00019748,1.1434,0.82564,40968.4952271703,0.0015977037,0.001397327
6006,10.1002/adma.201004200,80,1(a),147,Na0.0035Pb0.9965Se1,Na0.0035Pb0.9965Se1,676,0.011254,0.000024467,0.00019768,1.1426,0.82664,40871.3777741448,0.0015971465,0.0013978177
6006,10.1002/adma.201004200,80,1(a),147,Na0.0035Pb0.9965Se1,Na0.0035Pb0.9965Se1,676.5,0.01123,0.000024526,0.00019788,1.1418,0.82763,40773.0571638261,0.00159653,0.0013982571
6006,10.1002/adma.201004200,80,1(a),147,Na0.0035Pb0.9965Se1,Na0.0035Pb0.9965Se1,677,0.011206,0.000024585,0.00019808,1.141,0.82863,40675.2084604434,0.0015959197,0.0013987026
6006,10.1002/adma.201004200,80,1(a),147,Na0.0035Pb0.9965Se1,Na0.0035Pb0.9965Se1,677.5,0.011182,0.000024644,0.00019829,1.1403,0.82963,40577.8282746307,0.0015954766,0.0013991726
6006,10.1002/adma.201004200,80,1(a),147,Na0.0035Pb0.9965Se1,Na0.0035Pb0.9965Se1,678,0.011157,0.000024704,0.00019849,1.1395,0.83062,40479.274611399,0.0015948138,0.0013995733
6006,10.1002/adma.201004200,80,1(a),147,Na0.0035Pb0.9965Se1,Na0.0035Pb0.9965Se1,678.5,0.011133,0.000024763,0.00019869,1.1388,0.83162,40382.8292210152,0.0015942219,0.0013999138
6006,10.1002/adma.201004200,80,1(a),147,Na0.0035Pb0.9965Se1,Na0.0035Pb0.9965Se1,679,0.011109,0.000024823,0.00019889,1.138,0.83261,40285.2193530194,0.0015935718,0.0014003267
6006,10.1002/adma.201004200,80,1(a),147,Na0.0035Pb0.9965Se1,Na0.0035Pb0.9965Se1,679.5,0.011085,0.000024883,0.00019909,1.1373,0.83361,40188.0802154081,0.001592928,0.0014006226
6006,10.1002/adma.201004200,80,1(a),147,Na0.0035Pb0.9965Se1,Na0.0035Pb0.9965Se1,680,0.011061,0.000024943,0.00019929,1.1365,0.83461,40091.4084111775,0.0015922906,0.0014010476
6006,10.1002/adma.201004200,80,1(a),147,Na0.0035Pb0.9965Se1,Na0.0035Pb0.9965Se1,680.5,0.011036,0.000025003,0.0001995,1.1358,0.8356,39995.2005759309,0.001591819,0.0014014958
6006,10.1002/adma.201004200,80,1(a),147,Na0.0035Pb0.9965Se1,Na0.0035Pb0.9965Se1,681,0.011012,0.000025063,0.0001997,1.135,0.8366,39899.4533774887,0.0015911938,0.0014019329
6006,10.1002/adma.201004200,80,1(a),147,Na0.0035Pb0.9965Se1,Na0.0035Pb0.9965Se1,681.5,0.010988,0.000025123,0.0001999,1.1343,0.83759,39804.1635155037,0.0015905748,0.0014022523
6006,10.1002/adma.201004200,80,1(a),147,Na0.0035Pb0.9965Se1,Na0.0035Pb0.9965Se1,682,0.010964,0.000025184,0.0002001,1.1336,0.83859,39707.750952986,0.0015898987,0.0014025218
6006,10.1002/adma.201004200,80,1(a),147,Na0.0035Pb0.9965Se1,Na0.0035Pb0.9965Se1,682.5,0.01094,0.000025245,0.0002003,1.1328,0.83959,39611.8043176867,0.0015892292,0.0014029212
6006,10.1002/adma.201004200,80,1(a),147,Na0.0035Pb0.9965Se1,Na0.0035Pb0.9965Se1,683,0.010916,0.000025306,0.0002005,1.1321,0.84058,39516.3202402592,0.001588566,0.0014032029
6006,10.1002/adma.201004200,80,1(a),147,Na0.0035Pb0.9965Se1,Na0.0035Pb0.9965Se1,683.5,0.010891,0.000025367,0.00020071,1.1314,0.84158,39421.2953837663,0.0015880673,0.0014036303
6006,10.1002/adma.201004200,80,1(a),147,Na0.0035Pb0.9965Se1,Na0.0035Pb0.9965Se1,684,0.010867,0.000025428,0.00020091,1.1307,0.84258,39326.7264432909,0.0015874166,0.0014039237
6006,10.1002/adma.201004200,80,1(a),147,Na0.0035Pb0.9965Se1,Na0.0035Pb0.9965Se1,684.5,0.010843,0.000025489,0.00020111,1.13,0.84357,39232.610145553,0.001586772,0.001404223
6006,10.1002/adma.201004200,80,1(a),147,Na0.0035Pb0.9965Se1,Na0.0035Pb0.9965Se1,685,0.010819,0.000025551,0.00020131,1.1292,0.84457,39137.4114516066,0.0015860716,0.0014045976
6006,10.1002/adma.201004200,80,1(a),147,Na0.0035Pb0.9965Se1,Na0.0035Pb0.9965Se1,685.5,0.010795,0.000025613,0.00020151,1.1285,0.84556,39042.673642291,0.0015853777,0.001404854
6006,10.1002/adma.201004200,80,1(a),147,Na0.0035Pb0.9965Se1,Na0.0035Pb0.9965Se1,686,0.010771,0.000025675,0.00020171,1.1278,0.84656,38948.3933787731,0.0015846903,0.0014051164
6006,10.1002/adma.201004200,80,1(a),147,Na0.0035Pb0.9965Se1,Na0.0035Pb0.9965Se1,686.5,0.010746,0.000025737,0.00020192,1.1271,0.84756,38854.5673543925,0.0015841662,0.0014055241
6006,10.1002/adma.201004200,80,1(a),147,Na0.0035Pb0.9965Se1,Na0.0035Pb0.9965Se1,687,0.010722,0.000025799,0.00020212,1.1264,0.84855,38761.192294275,0.0015834914,0.0014057985
6006,10.1002/adma.201004200,80,1(a),147,Na0.0035Pb0.9965Se1,Na0.0035Pb0.9965Se1,687.5,0.010698,0.000025861,0.00020232,1.1257,0.84955,38668.2649549515,0.0015828229,0.0014060788
6006,10.1002/adma.201004200,80,1(a),147,Na0.0035Pb0.9965Se1,Na0.0035Pb0.9965Se1,688,0.010674,0.000025924,0.00020252,1.1251,0.85054,38574.2940904181,0.0015820996,0.0014061858
6006,10.1002/adma.201004200,80,1(a),147,Na0.0035Pb0.9965Se1,Na0.0035Pb0.9965Se1,688.5,0.01065,0.000025986,0.00020272,1.1244,0.85154,38482.2596782883,0.0015814438,0.0014064779
6006,10.1002/adma.201004200,80,1(a),147,Na0.0035Pb0.9965Se1,Na0.0035Pb0.9965Se1,689,0.010625,0.000026049,0.00020292,1.1237,0.85254,38389.1896042075,0.0015807335,0.001406722
6006,10.1002/adma.201004200,80,1(a),147,Na0.0035Pb0.9965Se1,Na0.0035Pb0.9965Se1,689.5,0.010601,0.000026112,0.00020313,1.123,0.85353,38296.568627451,0.0015801852,0.0014071106
6006,10.1002/adma.201004200,80,1(a),147,Na0.0035Pb0.9965Se1,Na0.0035Pb0.9965Se1,690,0.010577,0.000026176,0.00020333,1.1223,0.85453,38202.9339853301,0.0015794273,0.0014073129
6006,10.1002/adma.201004200,80,1(a),147,Na0.0035Pb0.9965Se1,Na0.0035Pb0.9965Se1,690.5,0.010553,0.000026239,0.00020353,1.1217,0.85552,38111.2085064217,0.0015787363,0.0014074496
6006,10.1002/adma.201004200,80,1(a),147,Na0.0035Pb0.9965Se1,Na0.0035Pb0.9965Se1,691,0.010529,0.000026302,0.00020373,1.121,0.85652,38019.9224393582,0.0015780516,0.0014077177
6006,10.1002/adma.201004200,80,1(a),147,Na0.0035Pb0.9965Se1,Na0.0035Pb0.9965Se1,691.5,0.010505,0.000026366,0.00020393,1.1203,0.85752,37927.6340741864,0.0015773134,0.0014079384
6006,10.1002/adma.201004200,80,1(a),147,Na0.0035Pb0.9965Se1,Na0.0035Pb0.9965Se1,692,0.01048,0.00002643,0.00020413,1.1197,0.85851,37835.7926598562,0.0015765818,0.0014080395
6006,10.1002/adma.201004200,80,1(a),147,Na0.0035Pb0.9965Se1,Na0.0035Pb0.9965Se1,692.5,0.010456,0.000026494,0.00020434,1.119,0.85951,37744.3949573488,0.001576011,0.0014084102
6006,10.1002/adma.201004200,80,1(a),147,Na0.0035Pb0.9965Se1,Na0.0035Pb0.9965Se1,693,0.010432,0.000026558,0.00020454,1.1183,0.86051,37653.4377588674,0.0015752923,0.0014086491
6006,10.1002/adma.201004200,80,1(a),147,Na0.0035Pb0.9965Se1,Na0.0035Pb0.9965Se1,693.5,0.010408,0.000026623,0.00020474,1.1177,0.8615,37561.5069676595,0.0015745208,0.0014087151
6006,10.1002/adma.201004200,80,1(a),147,Na0.0035Pb0.9965Se1,Na0.0035Pb0.9965Se1,694,0.010384,0.000026687,0.00020494,1.117,0.8625,37471.4280361225,0.0015738151,0.0014089661
6006,10.1002/adma.201004200,80,1(a),147,Na0.0035Pb0.9965Se1,Na0.0035Pb0.9965Se1,694.5,0.01036,0.000026752,0.00020514,1.1164,0.86349,37380.3827751196,0.001573057,0.0014090442
6006,10.1002/adma.201004200,80,1(a),147,Na0.0035Pb0.9965Se1,Na0.0035Pb0.9965Se1,695,0.010335,0.000026817,0.00020534,1.1158,0.86449,37289.7788716113,0.0015723055,0.0014091284
6006,10.1002/adma.201004200,80,1(a),147,Na0.0035Pb0.9965Se1,Na0.0035Pb0.9965Se1,695.5,0.010311,0.000026882,0.00020554,1.1151,0.86549,37199.6131240235,0.0015715606,0.001409345
6006,10.1002/adma.201004200,80,1(a),147,Na0.0035Pb0.9965Se1,Na0.0035Pb0.9965Se1,696,0.010287,0.000026947,0.00020575,1.1145,0.86648,37109.8823616729,0.001570975,0.0014095783
6006,10.1002/adma.201004200,80,1(a),147,Na0.0035Pb0.9965Se1,Na0.0035Pb0.9965Se1,696.5,0.010263,0.000027012,0.00020595,1.1139,0.86748,37020.5834443951,0.0015702429,0.0014096804
6006,10.1002/adma.201004200,80,1(a),147,Na0.0035Pb0.9965Se1,Na0.0035Pb0.9965Se1,697,0.010239,0.000027078,0.00020615,1.1132,0.86847,36930.349361105,0.0015694594,0.0014098629
6006,10.1002/adma.201004200,80,1(a),147,Na0.0035Pb0.9965Se1,Na0.0035Pb0.9965Se1,697.5,0.010214,0.000027144,0.00020635,1.1126,0.86947,36840.5540819334,0.0015686827,0.0014099251
6006,10.1002/adma.201004200,80,1(a),147,Na0.0035Pb0.9965Se1,Na0.0035Pb0.9965Se1,698,0.01019,0.000027209,0.00020655,1.112,0.87047,36752.5451137491,0.0015679702,0.0014100452
6006,10.1002/adma.201004200,80,1(a),147,Na0.0035Pb0.9965Se1,Na0.0035Pb0.9965Se1,698.5,0.010166,0.000027276,0.00020675,1.1114,0.87146,36662.2671946033,0.0015671492,0.0014100677
6006,10.1002/adma.201004200,80,1(a),147,Na0.0035Pb0.9965Se1,Na0.0035Pb0.9965Se1,699,0.010142,0.000027342,0.00020695,1.1108,0.87246,36573.7692926633,0.0015663925,0.0014101481
6006,10.1002/adma.201004200,80,1(a),147,Na0.0035Pb0.9965Se1,Na0.0035Pb0.9965Se1,699.5,0.010118,0.000027408,0.00020715,1.1102,0.87346,36485.6976065382,0.0015656422,0.0014102344
6006,10.1002/adma.201004200,80,1(a),147,Na0.0035Pb0.9965Se1,Na0.0035Pb0.9965Se1,700,0.010094,0.000027475,0.00020735,1.1096,0.87445,36396.7242948135,0.0015648416,0.0014102754
6006,10.1002/adma.201004200,80,1(a),147,Na0.0035Pb0.9965Se1,Na0.0035Pb0.9965Se1,700.5,0.010069,0.000027541,0.00020756,1.109,0.87545,36309.5021967249,0.0015642552,0.0014105097
6006,10.1002/adma.201004200,80,1(a),147,Na0.0035Pb0.9965Se1,Na0.0035Pb0.9965Se1,701,0.010045,0.000027608,0.00020776,1.1084,0.87644,36221.3851057664,0.0015634677,0.0014105627
6006,10.1002/adma.201004200,80,1(a),147,Na0.0035Pb0.9965Se1,Na0.0035Pb0.9965Se1,701.5,0.010021,0.000027675,0.00020796,1.1078,0.87744,36133.69467028,0.001562687,0.0014106219
6006,10.1002/adma.201004200,80,1(a),147,Na0.0035Pb0.9965Se1,Na0.0035Pb0.9965Se1,702,0.0099969,0.000027743,0.00020816,1.1072,0.87844,36045.1285008831,0.0015618565,0.0014106363
6006,10.1002/adma.201004200,80,1(a),147,Na0.0035Pb0.9965Se1,Na0.0035Pb0.9965Se1,702.5,0.0099727,0.00002781,0.00020836,1.1066,0.87943,35958.2883854728,0.0015610892,0.0014107077
6006,10.1002/adma.201004200,80,1(a),147,Na0.0035Pb0.9965Se1,Na0.0035Pb0.9965Se1,703,0.0099485,0.000027878,0.00020856,1.106,0.88043,35870.5789511443,0.0015602724,0.0014107345
6006,10.1002/adma.201004200,80,1(a),147,Na0.0035Pb0.9965Se1,Na0.0035Pb0.9965Se1,703.5,0.0099243,0.000027945,0.00020876,1.1054,0.88142,35784.5768473788,0.0015595183,0.001410818
6006,10.1002/adma.201004200,80,1(a),147,Na0.0035Pb0.9965Se1,Na0.0035Pb0.9965Se1,704,0.0099002,0.000028013,0.00020896,1.1048,0.88242,35697.7117766751,0.0015587149,0.0014108571
6006,10.1002/adma.201004200,80,1(a),147,Na0.0035Pb0.9965Se1,Na0.0035Pb0.9965Se1,704.5,0.009876,0.000028081,0.00020916,1.1043,0.88342,35611.2674050069,0.0015579184,0.0014107746
6006,10.1002/adma.201004200,80,1(a),147,Na0.0035Pb0.9965Se1,Na0.0035Pb0.9965Se1,705,0.0098518,0.00002815,0.00020936,1.1037,0.88441,35523.9786856128,0.0015570732,0.0014107757
6006,10.1002/adma.201004200,80,1(a),147,Na0.0035Pb0.9965Se1,Na0.0035Pb0.9965Se1,705.5,0.0098276,0.000028218,0.00020956,1.1031,0.88541,35438.372669927,0.0015562901,0.0014108332
6006,10.1002/adma.201004200,80,1(a),147,Na0.0035Pb0.9965Se1,Na0.0035Pb0.9965Se1,706,0.0098034,0.000028287,0.00020976,1.1026,0.8864,35351.9284476968,0.0015554586,0.0014107189
6006,10.1002/adma.201004200,80,1(a),147,Na0.0035Pb0.9965Se1,Na0.0035Pb0.9965Se1,706.5,0.0097793,0.000028356,0.00020996,1.102,0.8874,35265.9049231203,0.001554634,0.0014107387
6006,10.1002/adma.201004200,80,1(a),147,Na0.0035Pb0.9965Se1,Na0.0035Pb0.9965Se1,707,0.0097551,0.000028424,0.00021016,1.1015,0.8884,35181.5367295243,0.0015538709,0.0014106862
6006,10.1002/adma.201004200,80,1(a),147,Na0.0035Pb0.9965Se1,Na0.0035Pb0.9965Se1,707.5,0.0097309,0.000028494,0.00021036,1.1009,0.88939,35095.1077419808,0.0015530052,0.0014106687
6006,10.1002/adma.201004200,80,1(a),147,Na0.0035Pb0.9965Se1,Na0.0035Pb0.9965Se1,708,0.0097067,0.000028563,0.00021056,1.1004,0.89039,35010.3280467738,0.0015522009,0.0014105788
6006,10.1002/adma.201004200,80,1(a),147,Na0.0035Pb0.9965Se1,Na0.0035Pb0.9965Se1,708.5,0.0096826,0.000028632,0.00021076,1.0998,0.89139,34925.956971221,0.0015514032,0.0014106231
6006,10.1002/adma.201004200,80,1(a),147,Na0.0035Pb0.9965Se1,Na0.0035Pb0.9965Se1,709,0.0096584,0.000028702,0.00021096,1.0993,0.89238,34840.7776461571,0.0015505582,0.001410496
6006,10.1002/adma.201004200,80,1(a),147,Na0.0035Pb0.9965Se1,Na0.0035Pb0.9965Se1,709.5,0.0096342,0.000028772,0.00021116,1.0987,0.89338,34756.0127902127,0.0015497201,0.0014105034
6006,10.1002/adma.201004200,80,1(a),147,Na0.0035Pb0.9965Se1,Na0.0035Pb0.9965Se1,710,0.00961,0.000028842,0.00021136,1.0982,0.89437,34671.6593856182,0.0015488888,0.0014103886
6006,10.1002/adma.201004200,80,1(a),147,Na0.0035Pb0.9965Se1,Na0.0035Pb0.9965Se1,710.5,0.0095859,0.000028912,0.00021156,1.0977,0.89537,34587.7144438296,0.0015480643,0.0014102799