sid,DOI,figureid,fignum,sampleid,samplename,composition,Temperature,Carrier mobility,Electrical resistivity,Seebeck coefficient,Thermal conductivity,ZT,Electrical conductivity,Power factor,Figure of merit Z
6006,10.1002/adma.201004200,80,1(a),102,Na0.025Pb0.975Se1,Na0.025Pb0.975Se1,458.5,0.0059591,0.0000049907,0.000042642,3.0995,0.12665,200372.6932093694,0.0003643457,0.0001175498
6006,10.1002/adma.201004200,80,1(a),102,Na0.025Pb0.975Se1,Na0.025Pb0.975Se1,459,0.005955,0.0000049959,0.000042775,3.0967,0.12757,200164.1345903641,0.0003662404,0.000118268
6006,10.1002/adma.201004200,80,1(a),102,Na0.025Pb0.975Se1,Na0.025Pb0.975Se1,459.5,0.0059508,0.0000050011,0.000042908,3.094,0.12849,199956.0096778709,0.0003681383,0.0001189846
6006,10.1002/adma.201004200,80,1(a),102,Na0.025Pb0.975Se1,Na0.025Pb0.975Se1,460,0.0059467,0.0000050063,0.000043041,3.0912,0.12941,199748.3171204283,0.0003700393,0.0001197073
6006,10.1002/adma.201004200,80,1(a),102,Na0.025Pb0.975Se1,Na0.025Pb0.975Se1,460.5,0.0059426,0.0000050115,0.000043174,3.0885,0.13033,199541.055572184,0.0003719434,0.0001204285
6006,10.1002/adma.201004200,80,1(a),102,Na0.025Pb0.975Se1,Na0.025Pb0.975Se1,461,0.0059384,0.0000050167,0.000043307,3.0857,0.13126,199334.2236928658,0.0003738506,0.0001211558
6006,10.1002/adma.201004200,80,1(a),102,Na0.025Pb0.975Se1,Na0.025Pb0.975Se1,461.5,0.0059343,0.0000050219,0.000043441,3.083,0.13218,199127.8201477528,0.0003757782,0.0001218872
6006,10.1002/adma.201004200,80,1(a),102,Na0.025Pb0.975Se1,Na0.025Pb0.975Se1,462,0.0059302,0.0000050271,0.000043574,3.0803,0.1331,198921.8436076466,0.0003776916,0.0001226152
6006,10.1002/adma.201004200,80,1(a),102,Na0.025Pb0.975Se1,Na0.025Pb0.975Se1,462.5,0.005926,0.0000050323,0.000043707,3.0775,0.13402,198716.2927488425,0.0003796081,0.0001233495
6006,10.1002/adma.201004200,80,1(a),102,Na0.025Pb0.975Se1,Na0.025Pb0.975Se1,463,0.0059219,0.0000050375,0.000043841,3.0748,0.13494,198511.1662531018,0.0003815451,0.0001240878
6006,10.1002/adma.201004200,80,1(a),102,Na0.025Pb0.975Se1,Na0.025Pb0.975Se1,463.5,0.0059177,0.0000050427,0.000043974,3.072,0.13586,198306.4628076229,0.0003834677,0.0001248267
6006,10.1002/adma.201004200,80,1(a),102,Na0.025Pb0.975Se1,Na0.025Pb0.975Se1,464,0.0059136,0.0000050479,0.000044108,3.0693,0.13678,198102.1811050139,0.0003854109,0.0001255696
6006,10.1002/adma.201004200,80,1(a),102,Na0.025Pb0.975Se1,Na0.025Pb0.975Se1,464.5,0.0059095,0.0000050532,0.000044242,3.0666,0.1377,197894.4035462677,0.0003873495,0.0001263124
6006,10.1002/adma.201004200,80,1(a),102,Na0.025Pb0.975Se1,Na0.025Pb0.975Se1,465,0.0059053,0.0000050584,0.000044375,3.0639,0.13862,197690.9694765143,0.0003892813,0.0001270542
6006,10.1002/adma.201004200,80,1(a),102,Na0.025Pb0.975Se1,Na0.025Pb0.975Se1,465.5,0.0059012,0.0000050636,0.000044509,3.0611,0.13954,197487.9532348527,0.0003912337,0.0001278082
6006,10.1002/adma.201004200,80,1(a),102,Na0.025Pb0.975Se1,Na0.025Pb0.975Se1,466,0.0058971,0.0000050688,0.000044643,3.0584,0.14046,197285.3535353536,0.0003931892,0.0001285604
6006,10.1002/adma.201004200,80,1(a),102,Na0.025Pb0.975Se1,Na0.025Pb0.975Se1,466.5,0.0058929,0.0000050741,0.000044777,3.0557,0.14138,197079.284996354,0.00039514,0.0001293124
6006,10.1002/adma.201004200,80,1(a),102,Na0.025Pb0.975Se1,Na0.025Pb0.975Se1,467,0.0058888,0.0000050793,0.000044911,3.053,0.14231,196877.522493257,0.0003971016,0.0001300693
6006,10.1002/adma.201004200,80,1(a),102,Na0.025Pb0.975Se1,Na0.025Pb0.975Se1,467.5,0.0058847,0.0000050845,0.000045045,3.0503,0.14323,196676.1726816796,0.0003990662,0.0001308285
6006,10.1002/adma.201004200,80,1(a),102,Na0.025Pb0.975Se1,Na0.025Pb0.975Se1,468,0.0058805,0.0000050898,0.000045179,3.0475,0.14415,196471.3741207906,0.000401026,0.0001315918
6006,10.1002/adma.201004200,80,1(a),102,Na0.025Pb0.975Se1,Na0.025Pb0.975Se1,468.5,0.0058764,0.000005095,0.000045313,3.0448,0.14507,196270.8537782139,0.0004029967,0.0001323557
6006,10.1002/adma.201004200,80,1(a),102,Na0.025Pb0.975Se1,Na0.025Pb0.975Se1,469,0.0058723,0.0000051003,0.000045447,3.0421,0.14599,196066.8980256063,0.0004049624,0.0001331194
6006,10.1002/adma.201004200,80,1(a),102,Na0.025Pb0.975Se1,Na0.025Pb0.975Se1,469.5,0.0058681,0.0000051055,0.000045581,3.0394,0.14691,195867.2020370189,0.0004069391,0.000133888
6006,10.1002/adma.201004200,80,1(a),102,Na0.025Pb0.975Se1,Na0.025Pb0.975Se1,470,0.005864,0.0000051108,0.000045716,3.0367,0.14783,195664.0839007592,0.0004089287,0.0001346622
6006,10.1002/adma.201004200,80,1(a),102,Na0.025Pb0.975Se1,Na0.025Pb0.975Se1,470.5,0.0058598,0.000005116,0.00004585,3.034,0.14875,195465.2071931196,0.0004109114,0.0001354355
6006,10.1002/adma.201004200,80,1(a),102,Na0.025Pb0.975Se1,Na0.025Pb0.975Se1,471,0.0058557,0.0000051213,0.000045984,3.0313,0.14967,195262.9215238318,0.000412889,0.0001362085
6006,10.1002/adma.201004200,80,1(a),102,Na0.025Pb0.975Se1,Na0.025Pb0.975Se1,471.5,0.0058516,0.0000051266,0.000046119,3.0286,0.15059,195061.0541099364,0.0004148875,0.0001369899
6006,10.1002/adma.201004200,80,1(a),102,Na0.025Pb0.975Se1,Na0.025Pb0.975Se1,472,0.0058474,0.0000051319,0.000046253,3.0259,0.15151,194859.6036555662,0.0004168709,0.0001377676
6006,10.1002/adma.201004200,80,1(a),102,Na0.025Pb0.975Se1,Na0.025Pb0.975Se1,472.5,0.0058433,0.0000051371,0.000046388,3.0232,0.15243,194662.3581398065,0.0004188835,0.0001385563
6006,10.1002/adma.201004200,80,1(a),102,Na0.025Pb0.975Se1,Na0.025Pb0.975Se1,473,0.0058392,0.0000051424,0.000046522,3.0205,0.15335,194461.7299315495,0.0004208728,0.0001393388
6006,10.1002/adma.201004200,80,1(a),102,Na0.025Pb0.975Se1,Na0.025Pb0.975Se1,473.5,0.005835,0.0000051477,0.000046657,3.0178,0.15428,194261.5148512928,0.0004228832,0.0001401296
6006,10.1002/adma.201004200,80,1(a),102,Na0.025Pb0.975Se1,Na0.025Pb0.975Se1,474,0.0058309,0.000005153,0.000046791,3.0151,0.1552,194061.7116242965,0.0004248783,0.0001409168
6006,10.1002/adma.201004200,80,1(a),102,Na0.025Pb0.975Se1,Na0.025Pb0.975Se1,474.5,0.0058268,0.0000051583,0.000046926,3.0124,0.15612,193862.3189810597,0.0004268944,0.0001417124
6006,10.1002/adma.201004200,80,1(a),102,Na0.025Pb0.975Se1,Na0.025Pb0.975Se1,475,0.0058226,0.0000051636,0.000047061,3.0097,0.15704,193663.3356572934,0.0004289135,0.0001425104
6006,10.1002/adma.201004200,80,1(a),102,Na0.025Pb0.975Se1,Na0.025Pb0.975Se1,475.5,0.0058185,0.0000051689,0.000047195,3.007,0.15796,193464.7603938942,0.0004309172,0.0001433047
6006,10.1002/adma.201004200,80,1(a),102,Na0.025Pb0.975Se1,Na0.025Pb0.975Se1,476,0.0058144,0.0000051742,0.00004733,3.0044,0.15888,193266.5919369178,0.0004329421,0.0001441027
6006,10.1002/adma.201004200,80,1(a),102,Na0.025Pb0.975Se1,Na0.025Pb0.975Se1,476.5,0.0058102,0.0000051795,0.000047465,3.0017,0.1598,193068.8290375519,0.0004349698,0.0001449078
6006,10.1002/adma.201004200,80,1(a),102,Na0.025Pb0.975Se1,Na0.025Pb0.975Se1,477,0.0058061,0.0000051848,0.0000476,2.999,0.16072,192871.4704520907,0.0004370005,0.0001457154
6006,10.1002/adma.201004200,80,1(a),102,Na0.025Pb0.975Se1,Na0.025Pb0.975Se1,477.5,0.0058019,0.0000051901,0.000047734,2.9963,0.16164,192674.5149419087,0.0004390156,0.0001465192
6006,10.1002/adma.201004200,80,1(a),102,Na0.025Pb0.975Se1,Na0.025Pb0.975Se1,478,0.0057978,0.0000051954,0.000047869,2.9936,0.16256,192477.9612734342,0.0004410519,0.0001473316
6006,10.1002/adma.201004200,80,1(a),102,Na0.025Pb0.975Se1,Na0.025Pb0.975Se1,478.5,0.0057937,0.0000052007,0.000048004,2.991,0.16348,192281.8082181245,0.0004430911,0.0001481415
6006,10.1002/adma.201004200,80,1(a),102,Na0.025Pb0.975Se1,Na0.025Pb0.975Se1,479,0.0057895,0.0000052061,0.000048139,2.9883,0.1644,192082.3649180769,0.0004451246,0.0001489558
6006,10.1002/adma.201004200,80,1(a),102,Na0.025Pb0.975Se1,Na0.025Pb0.975Se1,479.5,0.0057854,0.0000052114,0.000048274,2.9856,0.16532,191887.0169244349,0.0004471695,0.0001497754
6006,10.1002/adma.201004200,80,1(a),102,Na0.025Pb0.975Se1,Na0.025Pb0.975Se1,480,0.0057813,0.0000052168,0.000048409,2.983,0.16625,191688.3913510198,0.0004492086,0.0001505895
6006,10.1002/adma.201004200,80,1(a),102,Na0.025Pb0.975Se1,Na0.025Pb0.975Se1,480.5,0.0057771,0.0000052221,0.000048544,2.9803,0.16717,191493.8434729323,0.0004512591,0.000151414
6006,10.1002/adma.201004200,80,1(a),102,Na0.025Pb0.975Se1,Na0.025Pb0.975Se1,481,0.005773,0.0000052274,0.000048679,2.9776,0.16809,191299.690094502,0.0004533124,0.0001522409
6006,10.1002/adma.201004200,80,1(a),102,Na0.025Pb0.975Se1,Na0.025Pb0.975Se1,481.5,0.0057689,0.0000052328,0.000048814,2.975,0.16901,191102.277939153,0.0004553598,0.0001530621
6006,10.1002/adma.201004200,80,1(a),102,Na0.025Pb0.975Se1,Na0.025Pb0.975Se1,482,0.0057647,0.0000052382,0.000048949,2.9723,0.16993,190905.2728036348,0.0004574099,0.0001538909
6006,10.1002/adma.201004200,80,1(a),102,Na0.025Pb0.975Se1,Na0.025Pb0.975Se1,482.5,0.0057606,0.0000052435,0.000049084,2.9696,0.17085,190712.3104796415,0.0004594715,0.0001547251
6006,10.1002/adma.201004200,80,1(a),102,Na0.025Pb0.975Se1,Na0.025Pb0.975Se1,483,0.0057565,0.0000052489,0.000049219,2.967,0.17177,190516.108136943,0.0004615272,0.0001555535
6006,10.1002/adma.201004200,80,1(a),102,Na0.025Pb0.975Se1,Na0.025Pb0.975Se1,483.5,0.0057523,0.0000052543,0.000049354,2.9643,0.17269,190320.309080182,0.0004635855,0.0001563895
6006,10.1002/adma.201004200,80,1(a),102,Na0.025Pb0.975Se1,Na0.025Pb0.975Se1,484,0.0057482,0.0000052596,0.000049489,2.9617,0.17361,190128.5268841737,0.0004656554,0.0001572257
6006,10.1002/adma.201004200,80,1(a),102,Na0.025Pb0.975Se1,Na0.025Pb0.975Se1,484.5,0.005744,0.000005265,0.000049624,2.959,0.17453,189933.5232668566,0.0004677192,0.0001580666
6006,10.1002/adma.201004200,80,1(a),102,Na0.025Pb0.975Se1,Na0.025Pb0.975Se1,485,0.0057399,0.0000052704,0.000049759,2.9564,0.17545,189738.919247116,0.0004697856,0.0001589046
6006,10.1002/adma.201004200,80,1(a),102,Na0.025Pb0.975Se1,Na0.025Pb0.975Se1,485.5,0.0057358,0.0000052758,0.000049894,2.9537,0.17637,189544.7135979377,0.0004718547,0.0001597504
6006,10.1002/adma.201004200,80,1(a),102,Na0.025Pb0.975Se1,Na0.025Pb0.975Se1,486,0.0057316,0.0000052812,0.000050029,2.9511,0.17729,189350.9050973264,0.0004739265,0.0001605932
6006,10.1002/adma.201004200,80,1(a),102,Na0.025Pb0.975Se1,Na0.025Pb0.975Se1,486.5,0.0057275,0.0000052866,0.000050164,2.9484,0.17822,189157.492528279,0.000476001,0.0001614438
6006,10.1002/adma.201004200,80,1(a),102,Na0.025Pb0.975Se1,Na0.025Pb0.975Se1,487,0.0057234,0.000005292,0.0000503,2.9458,0.17914,188964.4746787604,0.0004780971,0.0001622979
6006,10.1002/adma.201004200,80,1(a),102,Na0.025Pb0.975Se1,Na0.025Pb0.975Se1,487.5,0.0057192,0.0000052974,0.000050435,2.9431,0.18006,188771.850341677,0.0004801769,0.0001631535
6006,10.1002/adma.201004200,80,1(a),102,Na0.025Pb0.975Se1,Na0.025Pb0.975Se1,488,0.0057151,0.0000053028,0.00005057,2.9405,0.18098,188579.6183148525,0.0004822594,0.0001640059
6006,10.1002/adma.201004200,80,1(a),102,Na0.025Pb0.975Se1,Na0.025Pb0.975Se1,488.5,0.005711,0.0000053083,0.000050705,2.9379,0.1819,188384.2284723923,0.0004843353,0.0001648577
6006,10.1002/adma.201004200,80,1(a),102,Na0.025Pb0.975Se1,Na0.025Pb0.975Se1,489,0.0057068,0.0000053137,0.00005084,2.9352,0.18282,188192.7846886351,0.0004864229,0.0001657205
6006,10.1002/adma.201004200,80,1(a),102,Na0.025Pb0.975Se1,Na0.025Pb0.975Se1,489.5,0.0057027,0.0000053191,0.000050975,2.9326,0.18374,188001.7296159125,0.0004885132,0.0001665802
6006,10.1002/adma.201004200,80,1(a),102,Na0.025Pb0.975Se1,Na0.025Pb0.975Se1,490,0.0056986,0.0000053246,0.000051111,2.93,0.18466,187807.5348382977,0.0004906161,0.0001674458
6006,10.1002/adma.201004200,80,1(a),102,Na0.025Pb0.975Se1,Na0.025Pb0.975Se1,490.5,0.0056944,0.00000533,0.000051246,2.9273,0.18558,187617.2607879925,0.0004927115,0.000168316
6006,10.1002/adma.201004200,80,1(a),102,Na0.025Pb0.975Se1,Na0.025Pb0.975Se1,491,0.0056903,0.0000053355,0.000051381,2.9247,0.1865,187423.859057258,0.0004948003,0.0001691799
6006,10.1002/adma.201004200,80,1(a),102,Na0.025Pb0.975Se1,Na0.025Pb0.975Se1,491.5,0.0056861,0.0000053409,0.000051516,2.9221,0.18742,187234.3612499766,0.0004969009,0.0001700493
6006,10.1002/adma.201004200,80,1(a),102,Na0.025Pb0.975Se1,Na0.025Pb0.975Se1,492,0.005682,0.0000053464,0.000051651,2.9194,0.18834,187041.7477180907,0.0004989948,0.0001709238
6006,10.1002/adma.201004200,80,1(a),102,Na0.025Pb0.975Se1,Na0.025Pb0.975Se1,492.5,0.0056779,0.0000053519,0.000051786,2.9168,0.18927,186849.5300734318,0.0005010912,0.0001717948
6006,10.1002/adma.201004200,80,1(a),102,Na0.025Pb0.975Se1,Na0.025Pb0.975Se1,493,0.0056737,0.0000053573,0.000051922,2.9142,0.19019,186661.1912717227,0.0005032188,0.0001726782
6006,10.1002/adma.201004200,80,1(a),102,Na0.025Pb0.975Se1,Na0.025Pb0.975Se1,493.5,0.0056696,0.0000053628,0.000052057,2.9116,0.19111,186469.7546058029,0.0005053202,0.0001735541
6006,10.1002/adma.201004200,80,1(a),102,Na0.025Pb0.975Se1,Na0.025Pb0.975Se1,494,0.0056655,0.0000053683,0.000052192,2.9089,0.19203,186278.7102062105,0.0005074241,0.0001744385
6006,10.1002/adma.201004200,80,1(a),102,Na0.025Pb0.975Se1,Na0.025Pb0.975Se1,494.5,0.0056613,0.0000053738,0.000052327,2.9063,0.19295,186088.0568685102,0.0005095305,0.0001753193
6006,10.1002/adma.201004200,80,1(a),102,Na0.025Pb0.975Se1,Na0.025Pb0.975Se1,495,0.0056572,0.0000053793,0.000052462,2.9037,0.19387,185897.7933931924,0.0005116393,0.0001762025
6006,10.1002/adma.201004200,80,1(a),102,Na0.025Pb0.975Se1,Na0.025Pb0.975Se1,495.5,0.0056531,0.0000053848,0.000052598,2.9011,0.19479,185707.9185856485,0.0005137702,0.000177095
6006,10.1002/adma.201004200,80,1(a),102,Na0.025Pb0.975Se1,Na0.025Pb0.975Se1,496,0.0056489,0.0000053903,0.000052733,2.8985,0.19571,185518.4312561453,0.000515884,0.0001779831
6006,10.1002/adma.201004200,80,1(a),102,Na0.025Pb0.975Se1,Na0.025Pb0.975Se1,496.5,0.0056448,0.0000053959,0.000052868,2.8958,0.19663,185325.8955873904,0.0005179906,0.0001788765
6006,10.1002/adma.201004200,80,1(a),102,Na0.025Pb0.975Se1,Na0.025Pb0.975Se1,497,0.0056407,0.0000054014,0.000053003,2.8932,0.19755,185137.1866553116,0.0005201092,0.0001797695
6006,10.1002/adma.201004200,80,1(a),102,Na0.025Pb0.975Se1,Na0.025Pb0.975Se1,497.5,0.0056365,0.0000054069,0.000053138,2.8906,0.19847,184948.8616397566,0.0005222303,0.000180665
6006,10.1002/adma.201004200,80,1(a),102,Na0.025Pb0.975Se1,Na0.025Pb0.975Se1,498,0.0056324,0.0000054125,0.000053274,2.888,0.19939,184757.505773672,0.0005243638,0.0001815664
6006,10.1002/adma.201004200,80,1(a),102,Na0.025Pb0.975Se1,Na0.025Pb0.975Se1,498.5,0.0056282,0.000005418,0.000053409,2.8854,0.20031,184569.9520118125,0.0005264897,0.0001824668
6006,10.1002/adma.201004200,80,1(a),102,Na0.025Pb0.975Se1,Na0.025Pb0.975Se1,499,0.0056241,0.0000054236,0.000053544,2.8828,0.20124,184379.3790102515,0.0005286083,0.0001833663
6006,10.1002/adma.201004200,80,1(a),102,Na0.025Pb0.975Se1,Na0.025Pb0.975Se1,499.5,0.00562,0.0000054291,0.000053679,2.8802,0.20216,184192.5917739588,0.000530739,0.0001842716
6006,10.1002/adma.201004200,80,1(a),102,Na0.025Pb0.975Se1,Na0.025Pb0.975Se1,500,0.0056158,0.0000054347,0.000053814,2.8776,0.20308,184002.796842512,0.0005328623,0.0001851759
6006,10.1002/adma.201004200,80,1(a),102,Na0.025Pb0.975Se1,Na0.025Pb0.975Se1,500.5,0.0056117,0.0000054403,0.000053949,2.875,0.204,183813.392643788,0.0005349879,0.0001860827
6006,10.1002/adma.201004200,80,1(a),102,Na0.025Pb0.975Se1,Na0.025Pb0.975Se1,501,0.0056076,0.0000054458,0.000054084,2.8724,0.20492,183627.7498255536,0.0005371257,0.0001869954
6006,10.1002/adma.201004200,80,1(a),102,Na0.025Pb0.975Se1,Na0.025Pb0.975Se1,501.5,0.0056034,0.0000054514,0.00005422,2.8698,0.20584,183439.1165572147,0.0005392759,0.0001879141
6006,10.1002/adma.201004200,80,1(a),102,Na0.025Pb0.975Se1,Na0.025Pb0.975Se1,502,0.0055993,0.000005457,0.000054355,2.8672,0.20676,183250.8704416346,0.0005414085,0.0001888283
6006,10.1002/adma.201004200,80,1(a),102,Na0.025Pb0.975Se1,Na0.025Pb0.975Se1,502.5,0.0055952,0.0000054626,0.00005449,2.8646,0.20768,183063.0102881412,0.0005435434,0.000189745
6006,10.1002/adma.201004200,80,1(a),102,Na0.025Pb0.975Se1,Na0.025Pb0.975Se1,503,0.005591,0.0000054682,0.000054625,2.862,0.2086,182875.5349109396,0.0005456806,0.0001906641
6006,10.1002/adma.201004200,80,1(a),102,Na0.025Pb0.975Se1,Na0.025Pb0.975Se1,503.5,0.0055869,0.0000054738,0.00005476,2.8594,0.20952,182688.4431290877,0.0005478201,0.0001915857
6006,10.1002/adma.201004200,80,1(a),102,Na0.025Pb0.975Se1,Na0.025Pb0.975Se1,504,0.0055828,0.0000054795,0.000054895,2.8568,0.21044,182498.4031389725,0.0005499518,0.0001925062
6006,10.1002/adma.201004200,80,1(a),102,Na0.025Pb0.975Se1,Na0.025Pb0.975Se1,504.5,0.0055786,0.0000054851,0.00005503,2.8542,0.21136,182312.0818216623,0.0005520958,0.0001934328
6006,10.1002/adma.201004200,80,1(a),102,Na0.025Pb0.975Se1,Na0.025Pb0.975Se1,505,0.0055745,0.0000054907,0.000055165,2.8516,0.21228,182126.1405649553,0.0005542421,0.0001943618
6006,10.1002/adma.201004200,80,1(a),102,Na0.025Pb0.975Se1,Na0.025Pb0.975Se1,505.5,0.0055703,0.0000054964,0.0000553,2.8491,0.21321,181937.2680299833,0.0005563805,0.0001952829
6006,10.1002/adma.201004200,80,1(a),102,Na0.025Pb0.975Se1,Na0.025Pb0.975Se1,506,0.0055662,0.000005502,0.000055435,2.8465,0.21413,181752.0901490367,0.0005585313,0.0001962169
6006,10.1002/adma.201004200,80,1(a),102,Na0.025Pb0.975Se1,Na0.025Pb0.975Se1,506.5,0.0055621,0.0000055077,0.00005557,2.8439,0.21505,181563.9922290611,0.0005606741,0.0001971497
6006,10.1002/adma.201004200,80,1(a),102,Na0.025Pb0.975Se1,Na0.025Pb0.975Se1,507,0.0055579,0.0000055134,0.000055705,2.8413,0.21597,181376.2832372039,0.0005628191,0.0001980851
6006,10.1002/adma.201004200,80,1(a),102,Na0.025Pb0.975Se1,Na0.025Pb0.975Se1,507.5,0.0055538,0.000005519,0.00005584,2.8387,0.21689,181192.2449719152,0.0005649766,0.0001990265
6006,10.1002/adma.201004200,80,1(a),102,Na0.025Pb0.975Se1,Na0.025Pb0.975Se1,508,0.0055497,0.0000055247,0.000055975,2.8361,0.21781,181005.3034553913,0.0005671259,0.0001999668
6006,10.1002/adma.201004200,80,1(a),102,Na0.025Pb0.975Se1,Na0.025Pb0.975Se1,508.5,0.0055455,0.0000055304,0.00005611,2.8336,0.21873,180818.7472877188,0.0005692775,0.0002009026
6006,10.1002/adma.201004200,80,1(a),102,Na0.025Pb0.975Se1,Na0.025Pb0.975Se1,509,0.0055414,0.0000055361,0.000056245,2.831,0.21965,180632.5752786257,0.0005714312,0.0002018478
6006,10.1002/adma.201004200,80,1(a),102,Na0.025Pb0.975Se1,Na0.025Pb0.975Se1,509.5,0.0055373,0.0000055418,0.00005638,2.8284,0.22057,180446.786242737,0.000573587,0.0002027956
6006,10.1002/adma.201004200,80,1(a),102,Na0.025Pb0.975Se1,Na0.025Pb0.975Se1,510,0.0055331,0.0000055475,0.000056515,2.8258,0.22149,180261.3789995493,0.000575745,0.0002037458
6006,10.1002/adma.201004200,80,1(a),102,Na0.025Pb0.975Se1,Na0.025Pb0.975Se1,510.5,0.005529,0.0000055532,0.00005665,2.8233,0.22241,180076.3523734063,0.0005779051,0.0002046913
6006,10.1002/adma.201004200,80,1(a),102,Na0.025Pb0.975Se1,Na0.025Pb0.975Se1,511,0.0055249,0.000005559,0.000056785,2.8207,0.22333,179888.4691491275,0.0005800569,0.0002056429
6006,10.1002/adma.201004200,80,1(a),102,Na0.025Pb0.975Se1,Na0.025Pb0.975Se1,511.5,0.0055207,0.0000055647,0.000056919,2.8181,0.22426,179704.206875483,0.0005822008,0.0002065934
6006,10.1002/adma.201004200,80,1(a),102,Na0.025Pb0.975Se1,Na0.025Pb0.975Se1,512,0.0055166,0.0000055705,0.000057054,2.8155,0.22518,179517.0990036801,0.0005843567,0.0002075499
6006,10.1002/adma.201004200,80,1(a),102,Na0.025Pb0.975Se1,Na0.025Pb0.975Se1,512.5,0.0055124,0.0000055762,0.000057189,2.813,0.2261,179333.5963559413,0.0005865252,0.0002085052
6006,10.1002/adma.201004200,80,1(a),102,Na0.025Pb0.975Se1,Na0.025Pb0.975Se1,513,0.0055083,0.000005582,0.000057324,2.8104,0.22702,179147.2590469366,0.0005886852,0.0002094667
6006,10.1002/adma.201004200,80,1(a),102,Na0.025Pb0.975Se1,Na0.025Pb0.975Se1,513.5,0.0055042,0.0000055878,0.000057459,2.8078,0.22794,178961.3085650882,0.0005908473,0.0002104307
6006,10.1002/adma.201004200,80,1(a),102,Na0.025Pb0.975Se1,Na0.025Pb0.975Se1,514,0.0055,0.0000055935,0.000057593,2.8053,0.22886,178778.9398408867,0.0005930015,0.0002113861
6006,10.1002/adma.201004200,80,1(a),102,Na0.025Pb0.975Se1,Na0.025Pb0.975Se1,514.5,0.0054959,0.0000055993,0.000057728,2.8027,0.22978,178593.7527905274,0.0005951676,0.0002123551