sid,DOI,figureid,fignum,sampleid,samplename,composition,Temperature,Carrier mobility,Electrical resistivity,Seebeck coefficient,Thermal conductivity,ZT,Electrical conductivity,Power factor,Figure of merit Z
6006,10.1002/adma.201004200,80,1(a),73,Na0.005Pb0.995Se1,Na0.005Pb0.995Se1,661.5,0.009267,0.000015626,0.00014743,1.3342,0.6596,63995.9042621272,0.0013909897,0.0010425646
6006,10.1002/adma.201004200,80,1(a),73,Na0.005Pb0.995Se1,Na0.005Pb0.995Se1,662,0.0092481,0.000015661,0.00014763,1.3329,0.66061,63852.8829576655,0.0013916491,0.0010440762
6006,10.1002/adma.201004200,80,1(a),73,Na0.005Pb0.995Se1,Na0.005Pb0.995Se1,662.5,0.0092291,0.000015696,0.00014783,1.3315,0.66163,63710.499490316,0.0013923107,0.0010456708
6006,10.1002/adma.201004200,80,1(a),73,Na0.005Pb0.995Se1,Na0.005Pb0.995Se1,663,0.0092102,0.000015732,0.00014803,1.3302,0.66265,63564.7088736334,0.0013928859,0.0010471252
6006,10.1002/adma.201004200,80,1(a),73,Na0.005Pb0.995Se1,Na0.005Pb0.995Se1,663.5,0.0091912,0.000015767,0.00014824,1.3289,0.66367,63423.6062662523,0.0013937399,0.0010487922
6006,10.1002/adma.201004200,80,1(a),73,Na0.005Pb0.995Se1,Na0.005Pb0.995Se1,664,0.0091723,0.000015803,0.00014844,1.3275,0.66469,63279.1242169208,0.0013943197,0.001050335
6006,10.1002/adma.201004200,80,1(a),73,Na0.005Pb0.995Se1,Na0.005Pb0.995Se1,664.5,0.0091533,0.000015838,0.00014864,1.3262,0.66571,63139.2852632908,0.0013949899,0.0010518699
6006,10.1002/adma.201004200,80,1(a),73,Na0.005Pb0.995Se1,Na0.005Pb0.995Se1,665,0.0091344,0.000015874,0.00014885,1.3249,0.66673,62996.094242157,0.0013957618,0.0010534846
6006,10.1002/adma.201004200,80,1(a),73,Na0.005Pb0.995Se1,Na0.005Pb0.995Se1,665.5,0.0091154,0.00001591,0.00014905,1.3236,0.66775,62853.5512256443,0.0013963484,0.0010549625
6006,10.1002/adma.201004200,80,1(a),73,Na0.005Pb0.995Se1,Na0.005Pb0.995Se1,666,0.0090965,0.000015946,0.00014926,1.3222,0.66877,62711.6518249091,0.0013971245,0.0010566666
6006,10.1002/adma.201004200,80,1(a),73,Na0.005Pb0.995Se1,Na0.005Pb0.995Se1,666.5,0.0090775,0.000015982,0.00014946,1.3209,0.66979,62570.391690652,0.0013977157,0.001058154
6006,10.1002/adma.201004200,80,1(a),73,Na0.005Pb0.995Se1,Na0.005Pb0.995Se1,667,0.0090586,0.000016018,0.00014966,1.3196,0.67081,62429.7665126732,0.0013983091,0.0010596462
6006,10.1002/adma.201004200,80,1(a),73,Na0.005Pb0.995Se1,Na0.005Pb0.995Se1,667.5,0.0090397,0.000016054,0.00014987,1.3183,0.67183,62289.7720194344,0.0013990916,0.0010612847
6006,10.1002/adma.201004200,80,1(a),73,Na0.005Pb0.995Se1,Na0.005Pb0.995Se1,668,0.0090207,0.00001609,0.00015007,1.317,0.67285,62150.4039776259,0.0013996896,0.0010627863
6006,10.1002/adma.201004200,80,1(a),73,Na0.005Pb0.995Se1,Na0.005Pb0.995Se1,668.5,0.0090018,0.000016126,0.00015028,1.3157,0.67386,62011.65819174,0.0014004762,0.0010644343
6006,10.1002/adma.201004200,80,1(a),73,Na0.005Pb0.995Se1,Na0.005Pb0.995Se1,669,0.0089828,0.000016163,0.00015048,1.3144,0.67488,61869.7024067314,0.0014009918,0.0010658793
6006,10.1002/adma.201004200,80,1(a),73,Na0.005Pb0.995Se1,Na0.005Pb0.995Se1,669.5,0.0089639,0.0000162,0.00015069,1.3131,0.6759,61728.3950617284,0.0014016961,0.0010674709
6006,10.1002/adma.201004200,80,1(a),73,Na0.005Pb0.995Se1,Na0.005Pb0.995Se1,670,0.0089449,0.000016236,0.00015089,1.3118,0.67692,61591.5250061592,0.001402303,0.0010689915
6006,10.1002/adma.201004200,80,1(a),73,Na0.005Pb0.995Se1,Na0.005Pb0.995Se1,670.5,0.008926,0.000016273,0.0001511,1.3105,0.67794,61451.4840533399,0.0014030117,0.0010705927
6006,10.1002/adma.201004200,80,1(a),73,Na0.005Pb0.995Se1,Na0.005Pb0.995Se1,671,0.008907,0.00001631,0.0001513,1.3092,0.67896,61312.0784794604,0.0014035371,0.0010720571
6006,10.1002/adma.201004200,80,1(a),73,Na0.005Pb0.995Se1,Na0.005Pb0.995Se1,671.5,0.0088881,0.000016347,0.00015151,1.3079,0.67998,61173.3039701474,0.0014042503,0.001073668
6006,10.1002/adma.201004200,80,1(a),73,Na0.005Pb0.995Se1,Na0.005Pb0.995Se1,672,0.0088691,0.000016384,0.00015171,1.3066,0.681,61035.15625,0.0014047805,0.001075142
6006,10.1002/adma.201004200,80,1(a),73,Na0.005Pb0.995Se1,Na0.005Pb0.995Se1,672.5,0.0088502,0.000016421,0.00015192,1.3054,0.68202,60897.6310821509,0.0014054982,0.0010766801
6006,10.1002/adma.201004200,80,1(a),73,Na0.005Pb0.995Se1,Na0.005Pb0.995Se1,673,0.0088312,0.000016458,0.00015212,1.3041,0.68304,60760.7242678333,0.0014060332,0.0010781636
6006,10.1002/adma.201004200,80,1(a),73,Na0.005Pb0.995Se1,Na0.005Pb0.995Se1,673.5,0.0088123,0.000016496,0.00015233,1.3028,0.68406,60620.7565470417,0.00140667,0.0010797283
6006,10.1002/adma.201004200,80,1(a),73,Na0.005Pb0.995Se1,Na0.005Pb0.995Se1,674,0.0087934,0.000016533,0.00015253,1.3015,0.68508,60485.0904252102,0.0014072099,0.0010812216
6006,10.1002/adma.201004200,80,1(a),73,Na0.005Pb0.995Se1,Na0.005Pb0.995Se1,674.5,0.0087744,0.000016571,0.00015274,1.3003,0.6861,60346.3882686621,0.0014078515,0.0010827129
6006,10.1002/adma.201004200,80,1(a),73,Na0.005Pb0.995Se1,Na0.005Pb0.995Se1,675,0.0087555,0.000016608,0.00015295,1.299,0.68711,60211.9460500963,0.0014085804,0.0010843575
6006,10.1002/adma.201004200,80,1(a),73,Na0.005Pb0.995Se1,Na0.005Pb0.995Se1,675.5,0.0087365,0.000016646,0.00015315,1.2977,0.68813,60074.4923705395,0.0014090426,0.0010857999
6006,10.1002/adma.201004200,80,1(a),73,Na0.005Pb0.995Se1,Na0.005Pb0.995Se1,676,0.0087176,0.000016684,0.00015336,1.2965,0.68915,59937.6648285783,0.0014096913,0.0010873053
6006,10.1002/adma.201004200,80,1(a),73,Na0.005Pb0.995Se1,Na0.005Pb0.995Se1,676.5,0.0086986,0.000016722,0.00015356,1.2952,0.69017,59801.4591556034,0.0014101587,0.0010887575
6006,10.1002/adma.201004200,80,1(a),73,Na0.005Pb0.995Se1,Na0.005Pb0.995Se1,677,0.0086797,0.00001676,0.00015377,1.2939,0.69119,59665.8711217184,0.0014108122,0.0010903565
6006,10.1002/adma.201004200,80,1(a),73,Na0.005Pb0.995Se1,Na0.005Pb0.995Se1,677.5,0.0086607,0.000016798,0.00015398,1.2927,0.69221,59530.8965353018,0.0014114681,0.001091876
6006,10.1002/adma.201004200,80,1(a),73,Na0.005Pb0.995Se1,Na0.005Pb0.995Se1,678,0.0086418,0.000016837,0.00015418,1.2914,0.69323,59393.0035041872,0.0014118591,0.0010932779
6006,10.1002/adma.201004200,80,1(a),73,Na0.005Pb0.995Se1,Na0.005Pb0.995Se1,678.5,0.0086228,0.000016875,0.00015439,1.2902,0.69425,59259.2592592593,0.0014125198,0.0010948069
6006,10.1002/adma.201004200,80,1(a),73,Na0.005Pb0.995Se1,Na0.005Pb0.995Se1,679,0.0086039,0.000016914,0.0001546,1.2889,0.69527,59122.6203145323,0.0014130992,0.0010963606
6006,10.1002/adma.201004200,80,1(a),73,Na0.005Pb0.995Se1,Na0.005Pb0.995Se1,679.5,0.008585,0.000016952,0.0001548,1.2877,0.69629,58990.0896649363,0.0014135819,0.0010977571
6006,10.1002/adma.201004200,80,1(a),73,Na0.005Pb0.995Se1,Na0.005Pb0.995Se1,680,0.008566,0.000016991,0.00015501,1.2865,0.69731,58854.6877758813,0.0014141663,0.0010992354
6006,10.1002/adma.201004200,80,1(a),73,Na0.005Pb0.995Se1,Na0.005Pb0.995Se1,680.5,0.0085471,0.00001703,0.00015522,1.2852,0.69833,58719.9060481503,0.0014147533,0.001100804
6006,10.1002/adma.201004200,80,1(a),73,Na0.005Pb0.995Se1,Na0.005Pb0.995Se1,681,0.0085281,0.000017069,0.00015542,1.284,0.69935,58585.7402308278,0.0014151606,0.00110215
6006,10.1002/adma.201004200,80,1(a),73,Na0.005Pb0.995Se1,Na0.005Pb0.995Se1,681.5,0.0085092,0.000017108,0.00015563,1.2828,0.70036,58452.1861117606,0.0014157527,0.0011036426
6006,10.1002/adma.201004200,80,1(a),73,Na0.005Pb0.995Se1,Na0.005Pb0.995Se1,682,0.0084902,0.000017147,0.00015584,1.2815,0.70138,58319.2395171167,0.0014163472,0.0011052261
6006,10.1002/adma.201004200,80,1(a),73,Na0.005Pb0.995Se1,Na0.005Pb0.995Se1,682.5,0.0084713,0.000017186,0.00015604,1.2803,0.7024,58186.8963109508,0.0014167626,0.0011065864
6006,10.1002/adma.201004200,80,1(a),73,Na0.005Pb0.995Se1,Na0.005Pb0.995Se1,683,0.0084523,0.000017225,0.00015625,1.2791,0.70342,58055.152394775,0.0014173621,0.0011080933
6006,10.1002/adma.201004200,80,1(a),73,Na0.005Pb0.995Se1,Na0.005Pb0.995Se1,683.5,0.0084334,0.000017265,0.00015646,1.2779,0.70444,57920.6487112656,0.0014178819,0.0011095406
6006,10.1002/adma.201004200,80,1(a),73,Na0.005Pb0.995Se1,Na0.005Pb0.995Se1,684,0.0084144,0.000017304,0.00015667,1.2767,0.70546,57790.1063337957,0.0014184864,0.001111057
6006,10.1002/adma.201004200,80,1(a),73,Na0.005Pb0.995Se1,Na0.005Pb0.995Se1,684.5,0.0083955,0.000017344,0.00015687,1.2755,0.70648,57656.8265682657,0.0014188305,0.001112372
6006,10.1002/adma.201004200,80,1(a),73,Na0.005Pb0.995Se1,Na0.005Pb0.995Se1,685,0.0083765,0.000017384,0.00015708,1.2743,0.7075,57524.1601472618,0.0014193584,0.0011138338
6006,10.1002/adma.201004200,80,1(a),73,Na0.005Pb0.995Se1,Na0.005Pb0.995Se1,685.5,0.0083576,0.000017423,0.00015729,1.2731,0.70852,57395.3968891695,0.0014199704,0.0011153644
6006,10.1002/adma.201004200,80,1(a),73,Na0.005Pb0.995Se1,Na0.005Pb0.995Se1,686,0.0083387,0.000017463,0.0001575,1.2718,0.70954,57263.9294508389,0.0014205033,0.0011169235
6006,10.1002/adma.201004200,80,1(a),73,Na0.005Pb0.995Se1,Na0.005Pb0.995Se1,686.5,0.0083197,0.000017504,0.0001577,1.2707,0.71056,57129.7989031079,0.0014207775,0.0011181062
6006,10.1002/adma.201004200,80,1(a),73,Na0.005Pb0.995Se1,Na0.005Pb0.995Se1,687,0.0083008,0.000017544,0.00015791,1.2695,0.71158,56999.544003648,0.001421316,0.0011195872
6006,10.1002/adma.201004200,80,1(a),73,Na0.005Pb0.995Se1,Na0.005Pb0.995Se1,687.5,0.0082818,0.000017584,0.00015812,1.2683,0.7126,56869.881710646,0.0014218571,0.0011210731
6006,10.1002/adma.201004200,80,1(a),73,Na0.005Pb0.995Se1,Na0.005Pb0.995Se1,688,0.0082629,0.000017624,0.00015833,1.2671,0.71361,56740.8079891058,0.0014224006,0.0011225638
6006,10.1002/adma.201004200,80,1(a),73,Na0.005Pb0.995Se1,Na0.005Pb0.995Se1,688.5,0.0082439,0.000017665,0.00015854,1.2659,0.71463,56609.1140673648,0.0014228662,0.0011239957
6006,10.1002/adma.201004200,80,1(a),73,Na0.005Pb0.995Se1,Na0.005Pb0.995Se1,689,0.008225,0.000017705,0.00015874,1.2647,0.71565,56481.2199943519,0.0014232357,0.0011253544
6006,10.1002/adma.201004200,80,1(a),73,Na0.005Pb0.995Se1,Na0.005Pb0.995Se1,689.5,0.008206,0.000017746,0.00015895,1.2635,0.71667,56350.7269243773,0.0014237069,0.0011267961
6006,10.1002/adma.201004200,80,1(a),73,Na0.005Pb0.995Se1,Na0.005Pb0.995Se1,690,0.0081871,0.000017787,0.00015916,1.2624,0.71769,56220.8354416147,0.0014241809,0.0011281534
6006,10.1002/adma.201004200,80,1(a),73,Na0.005Pb0.995Se1,Na0.005Pb0.995Se1,690.5,0.0081681,0.000017828,0.00015937,1.2612,0.71871,56091.5413955575,0.0014246577,0.0011296049
6006,10.1002/adma.201004200,80,1(a),73,Na0.005Pb0.995Se1,Na0.005Pb0.995Se1,691,0.0081492,0.000017869,0.00015958,1.26,0.71973,55962.8406737926,0.0014251372,0.0011310613
6006,10.1002/adma.201004200,80,1(a),73,Na0.005Pb0.995Se1,Na0.005Pb0.995Se1,691.5,0.0081303,0.00001791,0.00015978,1.2588,0.72075,55834.7292015634,0.001425441,0.0011323808
6006,10.1002/adma.201004200,80,1(a),73,Na0.005Pb0.995Se1,Na0.005Pb0.995Se1,692,0.0081113,0.000017951,0.00015999,1.2577,0.72177,55707.2029413403,0.0014259261,0.001133757
6006,10.1002/adma.201004200,80,1(a),73,Na0.005Pb0.995Se1,Na0.005Pb0.995Se1,692.5,0.0080924,0.000017993,0.0001602,1.2565,0.72279,55577.1688990163,0.0014263347,0.0011351649
6006,10.1002/adma.201004200,80,1(a),73,Na0.005Pb0.995Se1,Na0.005Pb0.995Se1,693,0.0080734,0.000018034,0.00016041,1.2554,0.72381,55450.8151269824,0.0014268253,0.0011365504
6006,10.1002/adma.201004200,80,1(a),73,Na0.005Pb0.995Se1,Na0.005Pb0.995Se1,693.5,0.0080545,0.000018076,0.00016062,1.2542,0.72483,55321.9738880283,0.0014272397,0.0011379682
6006,10.1002/adma.201004200,80,1(a),73,Na0.005Pb0.995Se1,Na0.005Pb0.995Se1,694,0.0080355,0.000018118,0.00016082,1.2531,0.72584,55193.7299922729,0.0014274794,0.0011391584
6006,10.1002/adma.201004200,80,1(a),73,Na0.005Pb0.995Se1,Na0.005Pb0.995Se1,694.5,0.0080166,0.000018159,0.00016103,1.2519,0.72686,55069.1117352277,0.0014279785,0.001140649
6006,10.1002/adma.201004200,80,1(a),73,Na0.005Pb0.995Se1,Na0.005Pb0.995Se1,695,0.0079976,0.000018201,0.00016124,1.2508,0.72788,54942.0361518598,0.0014284016,0.0011419904
6006,10.1002/adma.201004200,80,1(a),73,Na0.005Pb0.995Se1,Na0.005Pb0.995Se1,695.5,0.0079787,0.000018243,0.00016145,1.2496,0.7289,54815.5456887573,0.0014288276,0.001143428
6006,10.1002/adma.201004200,80,1(a),73,Na0.005Pb0.995Se1,Na0.005Pb0.995Se1,696,0.0079597,0.000018285,0.00016166,1.2485,0.72992,54689.6363139185,0.0014292565,0.001144779
6006,10.1002/adma.201004200,80,1(a),73,Na0.005Pb0.995Se1,Na0.005Pb0.995Se1,696.5,0.0079408,0.000018328,0.00016187,1.2474,0.73094,54561.326931471,0.0014296103,0.001146072
6006,10.1002/adma.201004200,80,1(a),73,Na0.005Pb0.995Se1,Na0.005Pb0.995Se1,697,0.0079218,0.00001837,0.00016207,1.2462,0.73196,54436.5813826892,0.0014298685,0.0011473829
6006,10.1002/adma.201004200,80,1(a),73,Na0.005Pb0.995Se1,Na0.005Pb0.995Se1,697.5,0.0079029,0.000018413,0.00016228,1.2451,0.73298,54309.4552761636,0.0014302286,0.0011486857
6006,10.1002/adma.201004200,80,1(a),73,Na0.005Pb0.995Se1,Na0.005Pb0.995Se1,698,0.007884,0.000018455,0.00016249,1.244,0.734,54185.8574911948,0.0014306692,0.0011500556
6006,10.1002/adma.201004200,80,1(a),73,Na0.005Pb0.995Se1,Na0.005Pb0.995Se1,698.5,0.007865,0.000018498,0.0001627,1.2428,0.73502,54059.8983673911,0.0014310352,0.0011514606
6006,10.1002/adma.201004200,80,1(a),73,Na0.005Pb0.995Se1,Na0.005Pb0.995Se1,699,0.0078461,0.000018541,0.00016291,1.2417,0.73604,53934.523488485,0.0014314044,0.0011527779
6006,10.1002/adma.201004200,80,1(a),73,Na0.005Pb0.995Se1,Na0.005Pb0.995Se1,699.5,0.0078271,0.000018584,0.00016312,1.2406,0.73706,53809.7287989669,0.0014317765,0.0011541
6006,10.1002/adma.201004200,80,1(a),73,Na0.005Pb0.995Se1,Na0.005Pb0.995Se1,700,0.0078082,0.000018627,0.00016332,1.2395,0.73808,53685.5102807752,0.0014319763,0.0011552854
6006,10.1002/adma.201004200,80,1(a),73,Na0.005Pb0.995Se1,Na0.005Pb0.995Se1,700.5,0.0077892,0.00001867,0.00016353,1.2384,0.73909,53561.8639528656,0.0014323546,0.0011566171
6006,10.1002/adma.201004200,80,1(a),73,Na0.005Pb0.995Se1,Na0.005Pb0.995Se1,701,0.0077703,0.000018713,0.00016374,1.2373,0.74011,53438.785870785,0.0014327359,0.0011579536
6006,10.1002/adma.201004200,80,1(a),73,Na0.005Pb0.995Se1,Na0.005Pb0.995Se1,701.5,0.0077513,0.000018756,0.00016395,1.2362,0.74113,53316.2721262529,0.0014331202,0.0011592948
6006,10.1002/adma.201004200,80,1(a),73,Na0.005Pb0.995Se1,Na0.005Pb0.995Se1,702,0.0077324,0.0000188,0.00016416,1.2351,0.74215,53191.4893617021,0.0014334311,0.001160579
6006,10.1002/adma.201004200,80,1(a),73,Na0.005Pb0.995Se1,Na0.005Pb0.995Se1,702.5,0.0077134,0.000018844,0.00016437,1.234,0.74317,53067.2893228614,0.0014337453,0.0011618682
6006,10.1002/adma.201004200,80,1(a),73,Na0.005Pb0.995Se1,Na0.005Pb0.995Se1,703,0.0076945,0.000018887,0.00016457,1.2329,0.74419,52946.4711177,0.0014339644,0.0011630825
6006,10.1002/adma.201004200,80,1(a),73,Na0.005Pb0.995Se1,Na0.005Pb0.995Se1,703.5,0.0076756,0.000018931,0.00016478,1.2318,0.74521,52823.4113359041,0.001434285,0.0011643814
6006,10.1002/adma.201004200,80,1(a),73,Na0.005Pb0.995Se1,Na0.005Pb0.995Se1,704,0.0076566,0.000018975,0.00016499,1.2307,0.74623,52700.9222661397,0.0014346087,0.0011656851
6006,10.1002/adma.201004200,80,1(a),73,Na0.005Pb0.995Se1,Na0.005Pb0.995Se1,704.5,0.0076377,0.000019019,0.0001652,1.2296,0.74725,52578.999947421,0.0014349356,0.0011669938
6006,10.1002/adma.201004200,80,1(a),73,Na0.005Pb0.995Se1,Na0.005Pb0.995Se1,705,0.0076187,0.000019063,0.00016541,1.2286,0.74827,52457.6404553323,0.0014352656,0.0011682123
6006,10.1002/adma.201004200,80,1(a),73,Na0.005Pb0.995Se1,Na0.005Pb0.995Se1,705.5,0.0075998,0.000019108,0.00016561,1.2275,0.74929,52334.1009001465,0.0014353502,0.0011693281
6006,10.1002/adma.201004200,80,1(a),73,Na0.005Pb0.995Se1,Na0.005Pb0.995Se1,706,0.0075808,0.000019152,0.00016582,1.2264,0.75031,52213.8680033417,0.0014356867,0.0011706513
6006,10.1002/adma.201004200,80,1(a),73,Na0.005Pb0.995Se1,Na0.005Pb0.995Se1,706.5,0.0075619,0.000019196,0.00016603,1.2253,0.75133,52094.1862888102,0.0014360263,0.0011719794
6006,10.1002/adma.201004200,80,1(a),73,Na0.005Pb0.995Se1,Na0.005Pb0.995Se1,707,0.0075429,0.000019241,0.00016624,1.2243,0.75234,51972.3507094226,0.0014362942,0.0011731555
6006,10.1002/adma.201004200,80,1(a),73,Na0.005Pb0.995Se1,Na0.005Pb0.995Se1,707.5,0.007524,0.000019286,0.00016645,1.2232,0.75336,51851.0836876491,0.0014365655,0.0011744322
6006,10.1002/adma.201004200,80,1(a),73,Na0.005Pb0.995Se1,Na0.005Pb0.995Se1,708,0.007505,0.000019331,0.00016665,1.2222,0.75438,51730.3812529098,0.0014366677,0.0011754767
6006,10.1002/adma.201004200,80,1(a),73,Na0.005Pb0.995Se1,Na0.005Pb0.995Se1,708.5,0.0074861,0.000019376,0.00016686,1.2211,0.7554,51610.2394715112,0.0014369457,0.0011767633
6006,10.1002/adma.201004200,80,1(a),73,Na0.005Pb0.995Se1,Na0.005Pb0.995Se1,709,0.0074671,0.000019421,0.00016707,1.2201,0.75642,51490.654446218,0.001437227,0.0011779583
6006,10.1002/adma.201004200,80,1(a),73,Na0.005Pb0.995Se1,Na0.005Pb0.995Se1,709.5,0.0074482,0.000019466,0.00016728,1.219,0.75744,51371.6223158327,0.0014375115,0.0011792547
6006,10.1002/adma.201004200,80,1(a),73,Na0.005Pb0.995Se1,Na0.005Pb0.995Se1,710,0.0074293,0.000019511,0.00016749,1.218,0.75846,51253.1392547794,0.0014377992,0.0011804591
6006,10.1002/adma.201004200,80,1(a),73,Na0.005Pb0.995Se1,Na0.005Pb0.995Se1,710.5,0.0074103,0.000019557,0.00016769,1.2169,0.75948,51132.5867975661,0.0014378451,0.0011815639
6006,10.1002/adma.201004200,80,1(a),73,Na0.005Pb0.995Se1,Na0.005Pb0.995Se1,711,0.0073914,0.000019602,0.0001679,1.2159,0.7605,51015.202530354,0.0014381395,0.0011827778
6006,10.1002/adma.201004200,80,1(a),73,Na0.005Pb0.995Se1,Na0.005Pb0.995Se1,711.5,0.0073724,0.000019648,0.00016811,1.2148,0.76152,50895.7654723127,0.0014383638,0.0011840334
6006,10.1002/adma.201004200,80,1(a),73,Na0.005Pb0.995Se1,Na0.005Pb0.995Se1,712,0.0073535,0.000019694,0.00016832,1.2138,0.76254,50776.8863613283,0.0014385916,0.0011851965
6006,10.1002/adma.201004200,80,1(a),73,Na0.005Pb0.995Se1,Na0.005Pb0.995Se1,712.5,0.0073345,0.00001974,0.00016852,1.2128,0.76356,50658.5612968592,0.001438652,0.0011862236
6006,10.1002/adma.201004200,80,1(a),73,Na0.005Pb0.995Se1,Na0.005Pb0.995Se1,713,0.0073156,0.000019786,0.00016873,1.2118,0.76458,50540.7864146366,0.0014388867,0.0011873962
6006,10.1002/adma.201004200,80,1(a),73,Na0.005Pb0.995Se1,Na0.005Pb0.995Se1,713.5,0.0072966,0.000019832,0.00016894,1.2107,0.76559,50423.5578862445,0.0014391248,0.0011886717
6006,10.1002/adma.201004200,80,1(a),73,Na0.005Pb0.995Se1,Na0.005Pb0.995Se1,714,0.0072777,0.000019878,0.00016914,1.2097,0.76661,50306.8719187041,0.0014391961,0.0011897132
6006,10.1002/adma.201004200,80,1(a),73,Na0.005Pb0.995Se1,Na0.005Pb0.995Se1,714.5,0.0072587,0.000019925,0.00016935,1.2087,0.76763,50188.2057716437,0.0014393688,0.0011908404
6006,10.1002/adma.201004200,80,1(a),73,Na0.005Pb0.995Se1,Na0.005Pb0.995Se1,715,0.0072398,0.000019971,0.00016956,1.2077,0.76865,50072.6052776526,0.0014396171,0.0011920321
6006,10.1002/adma.201004200,80,1(a),73,Na0.005Pb0.995Se1,Na0.005Pb0.995Se1,715.5,0.0072209,0.000020018,0.00016977,1.2067,0.76967,49955.0404635828,0.0014397968,0.0011931688
6006,10.1002/adma.201004200,80,1(a),73,Na0.005Pb0.995Se1,Na0.005Pb0.995Se1,716,0.0072019,0.000020065,0.00016997,1.2057,0.77069,49838.026414154,0.0014398107,0.0011941699
6006,10.1002/adma.201004200,80,1(a),73,Na0.005Pb0.995Se1,Na0.005Pb0.995Se1,716.5,0.007183,0.000020112,0.00017018,1.2047,0.77171,49721.5592680986,0.0014399976,0.0011953164
6006,10.1002/adma.201004200,80,1(a),73,Na0.005Pb0.995Se1,Na0.005Pb0.995Se1,717,0.007164,0.000020159,0.00017039,1.2037,0.77273,49605.6352001587,0.0014401881,0.0011964676
6006,10.1002/adma.201004200,80,1(a),73,Na0.005Pb0.995Se1,Na0.005Pb0.995Se1,717.5,0.0071451,0.000020206,0.00017059,1.2027,0.77375,49490.2504206671,0.0014402132,0.0011974833
6006,10.1002/adma.201004200,80,1(a),73,Na0.005Pb0.995Se1,Na0.005Pb0.995Se1,718,0.0071261,0.000020253,0.0001708,1.2017,0.77477,49375.4011751345,0.0014404108,0.0011986443
6006,10.1002/adma.201004200,80,1(a),73,Na0.005Pb0.995Se1,Na0.005Pb0.995Se1,718.5,0.0071072,0.0000203,0.00017101,1.2007,0.77579,49261.0837438424,0.0014406118,0.00119981
6006,10.1002/adma.201004200,80,1(a),73,Na0.005Pb0.995Se1,Na0.005Pb0.995Se1,719,0.0070882,0.000020348,0.00017121,1.1997,0.77681,49144.8791035974,0.0014405772,0.0012007812