sid,DOI,figureid,fignum,sampleid,samplename,composition,Temperature,Carrier mobility,Electrical resistivity,Seebeck coefficient,Thermal conductivity,ZT,Electrical conductivity,Power factor,Figure of merit Z
6006,10.1002/adma.201004200,80,1(a),102,Na0.025Pb0.975Se1,Na0.025Pb0.975Se1,402,0.0064264,0.0000044131,0.000028696,3.4296,0.022603,226598.082980218,0.0001865946,0.0000544071
6006,10.1002/adma.201004200,80,1(a),102,Na0.025Pb0.975Se1,Na0.025Pb0.975Se1,402.5,0.0064223,0.0000044182,0.000028804,3.4265,0.023524,226336.5171336743,0.0001877847,0.0000548037
6006,10.1002/adma.201004200,80,1(a),102,Na0.025Pb0.975Se1,Na0.025Pb0.975Se1,403,0.0064182,0.0000044233,0.000028912,3.4234,0.024444,226075.5544502973,0.0001889774,0.0000552017
6006,10.1002/adma.201004200,80,1(a),102,Na0.025Pb0.975Se1,Na0.025Pb0.975Se1,403.5,0.006414,0.0000044284,0.000029021,3.4203,0.025365,225815.1928461747,0.0001901857,0.000055605
6006,10.1002/adma.201004200,80,1(a),102,Na0.025Pb0.975Se1,Na0.025Pb0.975Se1,404,0.0064099,0.0000044335,0.00002913,3.4171,0.026286,225555.4302469832,0.0001913966,0.0000560114
6006,10.1002/adma.201004200,80,1(a),102,Na0.025Pb0.975Se1,Na0.025Pb0.975Se1,404.5,0.0064058,0.0000044385,0.00002924,3.414,0.027207,225301.3405429762,0.0001926276,0.0000564228
6006,10.1002/adma.201004200,80,1(a),102,Na0.025Pb0.975Se1,Na0.025Pb0.975Se1,405,0.0064016,0.0000044436,0.00002935,3.4109,0.028128,225042.7581240436,0.0001938569,0.0000568345
6006,10.1002/adma.201004200,80,1(a),102,Na0.025Pb0.975Se1,Na0.025Pb0.975Se1,405.5,0.0063975,0.0000044487,0.00002946,3.4078,0.029048,224784.7685840807,0.0001950888,0.0000572477
6006,10.1002/adma.201004200,80,1(a),102,Na0.025Pb0.975Se1,Na0.025Pb0.975Se1,406,0.0063934,0.0000044538,0.000029571,3.4047,0.029969,224527.3698863892,0.0001963366,0.0000576663
6006,10.1002/adma.201004200,80,1(a),102,Na0.025Pb0.975Se1,Na0.025Pb0.975Se1,406.5,0.0063892,0.0000044589,0.000029682,3.4016,0.03089,224270.5600035884,0.0001975871,0.0000580865
6006,10.1002/adma.201004200,80,1(a),102,Na0.025Pb0.975Se1,Na0.025Pb0.975Se1,407,0.0063851,0.000004464,0.000029794,3.3985,0.031811,224014.3369175627,0.0001988536,0.0000585122
6006,10.1002/adma.201004200,80,1(a),102,Na0.025Pb0.975Se1,Na0.025Pb0.975Se1,407.5,0.0063809,0.0000044691,0.000029906,3.3955,0.032731,223758.6986194088,0.0002001228,0.0000589377
6006,10.1002/adma.201004200,80,1(a),102,Na0.025Pb0.975Se1,Na0.025Pb0.975Se1,408,0.0063768,0.0000044742,0.000030018,3.3924,0.033652,223503.6431093827,0.0002013947,0.0000593664
6006,10.1002/adma.201004200,80,1(a),102,Na0.025Pb0.975Se1,Na0.025Pb0.975Se1,408.5,0.0063727,0.0000044793,0.000030131,3.3893,0.034573,223249.1683968477,0.0002026828,0.0000598008
6006,10.1002/adma.201004200,80,1(a),102,Na0.025Pb0.975Se1,Na0.025Pb0.975Se1,409,0.0063685,0.0000044843,0.000030244,3.3862,0.035494,223000.2453002698,0.0002039782,0.0000602381
6006,10.1002/adma.201004200,80,1(a),102,Na0.025Pb0.975Se1,Na0.025Pb0.975Se1,409.5,0.0063644,0.0000044894,0.000030357,3.3832,0.036415,222746.9149552279,0.0002052719,0.0000606739
6006,10.1002/adma.201004200,80,1(a),102,Na0.025Pb0.975Se1,Na0.025Pb0.975Se1,410,0.0063603,0.0000044945,0.000030471,3.3801,0.037335,222494.1595283124,0.0002065818,0.0000611171
6006,10.1002/adma.201004200,80,1(a),102,Na0.025Pb0.975Se1,Na0.025Pb0.975Se1,410.5,0.0063561,0.0000044996,0.000030585,3.3771,0.038256,222241.977064628,0.0002078945,0.0000615601
6006,10.1002/adma.201004200,80,1(a),102,Na0.025Pb0.975Se1,Na0.025Pb0.975Se1,411,0.006352,0.0000045047,0.000030699,3.374,0.039177,221990.3656181322,0.0002092101,0.0000620065
6006,10.1002/adma.201004200,80,1(a),102,Na0.025Pb0.975Se1,Na0.025Pb0.975Se1,411.5,0.0063479,0.0000045098,0.000030814,3.371,0.040098,221739.3232515854,0.0002105421,0.0000624569
6006,10.1002/adma.201004200,80,1(a),102,Na0.025Pb0.975Se1,Na0.025Pb0.975Se1,412,0.0063437,0.0000045149,0.000030929,3.3679,0.041019,221488.8480365014,0.0002118769,0.0000629107
6006,10.1002/adma.201004200,80,1(a),102,Na0.025Pb0.975Se1,Na0.025Pb0.975Se1,412.5,0.0063396,0.00000452,0.000031044,3.3649,0.041939,221238.9380530973,0.0002132146,0.0000633643
6006,10.1002/adma.201004200,80,1(a),102,Na0.025Pb0.975Se1,Na0.025Pb0.975Se1,413,0.0063355,0.000004525,0.00003116,3.3618,0.04286,220994.4751381215,0.0002145736,0.000063827
6006,10.1002/adma.201004200,80,1(a),102,Na0.025Pb0.975Se1,Na0.025Pb0.975Se1,413.5,0.0063313,0.0000045301,0.000031276,3.3588,0.043781,220745.6789033355,0.0002159308,0.0000642881
6006,10.1002/adma.201004200,80,1(a),102,Na0.025Pb0.975Se1,Na0.025Pb0.975Se1,414,0.0063272,0.0000045352,0.000031392,3.3558,0.044702,220497.4422296701,0.0002172909,0.0000647508
6006,10.1002/adma.201004200,80,1(a),102,Na0.025Pb0.975Se1,Na0.025Pb0.975Se1,414.5,0.006323,0.0000045403,0.000031509,3.3527,0.045622,220249.7632315045,0.0002186677,0.0000652214
6006,10.1002/adma.201004200,80,1(a),102,Na0.025Pb0.975Se1,Na0.025Pb0.975Se1,415,0.0063189,0.0000045454,0.000031626,3.3497,0.046543,220002.6400316804,0.0002200475,0.0000656917
6006,10.1002/adma.201004200,80,1(a),102,Na0.025Pb0.975Se1,Na0.025Pb0.975Se1,415.5,0.0063148,0.0000045505,0.000031743,3.3467,0.047464,219756.0707614548,0.0002214302,0.0000661637
6006,10.1002/adma.201004200,80,1(a),102,Na0.025Pb0.975Se1,Na0.025Pb0.975Se1,416,0.0063106,0.0000045556,0.000031861,3.3437,0.048385,219510.0535604531,0.0002228298,0.0000666417
6006,10.1002/adma.201004200,80,1(a),102,Na0.025Pb0.975Se1,Na0.025Pb0.975Se1,416.5,0.0063065,0.0000045607,0.000031979,3.3407,0.049306,219264.586576622,0.0002242323,0.0000671214
6006,10.1002/adma.201004200,80,1(a),102,Na0.025Pb0.975Se1,Na0.025Pb0.975Se1,417,0.0063024,0.0000045657,0.000032097,3.3377,0.050226,219024.4650327442,0.0002256428,0.0000676043
6006,10.1002/adma.201004200,80,1(a),102,Na0.025Pb0.975Se1,Na0.025Pb0.975Se1,417.5,0.0062982,0.0000045708,0.000032215,3.3347,0.051147,218780.0822613109,0.0002270513,0.0000680875
6006,10.1002/adma.201004200,80,1(a),102,Na0.025Pb0.975Se1,Na0.025Pb0.975Se1,418,0.0062941,0.0000045759,0.000032334,3.3317,0.052068,218536.2442361066,0.0002284769,0.0000685767
6006,10.1002/adma.201004200,80,1(a),102,Na0.025Pb0.975Se1,Na0.025Pb0.975Se1,418.5,0.00629,0.000004581,0.000032453,3.3287,0.052989,218292.9491377429,0.0002299055,0.0000690677
6006,10.1002/adma.201004200,80,1(a),102,Na0.025Pb0.975Se1,Na0.025Pb0.975Se1,419,0.0062858,0.0000045861,0.000032572,3.3257,0.05391,218050.1951549247,0.0002313371,0.0000695604
6006,10.1002/adma.201004200,80,1(a),102,Na0.025Pb0.975Se1,Na0.025Pb0.975Se1,419.5,0.0062817,0.0000045912,0.000032692,3.3227,0.05483,217807.980484405,0.000232786,0.0000700593
6006,10.1002/adma.201004200,80,1(a),102,Na0.025Pb0.975Se1,Na0.025Pb0.975Se1,420,0.0062776,0.0000045963,0.000032812,3.3197,0.055751,217566.3033309401,0.0002342378,0.0000705599
6006,10.1002/adma.201004200,80,1(a),102,Na0.025Pb0.975Se1,Na0.025Pb0.975Se1,420.5,0.0062734,0.0000046014,0.000032932,3.3167,0.056672,217325.1619072456,0.0002356928,0.0000710624
6006,10.1002/adma.201004200,80,1(a),102,Na0.025Pb0.975Se1,Na0.025Pb0.975Se1,421,0.0062693,0.0000046064,0.000033052,3.3138,0.057593,217089.2671066343,0.0002371558,0.0000715661
6006,10.1002/adma.201004200,80,1(a),102,Na0.025Pb0.975Se1,Na0.025Pb0.975Se1,421.5,0.0062651,0.0000046115,0.000033173,3.3108,0.058513,216849.1813943402,0.0002386312,0.0000720766
6006,10.1002/adma.201004200,80,1(a),102,Na0.025Pb0.975Se1,Na0.025Pb0.975Se1,422,0.006261,0.0000046166,0.000033294,3.3078,0.059434,216609.6261317853,0.0002401097,0.0000725889
6006,10.1002/adma.201004200,80,1(a),102,Na0.025Pb0.975Se1,Na0.025Pb0.975Se1,422.5,0.0062569,0.0000046217,0.000033415,3.3049,0.060355,216370.5995629314,0.0002415912,0.0000731009
6006,10.1002/adma.201004200,80,1(a),102,Na0.025Pb0.975Se1,Na0.025Pb0.975Se1,423,0.0062527,0.0000046268,0.000033537,3.3019,0.061276,216132.099939483,0.0002430903,0.0000736214
6006,10.1002/adma.201004200,80,1(a),102,Na0.025Pb0.975Se1,Na0.025Pb0.975Se1,423.5,0.0062486,0.0000046319,0.000033659,3.2989,0.062197,215894.1255208446,0.0002445926,0.0000741437
6006,10.1002/adma.201004200,80,1(a),102,Na0.025Pb0.975Se1,Na0.025Pb0.975Se1,424,0.0062445,0.000004637,0.00003378,3.296,0.063117,215656.6745740781,0.0002460833,0.0000746612
6006,10.1002/adma.201004200,80,1(a),102,Na0.025Pb0.975Se1,Na0.025Pb0.975Se1,424.5,0.0062403,0.0000046421,0.000033903,3.293,0.064038,215419.745373861,0.0002476063,0.0000751917
6006,10.1002/adma.201004200,80,1(a),102,Na0.025Pb0.975Se1,Na0.025Pb0.975Se1,425,0.0062362,0.0000046472,0.000034025,3.2901,0.064959,215183.3362024445,0.0002491179,0.0000757174
6006,10.1002/adma.201004200,80,1(a),102,Na0.025Pb0.975Se1,Na0.025Pb0.975Se1,425.5,0.0062321,0.0000046523,0.000034148,3.2871,0.06588,214947.445349612,0.0002506472,0.0000762518
6006,10.1002/adma.201004200,80,1(a),102,Na0.025Pb0.975Se1,Na0.025Pb0.975Se1,426,0.0062279,0.0000046574,0.000034271,3.2842,0.066801,214712.071112638,0.0002521796,0.0000767857
6006,10.1002/adma.201004200,80,1(a),102,Na0.025Pb0.975Se1,Na0.025Pb0.975Se1,426.5,0.0062238,0.0000046624,0.000034394,3.2813,0.067721,214481.8119423473,0.0002537207,0.0000773232
6006,10.1002/adma.201004200,80,1(a),102,Na0.025Pb0.975Se1,Na0.025Pb0.975Se1,427,0.0062197,0.0000046675,0.000034517,3.2783,0.068642,214247.4558114622,0.0002552594,0.0000778633
6006,10.1002/adma.201004200,80,1(a),102,Na0.025Pb0.975Se1,Na0.025Pb0.975Se1,427.5,0.0062155,0.0000046726,0.000034641,3.2754,0.069563,214013.6112656765,0.0002568161,0.0000784076
6006,10.1002/adma.201004200,80,1(a),102,Na0.025Pb0.975Se1,Na0.025Pb0.975Se1,428,0.0062114,0.0000046777,0.000034765,3.2725,0.070484,213780.276631678,0.000258376,0.0000789537
6006,10.1002/adma.201004200,80,1(a),102,Na0.025Pb0.975Se1,Na0.025Pb0.975Se1,428.5,0.0062072,0.0000046828,0.000034889,3.2695,0.071404,213547.4502434441,0.000259939,0.0000795042
6006,10.1002/adma.201004200,80,1(a),102,Na0.025Pb0.975Se1,Na0.025Pb0.975Se1,429,0.0062031,0.0000046879,0.000035013,3.2666,0.072325,213315.1304422023,0.0002615052,0.0000800542
6006,10.1002/adma.201004200,80,1(a),102,Na0.025Pb0.975Se1,Na0.025Pb0.975Se1,429.5,0.006199,0.000004693,0.000035138,3.2637,0.073246,213083.3155763904,0.0002630895,0.0000806108
6006,10.1002/adma.201004200,80,1(a),102,Na0.025Pb0.975Se1,Na0.025Pb0.975Se1,430,0.0061948,0.0000046981,0.000035263,3.2608,0.074167,212852.0040016177,0.000264677,0.0000811694
6006,10.1002/adma.201004200,80,1(a),102,Na0.025Pb0.975Se1,Na0.025Pb0.975Se1,430.5,0.0061907,0.0000047032,0.000035387,3.2579,0.075088,212621.194080626,0.0002662527,0.0000817253
6006,10.1002/adma.201004200,80,1(a),102,Na0.025Pb0.975Se1,Na0.025Pb0.975Se1,431,0.0061866,0.0000047083,0.000035513,3.255,0.076008,212390.8841832508,0.0002678617,0.0000822924
6006,10.1002/adma.201004200,80,1(a),102,Na0.025Pb0.975Se1,Na0.025Pb0.975Se1,431.5,0.0061824,0.0000047134,0.000035638,3.2521,0.076929,212161.0726863835,0.0002694588,0.0000828569
6006,10.1002/adma.201004200,80,1(a),102,Na0.025Pb0.975Se1,Na0.025Pb0.975Se1,432,0.0061783,0.0000047185,0.000035764,3.2492,0.07785,211931.7579739324,0.0002710742,0.000083428
6006,10.1002/adma.201004200,80,1(a),102,Na0.025Pb0.975Se1,Na0.025Pb0.975Se1,432.5,0.0061742,0.0000047236,0.000035889,3.2463,0.078771,211702.9384367855,0.0002726777,0.0000839965
6006,10.1002/adma.201004200,80,1(a),102,Na0.025Pb0.975Se1,Na0.025Pb0.975Se1,433,0.00617,0.0000047287,0.000036015,3.2434,0.079692,211474.6124727726,0.0002742995,0.0000845716
6006,10.1002/adma.201004200,80,1(a),102,Na0.025Pb0.975Se1,Na0.025Pb0.975Se1,433.5,0.0061659,0.0000047338,0.000036141,3.2405,0.080612,211246.7784866281,0.0002759246,0.0000851488
6006,10.1002/adma.201004200,80,1(a),102,Na0.025Pb0.975Se1,Na0.025Pb0.975Se1,434,0.0061618,0.0000047389,0.000036268,3.2376,0.081533,211019.4348899534,0.0002775682,0.0000857327
6006,10.1002/adma.201004200,80,1(a),102,Na0.025Pb0.975Se1,Na0.025Pb0.975Se1,434.5,0.0061576,0.000004744,0.000036394,3.2347,0.082454,210792.5801011804,0.0002791997,0.0000863139
6006,10.1002/adma.201004200,80,1(a),102,Na0.025Pb0.975Se1,Na0.025Pb0.975Se1,435,0.0061535,0.0000047491,0.000036521,3.2318,0.083375,210566.2125455349,0.0002808497,0.000086902
6006,10.1002/adma.201004200,80,1(a),102,Na0.025Pb0.975Se1,Na0.025Pb0.975Se1,435.5,0.0061493,0.0000047542,0.000036648,3.2289,0.084296,210340.3306549998,0.000282503,0.000087492
6006,10.1002/adma.201004200,80,1(a),102,Na0.025Pb0.975Se1,Na0.025Pb0.975Se1,436,0.0061452,0.0000047593,0.000036775,3.2261,0.085216,210114.9328682789,0.0002841596,0.0000880815
6006,10.1002/adma.201004200,80,1(a),102,Na0.025Pb0.975Se1,Na0.025Pb0.975Se1,436.5,0.0061411,0.0000047645,0.000036902,3.2232,0.086137,209885.612341274,0.0002858133,0.0000886738
6006,10.1002/adma.201004200,80,1(a),102,Na0.025Pb0.975Se1,Na0.025Pb0.975Se1,437,0.0061369,0.0000047696,0.00003703,3.2203,0.087058,209661.1875209661,0.0002874918,0.0000892749
6006,10.1002/adma.201004200,80,1(a),102,Na0.025Pb0.975Se1,Na0.025Pb0.975Se1,437.5,0.0061328,0.0000047747,0.000037157,3.2174,0.087979,209437.2421303956,0.000289158,0.0000898732
6006,10.1002/adma.201004200,80,1(a),102,Na0.025Pb0.975Se1,Na0.025Pb0.975Se1,438,0.0061287,0.0000047798,0.000037285,3.2146,0.088899,209213.774634922,0.000290843,0.0000904756
6006,10.1002/adma.201004200,80,1(a),102,Na0.025Pb0.975Se1,Na0.025Pb0.975Se1,438.5,0.0061245,0.0000047849,0.000037413,3.2117,0.08982,208990.7835064474,0.0002925312,0.000091083
6006,10.1002/adma.201004200,80,1(a),102,Na0.025Pb0.975Se1,Na0.025Pb0.975Se1,439,0.0061204,0.00000479,0.000037541,3.2089,0.090741,208768.267223382,0.0002942227,0.0000916896
6006,10.1002/adma.201004200,80,1(a),102,Na0.025Pb0.975Se1,Na0.025Pb0.975Se1,439.5,0.0061163,0.0000047951,0.000037669,3.206,0.091662,208546.2242706096,0.0002959174,0.0000923011
6006,10.1002/adma.201004200,80,1(a),102,Na0.025Pb0.975Se1,Na0.025Pb0.975Se1,440,0.0061121,0.0000048002,0.000037798,3.2032,0.092583,208324.6531394525,0.0002976311,0.0000929168
6006,10.1002/adma.201004200,80,1(a),102,Na0.025Pb0.975Se1,Na0.025Pb0.975Se1,440.5,0.006108,0.0000048054,0.000037927,3.2003,0.093503,208099.2217089108,0.0002993419,0.0000935356
6006,10.1002/adma.201004200,80,1(a),102,Na0.025Pb0.975Se1,Na0.025Pb0.975Se1,441,0.0061039,0.0000048105,0.000038055,3.1975,0.094424,207878.5988982434,0.0003010463,0.0000941505
6006,10.1002/adma.201004200,80,1(a),102,Na0.025Pb0.975Se1,Na0.025Pb0.975Se1,441.5,0.0060997,0.0000048156,0.000038184,3.1946,0.095345,207658.4433923083,0.0003027697,0.0000947755
6006,10.1002/adma.201004200,80,1(a),102,Na0.025Pb0.975Se1,Na0.025Pb0.975Se1,442,0.0060956,0.0000048207,0.000038313,3.1918,0.096266,207438.7537079677,0.0003044964,0.0000953996
6006,10.1002/adma.201004200,80,1(a),102,Na0.025Pb0.975Se1,Na0.025Pb0.975Se1,442.5,0.0060914,0.0000048258,0.000038442,3.1889,0.097187,207219.5283683534,0.0003062264,0.0000960289
6006,10.1002/adma.201004200,80,1(a),102,Na0.025Pb0.975Se1,Na0.025Pb0.975Se1,443,0.0060873,0.000004831,0.000038572,3.1861,0.098107,206996.481059822,0.0003079692,0.0000966602
6006,10.1002/adma.201004200,80,1(a),102,Na0.025Pb0.975Se1,Na0.025Pb0.975Se1,443.5,0.0060832,0.0000048361,0.000038701,3.1833,0.099028,206778.1890366204,0.0003097056,0.0000972907
6006,10.1002/adma.201004200,80,1(a),102,Na0.025Pb0.975Se1,Na0.025Pb0.975Se1,444,0.006079,0.0000048412,0.000038831,3.1804,0.099949,206560.3569362968,0.0003114613,0.0000979315
6006,10.1002/adma.201004200,80,1(a),102,Na0.025Pb0.975Se1,Na0.025Pb0.975Se1,444.5,0.0060749,0.0000048464,0.000038961,3.1776,0.10087,206338.7256520304,0.0003132138,0.0000985693
6006,10.1002/adma.201004200,80,1(a),102,Na0.025Pb0.975Se1,Na0.025Pb0.975Se1,445,0.0060708,0.0000048515,0.000039091,3.1748,0.10179,206121.8179944347,0.000314976,0.0000992113
6006,10.1002/adma.201004200,80,1(a),102,Na0.025Pb0.975Se1,Na0.025Pb0.975Se1,445.5,0.0060666,0.0000048566,0.000039221,3.172,0.10271,205905.3658938352,0.0003167415,0.0000998555
6006,10.1002/adma.201004200,80,1(a),102,Na0.025Pb0.975Se1,Na0.025Pb0.975Se1,446,0.0060625,0.0000048617,0.000039351,3.1691,0.10363,205689.3679165724,0.0003185102,0.0001005049
6006,10.1002/adma.201004200,80,1(a),102,Na0.025Pb0.975Se1,Na0.025Pb0.975Se1,446.5,0.0060584,0.0000048669,0.000039481,3.1663,0.10455,205469.6007725657,0.0003202756,0.0001011514
6006,10.1002/adma.201004200,80,1(a),102,Na0.025Pb0.975Se1,Na0.025Pb0.975Se1,447,0.0060542,0.000004872,0.000039612,3.1635,0.10547,205254.5155993432,0.000322067,0.0001018072
6006,10.1002/adma.201004200,80,1(a),102,Na0.025Pb0.975Se1,Na0.025Pb0.975Se1,447.5,0.0060501,0.0000048772,0.000039742,3.1607,0.10639,205035.6762076601,0.0003238388,0.0001024579
6006,10.1002/adma.201004200,80,1(a),102,Na0.025Pb0.975Se1,Na0.025Pb0.975Se1,448,0.006046,0.0000048823,0.000039873,3.1579,0.10732,204821.4980644369,0.0003256367,0.0001031181
6006,10.1002/adma.201004200,80,1(a),102,Na0.025Pb0.975Se1,Na0.025Pb0.975Se1,448.5,0.0060418,0.0000048874,0.000040004,3.1551,0.10824,204607.7669108319,0.0003274379,0.0001037805
6006,10.1002/adma.201004200,80,1(a),102,Na0.025Pb0.975Se1,Na0.025Pb0.975Se1,449,0.0060377,0.0000048926,0.000040135,3.1523,0.10916,204390.3037239913,0.0003292356,0.000104443
6006,10.1002/adma.201004200,80,1(a),102,Na0.025Pb0.975Se1,Na0.025Pb0.975Se1,449.5,0.0060335,0.0000048977,0.000040266,3.1495,0.11008,204177.4710578435,0.0003310433,0.0001051098
6006,10.1002/adma.201004200,80,1(a),102,Na0.025Pb0.975Se1,Na0.025Pb0.975Se1,450,0.0060294,0.0000049029,0.000040397,3.1467,0.111,203960.9210875196,0.0003328474,0.0001057767
6006,10.1002/adma.201004200,80,1(a),102,Na0.025Pb0.975Se1,Na0.025Pb0.975Se1,450.5,0.0060253,0.000004908,0.000040528,3.1439,0.11192,203748.9812550937,0.0003346615,0.0001064479
6006,10.1002/adma.201004200,80,1(a),102,Na0.025Pb0.975Se1,Na0.025Pb0.975Se1,451,0.0060211,0.0000049132,0.000040659,3.1411,0.11284,203533.338760889,0.000336472,0.0001071192
6006,10.1002/adma.201004200,80,1(a),102,Na0.025Pb0.975Se1,Na0.025Pb0.975Se1,451.5,0.006017,0.0000049183,0.000040791,3.1383,0.11376,203322.2861557856,0.0003383091,0.0001078001
6006,10.1002/adma.201004200,80,1(a),102,Na0.025Pb0.975Se1,Na0.025Pb0.975Se1,452,0.0060129,0.0000049235,0.000040923,3.1355,0.11468,203107.5454453133,0.0003401426,0.0001084811
6006,10.1002/adma.201004200,80,1(a),102,Na0.025Pb0.975Se1,Na0.025Pb0.975Se1,452.5,0.0060087,0.0000049286,0.000041054,3.1327,0.1156,202897.3745079739,0.0003419695,0.0001091613
6006,10.1002/adma.201004200,80,1(a),102,Na0.025Pb0.975Se1,Na0.025Pb0.975Se1,453,0.0060046,0.0000049338,0.000041186,3.1299,0.11652,202683.5299363574,0.0003438094,0.0001098468
6006,10.1002/adma.201004200,80,1(a),102,Na0.025Pb0.975Se1,Na0.025Pb0.975Se1,453.5,0.0060005,0.000004939,0.000041318,3.1272,0.11744,202470.1356549909,0.0003456524,0.0001105309
6006,10.1002/adma.201004200,80,1(a),102,Na0.025Pb0.975Se1,Na0.025Pb0.975Se1,454,0.0059963,0.0000049441,0.00004145,3.1244,0.11836,202261.2811229546,0.0003475056,0.0001112232
6006,10.1002/adma.201004200,80,1(a),102,Na0.025Pb0.975Se1,Na0.025Pb0.975Se1,454.5,0.0059922,0.0000049493,0.000041582,3.1216,0.11929,202048.7745741822,0.000349355,0.0001119154
6006,10.1002/adma.201004200,80,1(a),102,Na0.025Pb0.975Se1,Na0.025Pb0.975Se1,455,0.0059881,0.0000049545,0.000041714,3.1188,0.12021,201836.7140982945,0.0003512075,0.0001126098
6006,10.1002/adma.201004200,80,1(a),102,Na0.025Pb0.975Se1,Na0.025Pb0.975Se1,455.5,0.0059839,0.0000049596,0.000041847,3.1161,0.12113,201629.1636422292,0.0003530872,0.0001133106
6006,10.1002/adma.201004200,80,1(a),102,Na0.025Pb0.975Se1,Na0.025Pb0.975Se1,456,0.0059798,0.0000049648,0.000041979,3.1133,0.12205,201417.9825974863,0.0003549461,0.0001140096
6006,10.1002/adma.201004200,80,1(a),102,Na0.025Pb0.975Se1,Na0.025Pb0.975Se1,456.5,0.0059756,0.00000497,0.000042111,3.1105,0.12297,201207.2434607646,0.0003568081,0.0001147109
6006,10.1002/adma.201004200,80,1(a),102,Na0.025Pb0.975Se1,Na0.025Pb0.975Se1,457,0.0059715,0.0000049752,0.000042244,3.1078,0.12389,200996.9448464383,0.0003586902,0.0001154161
6006,10.1002/adma.201004200,80,1(a),102,Na0.025Pb0.975Se1,Na0.025Pb0.975Se1,457.5,0.0059674,0.0000049803,0.000042377,3.105,0.12481,200791.1170009839,0.0003605827,0.0001161297
6006,10.1002/adma.201004200,80,1(a),102,Na0.025Pb0.975Se1,Na0.025Pb0.975Se1,458,0.0059632,0.0000049855,0.000042509,3.1022,0.12573,200581.6868919868,0.0003624541,0.0001168378