sid,DOI,figureid,fignum,sampleid,samplename,composition,Temperature,Carrier mobility,Electrical resistivity,Seebeck coefficient,Thermal conductivity,ZT,Electrical conductivity,Power factor,Figure of merit Z
6006,10.1002/adma.201004200,80,1(a),324,Na0.007Pb0.993Se1,Na0.007Pb0.993Se1,809.5,0.0035451,0.000024042,0.00019504,1.1271,1.0249,41593.8773812495,0.0015822561,0.0014038294
6006,10.1002/adma.201004200,80,1(a),324,Na0.007Pb0.993Se1,Na0.007Pb0.993Se1,810,0.0035302,0.000024092,0.00019522,1.1265,1.0261,41507.5543748962,0.0015818881,0.0014042504
6006,10.1002/adma.201004200,80,1(a),324,Na0.007Pb0.993Se1,Na0.007Pb0.993Se1,810.5,0.0035154,0.000024142,0.00019541,1.1258,1.0273,41421.5889321514,0.0015816862,0.0014049442
6006,10.1002/adma.201004200,80,1(a),324,Na0.007Pb0.993Se1,Na0.007Pb0.993Se1,811,0.0035006,0.000024192,0.00019559,1.1251,1.0284,41335.9788359788,0.0015813264,0.0014054985
6006,10.1002/adma.201004200,80,1(a),324,Na0.007Pb0.993Se1,Na0.007Pb0.993Se1,811.5,0.0034857,0.000024243,0.00019578,1.1244,1.0296,41249.020335767,0.001581067,0.0014061429
6006,10.1002/adma.201004200,80,1(a),324,Na0.007Pb0.993Se1,Na0.007Pb0.993Se1,812,0.0034709,0.000024293,0.00019596,1.1238,1.0308,41164.1213518297,0.0015807155,0.0014065808
6006,10.1002/adma.201004200,80,1(a),324,Na0.007Pb0.993Se1,Na0.007Pb0.993Se1,812.5,0.0034561,0.000024344,0.00019615,1.1231,1.032,41077.8836674335,0.0015804643,0.0014072338
6006,10.1002/adma.201004200,80,1(a),324,Na0.007Pb0.993Se1,Na0.007Pb0.993Se1,813,0.0034413,0.000024394,0.00019633,1.1224,1.0332,40993.6869722063,0.0015801209,0.0014078055
6006,10.1002/adma.201004200,80,1(a),324,Na0.007Pb0.993Se1,Na0.007Pb0.993Se1,813.5,0.0034264,0.000024445,0.00019651,1.1218,1.0344,40908.161178155,0.0015797169,0.0014081984
6006,10.1002/adma.201004200,80,1(a),324,Na0.007Pb0.993Se1,Na0.007Pb0.993Se1,814,0.0034116,0.000024496,0.0001967,1.1211,1.0356,40822.9915088178,0.0015794779,0.0014088644
6006,10.1002/adma.201004200,80,1(a),324,Na0.007Pb0.993Se1,Na0.007Pb0.993Se1,814.5,0.0033968,0.000024546,0.00019688,1.1205,1.0368,40739.8354110649,0.0015791467,0.0014093232
6006,10.1002/adma.201004200,80,1(a),324,Na0.007Pb0.993Se1,Na0.007Pb0.993Se1,815,0.0033819,0.000024597,0.00019706,1.1198,1.038,40655.3644753425,0.0015787553,0.0014098547
6006,10.1002/adma.201004200,80,1(a),324,Na0.007Pb0.993Se1,Na0.007Pb0.993Se1,815.5,0.0033671,0.000024648,0.00019724,1.1192,1.0391,40571.2431028887,0.0015783681,0.0014102646
6006,10.1002/adma.201004200,80,1(a),324,Na0.007Pb0.993Se1,Na0.007Pb0.993Se1,816,0.0033523,0.000024699,0.00019743,1.1185,1.0403,40487.4691283048,0.0015781451,0.0014109478
6006,10.1002/adma.201004200,80,1(a),324,Na0.007Pb0.993Se1,Na0.007Pb0.993Se1,816.5,0.0033375,0.00002475,0.00019761,1.1179,1.0415,40404.0404040404,0.0015777661,0.0014113661
6006,10.1002/adma.201004200,80,1(a),324,Na0.007Pb0.993Se1,Na0.007Pb0.993Se1,817,0.0033226,0.000024802,0.00019779,1.1172,1.0427,40319.329086364,0.0015773278,0.001411858
6006,10.1002/adma.201004200,80,1(a),324,Na0.007Pb0.993Se1,Na0.007Pb0.993Se1,817.5,0.0033078,0.000024853,0.00019797,1.1166,1.0439,40236.5911559973,0.0015769573,0.0014122849
6006,10.1002/adma.201004200,80,1(a),324,Na0.007Pb0.993Se1,Na0.007Pb0.993Se1,818,0.003293,0.000024904,0.00019815,1.1159,1.0451,40154.192097655,0.001576591,0.0014128426
6006,10.1002/adma.201004200,80,1(a),324,Na0.007Pb0.993Se1,Na0.007Pb0.993Se1,818.5,0.0032781,0.000024956,0.00019833,1.1153,1.0463,40070.5241224555,0.0015761656,0.0014132212
6006,10.1002/adma.201004200,80,1(a),324,Na0.007Pb0.993Se1,Na0.007Pb0.993Se1,819,0.0032633,0.000025008,0.00019851,1.1147,1.0475,39987.2040946897,0.0015757446,0.0014136042
6006,10.1002/adma.201004200,80,1(a),324,Na0.007Pb0.993Se1,Na0.007Pb0.993Se1,819.5,0.0032485,0.000025059,0.00019869,1.114,1.0486,39905.8222594677,0.0015753907,0.0014141748
6006,10.1002/adma.201004200,80,1(a),324,Na0.007Pb0.993Se1,Na0.007Pb0.993Se1,820,0.0032337,0.000025111,0.00019887,1.1134,1.0498,39823.185058341,0.0015749782,0.0014145663
6006,10.1002/adma.201004200,80,1(a),324,Na0.007Pb0.993Se1,Na0.007Pb0.993Se1,820.5,0.0032188,0.000025163,0.00019905,1.1128,1.051,39740.8894011048,0.0015745699,0.0014149622
6006,10.1002/adma.201004200,80,1(a),324,Na0.007Pb0.993Se1,Na0.007Pb0.993Se1,821,0.003204,0.000025215,0.00019923,1.1121,1.0522,39658.9331746976,0.0015741659,0.0014154895
6006,10.1002/adma.201004200,80,1(a),324,Na0.007Pb0.993Se1,Na0.007Pb0.993Se1,821.5,0.0031892,0.000025267,0.00019941,1.1115,1.0534,39577.3142834527,0.0015737661,0.0014158939
6006,10.1002/adma.201004200,80,1(a),324,Na0.007Pb0.993Se1,Na0.007Pb0.993Se1,822,0.0031744,0.000025319,0.00019959,1.1109,1.0546,39496.0306489198,0.0015733705,0.0014163026
6006,10.1002/adma.201004200,80,1(a),324,Na0.007Pb0.993Se1,Na0.007Pb0.993Se1,822.5,0.0031595,0.000025371,0.00019977,1.1103,1.0558,39415.0802096882,0.0015729791,0.0014167154
6006,10.1002/adma.201004200,80,1(a),324,Na0.007Pb0.993Se1,Na0.007Pb0.993Se1,823,0.0031447,0.000025423,0.00019995,1.1096,1.057,39334.4609212131,0.0015725918,0.0014172601
6006,10.1002/adma.201004200,80,1(a),324,Na0.007Pb0.993Se1,Na0.007Pb0.993Se1,823.5,0.0031299,0.000025476,0.00020013,1.109,1.0582,39252.6299262051,0.001572147,0.0014176258
6006,10.1002/adma.201004200,80,1(a),324,Na0.007Pb0.993Se1,Na0.007Pb0.993Se1,824,0.003115,0.000025528,0.0002003,1.1084,1.0593,39172.6731432153,0.0015716112,0.0014179098
6006,10.1002/adma.201004200,80,1(a),324,Na0.007Pb0.993Se1,Na0.007Pb0.993Se1,824.5,0.0031002,0.00002558,0.00020048,1.1078,1.0605,39093.0414386239,0.0015712365,0.0014183395
6006,10.1002/adma.201004200,80,1(a),324,Na0.007Pb0.993Se1,Na0.007Pb0.993Se1,825,0.0030854,0.000025633,0.00020066,1.1072,1.0617,39012.2108219873,0.0015708047,0.0014187181
6006,10.1002/adma.201004200,80,1(a),324,Na0.007Pb0.993Se1,Na0.007Pb0.993Se1,825.5,0.0030706,0.000025686,0.00020083,1.1066,1.0629,38931.7137740403,0.0015702207,0.0014189596
6006,10.1002/adma.201004200,80,1(a),324,Na0.007Pb0.993Se1,Na0.007Pb0.993Se1,826,0.0030557,0.000025739,0.00020101,1.1059,1.0641,38851.5482341971,0.0015697976,0.0014194752
6006,10.1002/adma.201004200,80,1(a),324,Na0.007Pb0.993Se1,Na0.007Pb0.993Se1,826.5,0.0030409,0.000025791,0.00020119,1.1053,1.0653,38773.2154627583,0.0015694396,0.0014199218
6006,10.1002/adma.201004200,80,1(a),324,Na0.007Pb0.993Se1,Na0.007Pb0.993Se1,827,0.0030261,0.000025844,0.00020136,1.1047,1.0665,38693.7006655317,0.001568869,0.0014201765
6006,10.1002/adma.201004200,80,1(a),324,Na0.007Pb0.993Se1,Na0.007Pb0.993Se1,827.5,0.0030112,0.000025897,0.00020154,1.1041,1.0677,38614.5113333591,0.0015684586,0.0014205766
6006,10.1002/adma.201004200,80,1(a),324,Na0.007Pb0.993Se1,Na0.007Pb0.993Se1,828,0.0029964,0.00002595,0.00020171,1.1035,1.0689,38535.6454720617,0.0015678969,0.0014208399
6006,10.1002/adma.201004200,80,1(a),324,Na0.007Pb0.993Se1,Na0.007Pb0.993Se1,828.5,0.0029816,0.000026004,0.00020189,1.1029,1.07,38455.6222119674,0.0015674347,0.0014211939
6006,10.1002/adma.201004200,19,3(a),324,Na0.007Pb0.993Se1,Na0.007Pb0.993Se1,300.5,0.01864,0.0000037934,,3.8293,-0.18485,263615.7536774398,,
6006,10.1002/adma.201004200,19,3(a),324,Na0.007Pb0.993Se1,Na0.007Pb0.993Se1,301,0.018625,0.0000037941,,3.8211,-0.18366,263567.1173664374,,
6006,10.1002/adma.201004200,19,3(a),324,Na0.007Pb0.993Se1,Na0.007Pb0.993Se1,301.5,0.01861,0.0000037948,,3.813,-0.18247,263518.4989986297,,
6006,10.1002/adma.201004200,19,3(a),324,Na0.007Pb0.993Se1,Na0.007Pb0.993Se1,302,0.018595,0.0000037956,,3.8049,-0.18128,263462.9571082306,,
6006,10.1002/adma.201004200,19,3(a),324,Na0.007Pb0.993Se1,Na0.007Pb0.993Se1,302.5,0.018581,0.0000037964,,3.7969,-0.1801,263407.4386260668,,
6006,10.1002/adma.201004200,19,3(a),324,Na0.007Pb0.993Se1,Na0.007Pb0.993Se1,303,0.018566,0.0000037973,,3.7889,-0.17891,263345.0082953678,,
6006,10.1002/adma.201004200,19,3(a),324,Na0.007Pb0.993Se1,Na0.007Pb0.993Se1,303.5,0.018551,0.0000037982,,3.7809,-0.17772,263282.6075509452,,
6006,10.1002/adma.201004200,19,3(a),324,Na0.007Pb0.993Se1,Na0.007Pb0.993Se1,304,0.018536,0.0000037992,,3.773,-0.17653,263213.3080648558,,
6006,10.1002/adma.201004200,19,3(a),324,Na0.007Pb0.993Se1,Na0.007Pb0.993Se1,304.5,0.018521,0.0000038003,,3.765,-0.17534,263137.1207536247,,
6006,10.1002/adma.201004200,19,3(a),324,Na0.007Pb0.993Se1,Na0.007Pb0.993Se1,829,0.0029668,0.000026057,,1.1023,1.0712,38377.403384887,,
6006,10.1002/adma.201004200,19,3(a),324,Na0.007Pb0.993Se1,Na0.007Pb0.993Se1,829.5,0.0029519,0.00002611,,1.1017,1.0724,38299.5021064726,,
6006,10.1002/adma.201004200,19,3(a),324,Na0.007Pb0.993Se1,Na0.007Pb0.993Se1,830,0.0029371,0.000026164,,1.1011,1.0736,38220.4555878306,,
6006,10.1002/adma.201004200,19,3(a),324,Na0.007Pb0.993Se1,Na0.007Pb0.993Se1,830.5,0.0029223,0.000026217,,1.1005,1.0748,38143.1895335088,,
6006,10.1002/adma.201004200,19,3(a),324,Na0.007Pb0.993Se1,Na0.007Pb0.993Se1,831,0.0029074,0.000026271,,1.0999,1.076,38064.7862662251,,
6006,10.1002/adma.201004200,19,3(a),324,Na0.007Pb0.993Se1,Na0.007Pb0.993Se1,831.5,0.0028926,0.000026324,,1.0994,1.0772,37988.1476979182,,
6006,10.1002/adma.201004200,19,3(a),324,Na0.007Pb0.993Se1,Na0.007Pb0.993Se1,832,0.0028778,0.000026378,,1.0988,1.0784,37910.3798620062,,
6006,10.1002/adma.201004200,19,3(a),324,Na0.007Pb0.993Se1,Na0.007Pb0.993Se1,832.5,0.002863,0.000026432,,1.0982,1.0795,37832.9297820823,,
6006,10.1002/adma.201004200,19,3(a),324,Na0.007Pb0.993Se1,Na0.007Pb0.993Se1,833,0.0028481,0.000026486,,1.0976,1.0807,37755.7955146115,,
6006,10.1002/adma.201004200,19,3(a),324,Na0.007Pb0.993Se1,Na0.007Pb0.993Se1,833.5,0.0028333,0.00002654,,1.097,1.0819,37678.9751318764,,
6006,10.1002/adma.201004200,19,3(a),324,Na0.007Pb0.993Se1,Na0.007Pb0.993Se1,834,0.0028185,0.000026594,,1.0964,1.0831,37602.4667218169,,
6006,10.1002/adma.201004200,19,3(a),324,Na0.007Pb0.993Se1,Na0.007Pb0.993Se1,834.5,0.0028037,0.000026648,,1.0958,1.0843,37526.2683878715,,
6006,10.1002/adma.201004200,19,3(a),324,Na0.007Pb0.993Se1,Na0.007Pb0.993Se1,835,0.0027888,0.000026703,,1.0953,1.0855,37448.9757705127,,
6006,10.1002/adma.201004200,19,3(a),324,Na0.007Pb0.993Se1,Na0.007Pb0.993Se1,835.5,0.002774,0.000026757,,1.0947,1.0867,37373.3976155772,,
6006,10.1002/adma.201004200,19,3(a),324,Na0.007Pb0.993Se1,Na0.007Pb0.993Se1,836,0.0027592,0.000026811,,1.0941,1.0879,37298.1239043676,,
6006,10.1002/adma.201004200,19,3(a),324,Na0.007Pb0.993Se1,Na0.007Pb0.993Se1,836.5,0.0027443,0.000026866,,1.0935,1.0891,37221.7672895109,,
6006,10.1002/adma.201004200,19,3(a),324,Na0.007Pb0.993Se1,Na0.007Pb0.993Se1,837,0.0027295,0.00002692,,1.093,1.0902,37147.102526003,,
6006,10.1002/adma.201004200,19,3(a),324,Na0.007Pb0.993Se1,Na0.007Pb0.993Se1,837.5,0.0027147,,,1.0924,1.0914,,,
6006,10.1002/adma.201004200,19,3(a),324,Na0.007Pb0.993Se1,Na0.007Pb0.993Se1,838,0.0026999,,,1.0918,1.0926,,,
6006,10.1002/adma.201004200,19,3(a),324,Na0.007Pb0.993Se1,Na0.007Pb0.993Se1,838.5,0.002685,,,1.0913,1.0938,,,
6006,10.1002/adma.201004200,19,3(a),324,Na0.007Pb0.993Se1,Na0.007Pb0.993Se1,839,0.0026702,,,1.0907,1.095,,,
6006,10.1002/adma.201004200,19,3(a),324,Na0.007Pb0.993Se1,Na0.007Pb0.993Se1,839.5,0.0026554,,,1.0901,1.0962,,,
6006,10.1002/adma.201004200,19,3(a),324,Na0.007Pb0.993Se1,Na0.007Pb0.993Se1,840,0.0026405,,,1.0895,1.0974,,,
6006,10.1002/adma.201004200,19,3(a),324,Na0.007Pb0.993Se1,Na0.007Pb0.993Se1,840.5,0.0026257,,,1.089,1.0986,,,
6006,10.1002/adma.201004200,19,3(a),324,Na0.007Pb0.993Se1,Na0.007Pb0.993Se1,841,0.0026109,,,1.0884,1.0997,,,
6006,10.1002/adma.201004200,19,3(a),324,Na0.007Pb0.993Se1,Na0.007Pb0.993Se1,841.5,0.0025961,,,1.0879,1.1009,,,
6006,10.1002/adma.201004200,19,3(a),324,Na0.007Pb0.993Se1,Na0.007Pb0.993Se1,842,0.0025812,,,1.0873,1.1021,,,
6006,10.1002/adma.201004200,19,3(a),324,Na0.007Pb0.993Se1,Na0.007Pb0.993Se1,842.5,0.0025664,,,1.0867,1.1033,,,
6006,10.1002/adma.201004200,19,3(a),324,Na0.007Pb0.993Se1,Na0.007Pb0.993Se1,843,0.0025516,,,1.0862,1.1045,,,
6006,10.1002/adma.201004200,19,3(a),324,Na0.007Pb0.993Se1,Na0.007Pb0.993Se1,843.5,0.0025368,,,1.0856,1.1057,,,
6006,10.1002/adma.201004200,19,3(a),324,Na0.007Pb0.993Se1,Na0.007Pb0.993Se1,844,0.0025219,,,1.0851,1.1069,,,
6006,10.1002/adma.201004200,19,3(a),324,Na0.007Pb0.993Se1,Na0.007Pb0.993Se1,844.5,0.0025071,,,1.0845,1.1081,,,
6006,10.1002/adma.201004200,19,3(a),324,Na0.007Pb0.993Se1,Na0.007Pb0.993Se1,845,0.0024923,,,1.084,1.1093,,,
6006,10.1002/adma.201004200,19,3(a),324,Na0.007Pb0.993Se1,Na0.007Pb0.993Se1,845.5,0.0024774,,,1.0834,1.1104,,,
6006,10.1002/adma.201004200,19,3(a),324,Na0.007Pb0.993Se1,Na0.007Pb0.993Se1,846,0.0024626,,,1.0829,1.1116,,,
6006,10.1002/adma.201004200,19,3(a),324,Na0.007Pb0.993Se1,Na0.007Pb0.993Se1,846.5,0.0024478,,,1.0823,1.1128,,,
6006,10.1002/adma.201004200,19,3(a),324,Na0.007Pb0.993Se1,Na0.007Pb0.993Se1,847,0.002433,,,1.0818,1.114,,,
6006,10.1002/adma.201004200,19,3(a),324,Na0.007Pb0.993Se1,Na0.007Pb0.993Se1,847.5,0.0024181,,,1.0812,1.1152,,,
6006,10.1002/adma.201004200,19,3(a),324,Na0.007Pb0.993Se1,Na0.007Pb0.993Se1,848,0.0024033,,,1.0807,1.1164,,,
6006,10.1002/adma.201004200,19,3(a),324,Na0.007Pb0.993Se1,Na0.007Pb0.993Se1,848.5,0.0023885,,,1.0801,1.1176,,,
6006,10.1002/adma.201004200,19,3(a),324,Na0.007Pb0.993Se1,Na0.007Pb0.993Se1,849,0.0023736,,,1.0796,1.1188,,,
6006,10.1002/adma.201004200,19,3(a),324,Na0.007Pb0.993Se1,Na0.007Pb0.993Se1,849.5,0.0023588,,,1.079,1.12,,,
6006,10.1002/adma.201004200,7,2(a),324,Na0.007Pb0.993Se1,Na0.007Pb0.993Se1,295,,0.0000037904,,,,263824.3984803715,,
6006,10.1002/adma.201004200,7,2(a),324,Na0.007Pb0.993Se1,Na0.007Pb0.993Se1,295.5,,0.0000037903,,,,263831.3589953302,,
6006,10.1002/adma.201004200,7,2(a),324,Na0.007Pb0.993Se1,Na0.007Pb0.993Se1,296,,0.0000037904,,,,263824.3984803715,,
6006,10.1002/adma.201004200,7,2(a),324,Na0.007Pb0.993Se1,Na0.007Pb0.993Se1,296.5,0.018759,0.0000037905,,,,263817.4383326738,,
6006,10.1002/adma.201004200,7,2(a),324,Na0.007Pb0.993Se1,Na0.007Pb0.993Se1,297,0.018744,0.0000037906,,,,263810.4785522081,,
6006,10.1002/adma.201004200,7,2(a),324,Na0.007Pb0.993Se1,Na0.007Pb0.993Se1,297.5,0.018729,0.0000037908,,,,263796.5600928564,,
6006,10.1002/adma.201004200,7,2(a),324,Na0.007Pb0.993Se1,Na0.007Pb0.993Se1,298,0.018714,0.0000037911,,,,263775.6851573422,,
6006,10.1002/adma.201004200,7,2(a),324,Na0.007Pb0.993Se1,Na0.007Pb0.993Se1,298.5,0.018699,0.0000037915,,,,263747.8570486614,,
6006,10.1002/adma.201004200,7,2(a),324,Na0.007Pb0.993Se1,Na0.007Pb0.993Se1,299,0.018684,0.0000037919,,,,263720.0348110446,,
6006,10.1002/adma.201004200,7,2(a),324,Na0.007Pb0.993Se1,Na0.007Pb0.993Se1,299.5,0.01867,0.0000037923,,,,263692.2184426337,,
6006,10.1002/adma.201004200,7,2(a),324,Na0.007Pb0.993Se1,Na0.007Pb0.993Se1,300,0.018655,0.0000037929,,,,263650.5048907169,,
6006,10.1002/adma.201004200,4842,4,324,Na0.007Pb0.993Se1,Na0.007Pb0.993Se1,850,0.002344,,,,1.1211,,,
6006,10.1002/adma.201004200,4842,4,324,Na0.007Pb0.993Se1,Na0.007Pb0.993Se1,850.5,0.0023292,,,,1.1223,,,
6006,10.1002/adma.201004200,4842,4,324,Na0.007Pb0.993Se1,Na0.007Pb0.993Se1,851,0.0023143,,,,1.1235,,,
6006,10.1002/adma.201004200,4842,4,324,Na0.007Pb0.993Se1,Na0.007Pb0.993Se1,851.5,0.0022995,,,,1.1247,,,
6006,10.1002/adma.201004200,4842,4,324,Na0.007Pb0.993Se1,Na0.007Pb0.993Se1,852,0.0022847,,,,1.1259,,,
6006,10.1002/adma.201004200,25442,2b,324,Na0.007Pb0.993Se1,Na0.007Pb0.993Se1,852.5,0.0022698,,,,,,,
6006,10.1002/adma.201004200,25442,2b,324,Na0.007Pb0.993Se1,Na0.007Pb0.993Se1,853,0.002255,,,,,,,
6006,10.1002/adma.201004200,25442,2b,324,Na0.007Pb0.993Se1,Na0.007Pb0.993Se1,853.5,0.0022402,,,,,,,
6006,10.1002/adma.201004200,25442,2b,324,Na0.007Pb0.993Se1,Na0.007Pb0.993Se1,854,0.0022254,,,,,,,
6006,10.1002/adma.201004200,25442,2b,324,Na0.007Pb0.993Se1,Na0.007Pb0.993Se1,854.5,0.0022105,,,,,,,
6006,10.1002/adma.201004200,25442,2b,324,Na0.007Pb0.993Se1,Na0.007Pb0.993Se1,855,0.0021957,,,,,,,
6006,10.1002/adma.201004200,25442,2b,324,Na0.007Pb0.993Se1,Na0.007Pb0.993Se1,855.5,0.0021809,,,,,,,
6006,10.1002/adma.201004200,80,1(a),73,Na0.005Pb0.995Se1,Na0.005Pb0.995Se1,305,0.022775,0.0000041264,0.000042009,3.5319,0.036932,242341.9930205506,0.0004276745,0.0001210891
6006,10.1002/adma.201004200,80,1(a),73,Na0.005Pb0.995Se1,Na0.005Pb0.995Se1,305.5,0.022756,0.0000041265,0.000042111,3.5238,0.037257,242336.1201987156,0.0004297434,0.0001219546
6006,10.1002/adma.201004200,80,1(a),73,Na0.005Pb0.995Se1,Na0.005Pb0.995Se1,306,0.022737,0.0000041266,0.000042214,3.5158,0.037585,242330.2476615131,0.0004318378,0.0001228277
6006,10.1002/adma.201004200,80,1(a),73,Na0.005Pb0.995Se1,Na0.005Pb0.995Se1,306.5,0.022719,0.0000041269,0.000042316,3.5078,0.037912,242312.6317574935,0.0004338956,0.0001236945
6006,10.1002/adma.201004200,80,1(a),73,Na0.005Pb0.995Se1,Na0.005Pb0.995Se1,307,0.0227,0.0000041273,0.000042419,3.4998,0.038243,242289.1478690669,0.0004359682,0.0001245695
6006,10.1002/adma.201004200,80,1(a),73,Na0.005Pb0.995Se1,Na0.005Pb0.995Se1,307.5,0.022681,0.0000041278,0.000042523,3.4919,0.038576,242259.7994088861,0.0004380555,0.000125449
6006,10.1002/adma.201004200,80,1(a),73,Na0.005Pb0.995Se1,Na0.005Pb0.995Se1,308,0.022662,0.0000041283,0.000042626,3.484,0.038909,242230.4580577962,0.0004401269,0.000126328
6006,10.1002/adma.201004200,80,1(a),73,Na0.005Pb0.995Se1,Na0.005Pb0.995Se1,308.5,0.022643,0.0000041289,0.00004273,3.4761,0.039246,242195.2578168519,0.0004422129,0.0001272152
6006,10.1002/adma.201004200,80,1(a),73,Na0.005Pb0.995Se1,Na0.005Pb0.995Se1,309,0.022624,0.0000041297,0.000042834,3.4683,0.039582,242148.3400731288,0.000444282,0.0001280979
6006,10.1002/adma.201004200,80,1(a),73,Na0.005Pb0.995Se1,Na0.005Pb0.995Se1,309.5,0.022605,0.0000041305,0.000042939,3.4605,0.039923,242101.440503571,0.0004463764,0.0001289919
6006,10.1002/adma.201004200,80,1(a),73,Na0.005Pb0.995Se1,Na0.005Pb0.995Se1,310,0.022586,0.0000041314,0.000043044,3.4527,0.040265,242048.7001984799,0.0004484644,0.000129888
6006,10.1002/adma.201004200,80,1(a),73,Na0.005Pb0.995Se1,Na0.005Pb0.995Se1,310.5,0.022567,0.0000041324,0.000043149,3.445,0.040608,241990.1268028265,0.000450546,0.0001307826
6006,10.1002/adma.201004200,80,1(a),73,Na0.005Pb0.995Se1,Na0.005Pb0.995Se1,311,0.022548,0.0000041334,0.000043254,3.4373,0.040953,241931.5817486815,0.0004526319,0.0001316824
6006,10.1002/adma.201004200,80,1(a),73,Na0.005Pb0.995Se1,Na0.005Pb0.995Se1,311.5,0.022529,0.0000041346,0.000043359,3.4296,0.041299,241861.3650655444,0.0004547001,0.0001325811
6006,10.1002/adma.201004200,80,1(a),73,Na0.005Pb0.995Se1,Na0.005Pb0.995Se1,312,0.02251,0.0000041358,0.000043465,3.422,0.041648,241791.1891290681,0.0004567934,0.0001334873
6006,10.1002/adma.201004200,80,1(a),73,Na0.005Pb0.995Se1,Na0.005Pb0.995Se1,312.5,0.022491,0.0000041371,0.000043571,3.4144,0.041999,241715.2111382369,0.0004588799,0.0001343955
6006,10.1002/adma.201004200,80,1(a),73,Na0.005Pb0.995Se1,Na0.005Pb0.995Se1,313,0.022472,0.0000041385,0.000043678,3.4068,0.042353,241633.4420683823,0.0004609805,0.0001353119
6006,10.1002/adma.201004200,80,1(a),73,Na0.005Pb0.995Se1,Na0.005Pb0.995Se1,313.5,0.022453,0.00000414,0.000043784,3.3992,0.042706,241545.8937198067,0.0004630528,0.0001362241
6006,10.1002/adma.201004200,80,1(a),73,Na0.005Pb0.995Se1,Na0.005Pb0.995Se1,314,0.022434,0.0000041416,0.000043891,3.3917,0.043062,241452.5787135407,0.000465139,0.0001371404
6006,10.1002/adma.201004200,80,1(a),73,Na0.005Pb0.995Se1,Na0.005Pb0.995Se1,314.5,0.022415,0.0000041432,0.000043998,3.3842,0.04342,241359.3357791079,0.0004672292,0.0001380619
6006,10.1002/adma.201004200,80,1(a),73,Na0.005Pb0.995Se1,Na0.005Pb0.995Se1,315,0.022396,0.000004145,0.000044106,3.3768,0.04378,241254.523522316,0.0004693219,0.0001389842
6006,10.1002/adma.201004200,80,1(a),73,Na0.005Pb0.995Se1,Na0.005Pb0.995Se1,315.5,0.022378,0.0000041468,0.000044213,3.3694,0.04414,241149.8022571622,0.0004713971,0.0001399053
6006,10.1002/adma.201004200,80,1(a),73,Na0.005Pb0.995Se1,Na0.005Pb0.995Se1,316,0.022359,0.0000041487,0.000044321,3.362,-0.044687,241039.3617277702,0.0004734859,0.0001408346
6006,10.1002/adma.201004200,80,1(a),73,Na0.005Pb0.995Se1,Na0.005Pb0.995Se1,316.5,0.02234,0.0000041506,0.00004443,3.3546,-0.043668,240929.0223100275,0.0004755999,0.0001417754