sid,DOI,figureid,fignum,sampleid,samplename,composition,Temperature,Carrier mobility,Electrical resistivity,Seebeck coefficient,Thermal conductivity,ZT,Electrical conductivity,Power factor,Figure of merit Z
6006,10.1002/adma.201004200,80,1(a),73,Na0.005Pb0.995Se1,Na0.005Pb0.995Se1,719.5,0.0070693,0.000020395,0.00017142,1.1988,0.77783,49031.625398382,0.0014407853,0.0012018563
6006,10.1002/adma.201004200,80,1(a),73,Na0.005Pb0.995Se1,Na0.005Pb0.995Se1,720,0.0070503,0.000020443,0.00017162,1.1978,0.77884,48916.4995352933,0.0014407584,0.0012028372
6006,10.1002/adma.201004200,80,1(a),73,Na0.005Pb0.995Se1,Na0.005Pb0.995Se1,720.5,0.0070314,0.000020491,0.00017183,1.1968,0.77986,48801.913034991,0.0014409033,0.0012039633
6006,10.1002/adma.201004200,80,1(a),73,Na0.005Pb0.995Se1,Na0.005Pb0.995Se1,721,0.0070124,0.000020539,0.00017204,1.1959,0.78088,48687.8621159745,0.0014410517,0.0012049935
6006,10.1002/adma.201004200,80,1(a),73,Na0.005Pb0.995Se1,Na0.005Pb0.995Se1,721.5,0.0069935,0.000020587,0.00017224,1.1949,0.7819,48574.3430320105,0.0014410365,0.0012059892
6006,10.1002/adma.201004200,80,1(a),73,Na0.005Pb0.995Se1,Na0.005Pb0.995Se1,722,0.0069746,0.000020635,0.00017245,1.1939,0.78292,48461.3520717228,0.0014411923,0.0012071298
6006,10.1002/adma.201004200,80,1(a),73,Na0.005Pb0.995Se1,Na0.005Pb0.995Se1,722.5,0.0069556,0.000020683,0.00017265,1.193,0.78394,48348.8855581879,0.0014411847,0.0012080341
6006,10.1002/adma.201004200,80,1(a),73,Na0.005Pb0.995Se1,Na0.005Pb0.995Se1,723,0.0069367,0.000020732,0.00017286,1.192,0.78496,48234.6131584025,0.0014412782,0.001209126
6006,10.1002/adma.201004200,80,1(a),73,Na0.005Pb0.995Se1,Na0.005Pb0.995Se1,723.5,0.0069177,0.00002078,0.00017306,1.1911,0.78598,48123.1953801732,0.0014412783,0.0012100397
6006,10.1002/adma.201004200,80,1(a),73,Na0.005Pb0.995Se1,Na0.005Pb0.995Se1,724,0.0068988,0.000020829,0.00017327,1.1901,0.787,48009.986077104,0.0014413795,0.0012111415
6006,10.1002/adma.201004200,80,1(a),73,Na0.005Pb0.995Se1,Na0.005Pb0.995Se1,724.5,0.0068798,0.000020878,0.00017347,1.1892,0.78802,47897.3081712808,0.0014413182,0.0012120065
6006,10.1002/adma.201004200,80,1(a),73,Na0.005Pb0.995Se1,Na0.005Pb0.995Se1,725,0.0068609,0.000020927,0.00017368,1.1882,0.78904,47785.157929947,0.001441427,0.0012131181
6006,10.1002/adma.201004200,80,1(a),73,Na0.005Pb0.995Se1,Na0.005Pb0.995Se1,725.5,0.0068419,0.000020976,0.00017388,1.1873,0.79006,47673.531655225,0.0014413737,0.0012139928
6006,10.1002/adma.201004200,80,1(a),73,Na0.005Pb0.995Se1,Na0.005Pb0.995Se1,726,0.006823,0.000021025,0.00017409,1.1864,0.79108,47562.4256837099,0.00144149,0.0012150118
6006,10.1002/adma.201004200,80,1(a),73,Na0.005Pb0.995Se1,Na0.005Pb0.995Se1,726.5,0.006804,0.000021075,0.00017429,1.1854,0.79209,47449.5848161329,0.0014413762,0.0012159408
6006,10.1002/adma.201004200,80,1(a),73,Na0.005Pb0.995Se1,Na0.005Pb0.995Se1,727,0.0067851,0.000021124,0.00017449,1.1845,0.79311,47339.5190304866,0.001441335,0.0012168299
6006,10.1002/adma.201004200,80,1(a),73,Na0.005Pb0.995Se1,Na0.005Pb0.995Se1,727.5,0.0067662,0.000021174,0.0001747,1.1836,0.79413,47227.7321243034,0.0014413946,0.0012178055
6006,10.1002/adma.201004200,80,1(a),73,Na0.005Pb0.995Se1,Na0.005Pb0.995Se1,728,0.0067472,0.000021223,0.0001749,1.1827,0.79515,47118.6919851105,0.0014413613,0.001218704
6006,10.1002/adma.201004200,80,1(a),73,Na0.005Pb0.995Se1,Na0.005Pb0.995Se1,728.5,0.0067283,0.000021273,0.00017511,1.1817,0.79617,47007.9443425939,0.0014414287,0.0012197924
6006,10.1002/adma.201004200,80,1(a),73,Na0.005Pb0.995Se1,Na0.005Pb0.995Se1,729,0.0067093,0.000021323,0.00017531,1.1808,0.79719,46897.7160812268,0.0014413355,0.0012206432
6006,10.1002/adma.201004200,80,1(a),73,Na0.005Pb0.995Se1,Na0.005Pb0.995Se1,729.5,0.0066904,0.000021373,0.00017551,1.1799,0.79821,46788.0035558883,0.0014412464,0.0012214988
6006,10.1002/adma.201004200,80,1(a),73,Na0.005Pb0.995Se1,Na0.005Pb0.995Se1,730,0.0066714,0.000021423,0.00017572,1.179,0.79923,46678.8031554871,0.0014413256,0.0012224984
6006,10.1002/adma.201004200,80,1(a),73,Na0.005Pb0.995Se1,Na0.005Pb0.995Se1,730.5,0.0066525,0.000021474,0.00017592,1.1781,0.80025,46567.9426282947,0.0014411775,0.0012233066
6006,10.1002/adma.201004200,80,1(a),73,Na0.005Pb0.995Se1,Na0.005Pb0.995Se1,731,0.0066335,0.000021524,0.00017612,1.1772,0.80127,46459.7658427802,0.0014411008,0.0012241767
6006,10.1002/adma.201004200,80,1(a),73,Na0.005Pb0.995Se1,Na0.005Pb0.995Se1,731.5,0.0066146,0.000021575,0.00017632,1.1763,0.80229,46349.9420625724,0.0014409614,0.0012249948
6006,10.1002/adma.201004200,80,1(a),73,Na0.005Pb0.995Se1,Na0.005Pb0.995Se1,732,0.0065956,0.000021625,0.00017653,1.1754,0.80331,46242.774566474,0.0014410562,0.0012260135
6006,10.1002/adma.201004200,80,1(a),73,Na0.005Pb0.995Se1,Na0.005Pb0.995Se1,732.5,0.0065767,0.000021676,0.00017673,1.1746,0.80433,46133.9730577597,0.0014409251,0.0012267369
6006,10.1002/adma.201004200,80,1(a),73,Na0.005Pb0.995Se1,Na0.005Pb0.995Se1,733,0.0065577,0.000021727,0.00017693,1.1737,0.80534,46025.6823307406,0.0014407983,0.0012275695
6006,10.1002/adma.201004200,80,1(a),73,Na0.005Pb0.995Se1,Na0.005Pb0.995Se1,733.5,0.0065388,0.000021778,0.00017713,1.1728,0.80636,45917.898796951,0.0014406758,0.001228407
6006,10.1002/adma.201004200,80,1(a),73,Na0.005Pb0.995Se1,Na0.005Pb0.995Se1,734,0.0065199,0.000021829,0.00017733,1.1719,0.80738,45810.6189014614,0.0014405575,0.0012292495
6006,10.1002/adma.201004200,80,1(a),73,Na0.005Pb0.995Se1,Na0.005Pb0.995Se1,734.5,0.0065009,0.000021881,0.00017754,1.171,0.8084,45701.7503770394,0.0014405398,0.0012301792
6006,10.1002/adma.201004200,80,1(a),73,Na0.005Pb0.995Se1,Na0.005Pb0.995Se1,735,0.006482,0.000021932,0.00017774,1.1702,0.80942,45595.4769286887,0.0014404299,0.0012309262
6006,10.1002/adma.201004200,80,1(a),73,Na0.005Pb0.995Se1,Na0.005Pb0.995Se1,735.5,0.006463,0.000021984,0.00017794,1.1693,0.81044,45487.6273653566,0.0014402585,0.0012317271
6006,10.1002/adma.201004200,80,1(a),73,Na0.005Pb0.995Se1,Na0.005Pb0.995Se1,736,0.0064441,0.000022035,0.00017814,1.1684,0.81146,45382.346267302,0.001440157,0.001232589
6006,10.1002/adma.201004200,80,1(a),73,Na0.005Pb0.995Se1,Na0.005Pb0.995Se1,736.5,0.0064251,0.000022087,0.00017834,1.1676,0.81248,45275.5014261783,0.0014399944,0.0012332943
6006,10.1002/adma.201004200,80,1(a),73,Na0.005Pb0.995Se1,Na0.005Pb0.995Se1,737,0.0064062,0.000022139,0.00017854,1.1667,0.8135,45169.1584985772,0.0014398361,0.00123411
6006,10.1002/adma.201004200,80,1(a),73,Na0.005Pb0.995Se1,Na0.005Pb0.995Se1,737.5,0.0063872,0.000022191,0.00017874,1.1659,0.81452,45063.3139561083,0.0014396822,0.0012348248
6006,10.1002/adma.201004200,80,1(a),73,Na0.005Pb0.995Se1,Na0.005Pb0.995Se1,738,0.0063683,0.000022243,0.00017894,1.165,0.81554,44957.9643033763,0.0014395326,0.0012356503
6006,10.1002/adma.201004200,80,1(a),73,Na0.005Pb0.995Se1,Na0.005Pb0.995Se1,738.5,0.0063493,0.000022296,0.00017914,1.1642,0.81656,44851.0943667025,0.0014393227,0.0012363191
6006,10.1002/adma.201004200,80,1(a),73,Na0.005Pb0.995Se1,Na0.005Pb0.995Se1,739,0.0063304,0.000022348,0.00017934,1.1634,0.81757,44746.7334884553,0.0014391818,0.0012370482
6006,10.1002/adma.201004200,80,1(a),73,Na0.005Pb0.995Se1,Na0.005Pb0.995Se1,739.5,0.0063115,0.000022401,0.00017954,1.1625,0.81859,44640.8642471318,0.0014389809,0.001237833
6006,10.1002/adma.201004200,80,1(a),73,Na0.005Pb0.995Se1,Na0.005Pb0.995Se1,740,0.0062925,0.000022454,0.00017974,1.1617,0.81961,44535.4947893471,0.0014387845,0.0012385164
6006,10.1002/adma.201004200,80,1(a),73,Na0.005Pb0.995Se1,Na0.005Pb0.995Se1,740.5,0.0062736,0.000022506,0.00017993,1.1609,0.82063,44432.5957522438,0.0014384966,0.0012391219
6006,10.1002/adma.201004200,80,1(a),73,Na0.005Pb0.995Se1,Na0.005Pb0.995Se1,741,0.0062546,0.000022559,0.00018013,1.16,0.82165,44328.2060375017,0.0014383092,0.0012399217
6006,10.1002/adma.201004200,80,1(a),73,Na0.005Pb0.995Se1,Na0.005Pb0.995Se1,741.5,0.0062357,0.000022612,0.00018033,1.1592,0.82267,44224.3056784009,0.0014381262,0.0012406195
6006,10.1002/adma.201004200,80,1(a),73,Na0.005Pb0.995Se1,Na0.005Pb0.995Se1,742,0.0062167,0.000022666,0.00018053,1.1584,0.82369,44118.9446748434,0.0014378841,0.0012412673
6006,10.1002/adma.201004200,80,1(a),73,Na0.005Pb0.995Se1,Na0.005Pb0.995Se1,742.5,0.0061978,0.000022719,0.00018073,1.1576,0.82471,44016.0218319468,0.00143771,0.0012419748
6006,10.1002/adma.201004200,80,1(a),73,Na0.005Pb0.995Se1,Na0.005Pb0.995Se1,743,0.0061788,0.000022773,0.00018092,1.1568,0.82573,43911.6497606815,0.0014373182,0.0012424949
6006,10.1002/adma.201004200,80,1(a),73,Na0.005Pb0.995Se1,Na0.005Pb0.995Se1,743.5,0.0061599,0.000022826,0.00018112,1.156,0.82675,43809.6907035836,0.001437153,0.0012432119
6006,10.1002/adma.201004200,80,1(a),73,Na0.005Pb0.995Se1,Na0.005Pb0.995Se1,744,0.0061409,0.00002288,0.00018132,1.1552,0.82777,43706.2937062937,0.0014369293,0.0012438792
6006,10.1002/adma.201004200,80,1(a),73,Na0.005Pb0.995Se1,Na0.005Pb0.995Se1,744.5,0.006122,0.000022934,0.00018151,1.1544,0.82879,43603.3836225691,0.0014365518,0.0012444143
6006,10.1002/adma.201004200,80,1(a),73,Na0.005Pb0.995Se1,Na0.005Pb0.995Se1,745,0.006103,0.000022988,0.00018171,1.1536,0.82981,43500.9570210545,0.0014363374,0.0012450914
6006,10.1002/adma.201004200,80,1(a),73,Na0.005Pb0.995Se1,Na0.005Pb0.995Se1,745.5,0.0060841,0.000023042,0.0001819,1.1528,0.83082,43399.0105025605,0.0014359695,0.0012456363
6006,10.1002/adma.201004200,80,1(a),73,Na0.005Pb0.995Se1,Na0.005Pb0.995Se1,746,0.0060652,0.000023096,0.0001821,1.152,0.83184,43297.5406996883,0.0014357642,0.0012463231
6006,10.1002/adma.201004200,80,1(a),73,Na0.005Pb0.995Se1,Na0.005Pb0.995Se1,746.5,0.0060462,0.000023151,0.0001823,1.1512,0.83286,43194.6784156192,0.0014355013,0.0012469608
6006,10.1002/adma.201004200,80,1(a),73,Na0.005Pb0.995Se1,Na0.005Pb0.995Se1,747,0.0060273,0.000023205,0.00018249,1.1504,0.83388,43094.1607412196,0.0014351476,0.0012475205
6006,10.1002/adma.201004200,80,1(a),73,Na0.005Pb0.995Se1,Na0.005Pb0.995Se1,747.5,0.0060083,0.00002326,0.00018269,1.1496,0.8349,42992.2613929493,0.0014348941,0.0012481681
6006,10.1002/adma.201004200,80,1(a),73,Na0.005Pb0.995Se1,Na0.005Pb0.995Se1,748,0.0059894,0.000023315,0.00018288,1.1489,0.83592,42890.8428050611,0.0014344883,0.0012485754
6006,10.1002/adma.201004200,80,1(a),73,Na0.005Pb0.995Se1,Na0.005Pb0.995Se1,748.5,0.0059704,0.00002337,0.00018307,1.1481,0.83694,42789.9015832264,0.0014340875,0.0012490963
6006,10.1002/adma.201004200,80,1(a),73,Na0.005Pb0.995Se1,Na0.005Pb0.995Se1,749,0.0059515,0.000023425,0.00018327,1.1473,0.83796,42689.4343649947,0.0014338481,0.0012497587
6006,10.1002/adma.201004200,80,1(a),73,Na0.005Pb0.995Se1,Na0.005Pb0.995Se1,749.5,0.0059325,0.00002348,0.00018346,1.1466,0.83898,42589.4378194208,0.0014334571,0.0012501806
6006,10.1002/adma.201004200,80,1(a),73,Na0.005Pb0.995Se1,Na0.005Pb0.995Se1,750,0.0059136,0.000023535,0.00018365,1.1458,0.84,42489.9086466964,0.0014330709,0.0012507164
6006,10.1002/adma.201004200,80,1(a),73,Na0.005Pb0.995Se1,Na0.005Pb0.995Se1,750.5,0.0058946,0.000023591,0.00018385,1.1451,0.84102,42389.0466703404,0.0014327846,0.001251231
6006,10.1002/adma.201004200,80,1(a),73,Na0.005Pb0.995Se1,Na0.005Pb0.995Se1,751,0.0058757,0.000023646,0.00018404,1.1443,0.84204,42290.4508162057,0.0014324081,0.0012517767
6006,10.1002/adma.201004200,80,1(a),73,Na0.005Pb0.995Se1,Na0.005Pb0.995Se1,751.5,0.0058568,0.000023702,0.00018423,1.1436,0.84306,42190.5324445194,0.0014319759,0.001252165
6006,10.1002/adma.201004200,80,1(a),73,Na0.005Pb0.995Se1,Na0.005Pb0.995Se1,752,0.0058378,0.000023758,0.00018442,1.1428,0.84407,42091.0851081741,0.0014315488,0.0012526678
6006,10.1002/adma.201004200,80,1(a),73,Na0.005Pb0.995Se1,Na0.005Pb0.995Se1,752.5,0.0058189,0.000023814,0.00018461,1.1421,0.84509,41992.105484169,0.0014311267,0.0012530661
6006,10.1002/adma.201004200,80,1(a),73,Na0.005Pb0.995Se1,Na0.005Pb0.995Se1,753,0.0057999,0.00002387,0.0001848,1.1413,0.84611,41893.5902806871,0.0014307097,0.001253579
6006,10.1002/adma.201004200,80,1(a),73,Na0.005Pb0.995Se1,Na0.005Pb0.995Se1,753.5,0.005781,0.000023927,0.00018499,1.1406,0.84713,41793.7894428888,0.0014302378,0.0012539346
6006,10.1002/adma.201004200,80,1(a),73,Na0.005Pb0.995Se1,Na0.005Pb0.995Se1,754,0.005762,0.000023983,0.00018519,1.1399,0.84815,41696.2014760455,0.0014299852,0.0012544831
6006,10.1002/adma.201004200,80,1(a),73,Na0.005Pb0.995Se1,Na0.005Pb0.995Se1,754.5,0.0057431,0.000024039,0.00018538,1.1392,0.84917,41599.0681808727,0.0014295829,0.0012549008
6006,10.1002/adma.201004200,80,1(a),73,Na0.005Pb0.995Se1,Na0.005Pb0.995Se1,755,0.0057241,0.000024096,0.00018556,1.1384,0.85019,41500.6640106242,0.0014289722,0.0012552461
6006,10.1002/adma.201004200,80,1(a),73,Na0.005Pb0.995Se1,Na0.005Pb0.995Se1,755.5,0.0057052,0.000024153,0.00018575,1.1377,0.85121,41402.7242992589,0.0014285208,0.0012556217
6006,10.1002/adma.201004200,80,1(a),73,Na0.005Pb0.995Se1,Na0.005Pb0.995Se1,756,0.0056862,0.00002421,0.00018594,1.137,0.85223,41305.2457662123,0.0014280745,0.0012560022
6006,10.1002/adma.201004200,80,1(a),73,Na0.005Pb0.995Se1,Na0.005Pb0.995Se1,756.5,0.0056673,0.000024267,0.00018613,1.1363,0.85325,41208.2251617423,0.0014276333,0.0012563876
6006,10.1002/adma.201004200,80,1(a),73,Na0.005Pb0.995Se1,Na0.005Pb0.995Se1,757,0.0056483,0.000024324,0.00018632,1.1356,0.85427,41111.659266568,0.0014271971,0.001256778
6006,10.1002/adma.201004200,80,1(a),73,Na0.005Pb0.995Se1,Na0.005Pb0.995Se1,757.5,0.0056294,0.000024382,0.00018651,1.1349,0.85529,41013.8626855877,0.0014267074,0.0012571217
6006,10.1002/adma.201004200,80,1(a),73,Na0.005Pb0.995Se1,Na0.005Pb0.995Se1,758,0.0056105,0.000024439,0.00018669,1.1342,0.85631,40918.2045091861,0.0014261286,0.0012573872
6006,10.1002/adma.201004200,80,1(a),73,Na0.005Pb0.995Se1,Na0.005Pb0.995Se1,758.5,0.0055915,0.000024497,0.00018688,1.1335,0.85732,40821.3250602115,0.0014256494,0.001257741
6006,10.1002/adma.201004200,80,1(a),73,Na0.005Pb0.995Se1,Na0.005Pb0.995Se1,759,0.0055726,0.000024554,0.00018707,1.1328,0.85834,40726.5618636475,0.0014252336,0.0012581511
6006,10.1002/adma.201004200,80,1(a),73,Na0.005Pb0.995Se1,Na0.005Pb0.995Se1,759.5,0.0055536,0.000024612,0.00018725,1.1321,0.85936,40630.586705672,0.0014246125,0.0012583804
6006,10.1002/adma.201004200,80,1(a),73,Na0.005Pb0.995Se1,Na0.005Pb0.995Se1,760,0.0055347,0.00002467,0.00018744,1.1314,0.86038,40535.0628293474,0.0014241489,0.0012587493
6006,10.1002/adma.201004200,80,1(a),73,Na0.005Pb0.995Se1,Na0.005Pb0.995Se1,760.5,0.0055157,0.000024728,0.00018762,1.1307,0.8614,40439.9870592041,0.0014235387,0.0012589888
6006,10.1002/adma.201004200,80,1(a),73,Na0.005Pb0.995Se1,Na0.005Pb0.995Se1,761,0.0054968,0.000024787,0.00018781,1.1301,0.86242,40343.7285673942,0.001423028,0.0012592054
6006,10.1002/adma.201004200,80,1(a),73,Na0.005Pb0.995Se1,Na0.005Pb0.995Se1,761.5,0.0054778,0.000024845,0.00018799,1.1294,0.86344,40249.5471925941,0.0014224287,0.0012594552
6006,10.1002/adma.201004200,80,1(a),73,Na0.005Pb0.995Se1,Na0.005Pb0.995Se1,762,0.0054589,0.000024904,0.00018818,1.1287,0.86446,40154.192097655,0.0014219287,0.0012597933
6006,10.1002/adma.201004200,80,1(a),73,Na0.005Pb0.995Se1,Na0.005Pb0.995Se1,762.5,0.0054399,0.000024962,0.00018836,1.128,0.86548,40060.8925566862,0.00142134,0.0012600532
6006,10.1002/adma.201004200,80,1(a),73,Na0.005Pb0.995Se1,Na0.005Pb0.995Se1,763,0.005421,0.000025021,0.00018854,1.1274,0.8665,39966.4282003117,0.0014206999,0.001260156
6006,10.1002/adma.201004200,80,1(a),73,Na0.005Pb0.995Se1,Na0.005Pb0.995Se1,763.5,0.0054021,0.00002508,0.00018872,1.1267,0.86752,39872.4082934609,0.0014200653,0.0012603757
6006,10.1002/adma.201004200,80,1(a),73,Na0.005Pb0.995Se1,Na0.005Pb0.995Se1,764,0.0053831,0.000025139,0.00018891,1.1261,0.86854,39778.82970683,0.0014195866,0.0012606222
6006,10.1002/adma.201004200,80,1(a),73,Na0.005Pb0.995Se1,Na0.005Pb0.995Se1,764.5,0.0053642,0.000025199,0.00018909,1.1254,0.86956,39684.1144489861,0.0014189066,0.0012608021
6006,10.1002/adma.201004200,80,1(a),73,Na0.005Pb0.995Se1,Na0.005Pb0.995Se1,765,0.0053452,0.000025258,0.00018927,1.1248,0.87057,39591.4165808853,0.0014182886,0.0012609251
6006,10.1002/adma.201004200,80,1(a),73,Na0.005Pb0.995Se1,Na0.005Pb0.995Se1,765.5,0.0053263,0.000025317,0.00018945,1.1241,0.87159,39499.1507682585,0.001417676,0.0012611653
6006,10.1002/adma.201004200,80,1(a),73,Na0.005Pb0.995Se1,Na0.005Pb0.995Se1,766,0.0053073,0.000025377,0.00018963,1.1235,0.87261,39405.7611222761,0.0014170129,0.0012612487
6006,10.1002/adma.201004200,80,1(a),73,Na0.005Pb0.995Se1,Na0.005Pb0.995Se1,766.5,0.0052884,0.000025437,0.00018981,1.1228,0.87363,39312.8120454456,0.0014163555,0.0012614495
6006,10.1002/adma.201004200,80,1(a),73,Na0.005Pb0.995Se1,Na0.005Pb0.995Se1,767,0.0052694,0.000025497,0.00018999,1.1222,0.87465,39220.3004275013,0.0014157038,0.0012615432
6006,10.1002/adma.201004200,80,1(a),73,Na0.005Pb0.995Se1,Na0.005Pb0.995Se1,767.5,0.0052505,0.000025557,0.00019017,1.1216,0.87567,39128.2231873851,0.0014150577,0.001261642
6006,10.1002/adma.201004200,80,1(a),73,Na0.005Pb0.995Se1,Na0.005Pb0.995Se1,768,0.0052315,0.000025617,0.00019035,1.1209,0.87669,39036.5772729047,0.0014144171,0.0012618584
6006,10.1002/adma.201004200,80,1(a),73,Na0.005Pb0.995Se1,Na0.005Pb0.995Se1,768.5,0.0052126,0.000025678,0.00019052,1.1203,0.87771,38943.8429784251,0.0014135786,0.0012617857
6006,10.1002/adma.201004200,80,1(a),73,Na0.005Pb0.995Se1,Na0.005Pb0.995Se1,769,0.0051937,0.000025738,0.0001907,1.1197,0.87873,38853.0577356438,0.0014129493,0.0012618999
6006,10.1002/adma.201004200,80,1(a),73,Na0.005Pb0.995Se1,Na0.005Pb0.995Se1,769.5,0.0051747,0.000025799,0.00019088,1.1191,0.87975,38761.192294275,0.0014122708,0.0012619702
6006,10.1002/adma.201004200,80,1(a),73,Na0.005Pb0.995Se1,Na0.005Pb0.995Se1,770,0.0051558,0.000025859,0.00019105,1.1185,0.88077,38671.2556556711,0.0014115048,0.0012619623
6006,10.1002/adma.201004200,80,1(a),73,Na0.005Pb0.995Se1,Na0.005Pb0.995Se1,770.5,0.0051368,0.00002592,0.00019123,1.1179,0.88179,38580.2469135802,0.0014108377,0.0012620428
6006,10.1002/adma.201004200,80,1(a),73,Na0.005Pb0.995Se1,Na0.005Pb0.995Se1,771,0.0051179,0.000025981,0.00019141,1.1173,0.88281,38489.6655248066,0.0014101762,0.0012621285
6006,10.1002/adma.201004200,80,1(a),73,Na0.005Pb0.995Se1,Na0.005Pb0.995Se1,771.5,0.0050989,0.000026042,0.00019158,1.1167,0.88382,38399.5084862914,0.0014093732,0.0012620876
6006,10.1002/adma.201004200,80,1(a),73,Na0.005Pb0.995Se1,Na0.005Pb0.995Se1,772,0.00508,0.000026104,0.00019175,1.1161,0.88484,38308.3052405762,0.0014085222,0.0012620035
6006,10.1002/adma.201004200,80,1(a),73,Na0.005Pb0.995Se1,Na0.005Pb0.995Se1,772.5,0.005061,0.000026165,0.00019193,1.1155,0.88586,38218.9948404357,0.0014078779,0.0012621048
6006,10.1002/adma.201004200,80,1(a),73,Na0.005Pb0.995Se1,Na0.005Pb0.995Se1,773,0.0050421,0.000026227,0.0001921,1.1149,0.88688,38128.6460517787,0.0014070389,0.0012620315
6006,10.1002/adma.201004200,80,1(a),73,Na0.005Pb0.995Se1,Na0.005Pb0.995Se1,773.5,0.0050231,0.000026289,0.00019227,1.1143,0.8879,38038.723420442,0.0014062061,0.0012619637
6006,10.1002/adma.201004200,80,1(a),73,Na0.005Pb0.995Se1,Na0.005Pb0.995Se1,774,0.0050042,0.00002635,0.00019245,1.1137,0.88892,37950.6641366224,0.0014055788,0.0012620803
6006,10.1002/adma.201004200,80,1(a),73,Na0.005Pb0.995Se1,Na0.005Pb0.995Se1,774.5,0.0049852,0.000026412,0.00019262,1.1131,0.88994,37861.578070574,0.0014047579,0.001262023
6006,10.1002/adma.201004200,80,1(a),73,Na0.005Pb0.995Se1,Na0.005Pb0.995Se1,775,0.0049663,0.000026475,0.00019279,1.1126,0.89096,37771.4825306893,0.0014038899,0.0012618101
6006,10.1002/adma.201004200,80,1(a),73,Na0.005Pb0.995Se1,Na0.005Pb0.995Se1,775.5,0.0049474,0.000026537,0.00019296,1.112,0.89198,37683.2347288691,0.001403081,0.0012617635
6006,10.1002/adma.201004200,80,1(a),73,Na0.005Pb0.995Se1,Na0.005Pb0.995Se1,776,0.0049284,0.000026599,0.00019313,1.1114,0.893,37595.3983232452,0.0014022782,0.0012617223
6006,10.1002/adma.201004200,80,1(a),73,Na0.005Pb0.995Se1,Na0.005Pb0.995Se1,776.5,0.0049095,0.000026662,0.0001933,1.1108,0.89402,37506.5636486385,0.0014014286,0.001261639
6006,10.1002/adma.201004200,80,1(a),73,Na0.005Pb0.995Se1,Na0.005Pb0.995Se1,777,0.0048905,0.000026725,0.00019346,1.1103,0.89504,37418.1478016838,0.0014004405,0.0012613172