sid,DOI,figureid,fignum,sampleid,samplename,composition,Temperature,Carrier mobility,Electrical resistivity,Seebeck coefficient,Thermal conductivity,ZT,Electrical conductivity,Power factor,Figure of merit Z
6006,10.1002/adma.201004200,80,1(a),102,Na0.025Pb0.975Se1,Na0.025Pb0.975Se1,684.5,0.0040898,0.0000084888,0.00010549,2.0072,0.54285,117802.2806521534,0.0013109203,0.0006531089
6006,10.1002/adma.201004200,80,1(a),102,Na0.025Pb0.975Se1,Na0.025Pb0.975Se1,685,0.0040856,0.0000085012,0.00010565,2.0051,0.54377,117630.4521714582,0.001312982,0.0006548212
6006,10.1002/adma.201004200,80,1(a),102,Na0.025Pb0.975Se1,Na0.025Pb0.975Se1,685.5,0.0040815,0.0000085135,0.00010581,2.0031,0.54469,117460.5039055617,0.0013150592,0.000656512
6006,10.1002/adma.201004200,80,1(a),102,Na0.025Pb0.975Se1,Na0.025Pb0.975Se1,686,0.0040774,0.000008526,0.00010597,2.001,0.54561,117288.2946281961,0.0013171054,0.0006582236
6006,10.1002/adma.201004200,80,1(a),102,Na0.025Pb0.975Se1,Na0.025Pb0.975Se1,686.5,0.0040732,0.0000085384,0.00010613,1.999,0.54653,117117.9612105313,0.0013191672,0.0006599135
6006,10.1002/adma.201004200,80,1(a),102,Na0.025Pb0.975Se1,Na0.025Pb0.975Se1,687,0.0040691,0.0000085509,0.00010629,1.9969,0.54745,116946.7541428388,0.0013212135,0.0006616323
6006,10.1002/adma.201004200,80,1(a),102,Na0.025Pb0.975Se1,Na0.025Pb0.975Se1,687.5,0.004065,0.0000085634,0.00010645,1.9949,0.54837,116776.0468972604,0.0013232597,0.0006633213
6006,10.1002/adma.201004200,80,1(a),102,Na0.025Pb0.975Se1,Na0.025Pb0.975Se1,688,0.0040608,0.0000085759,0.00010661,1.9928,0.54929,116605.8372882147,0.001325306,0.0006650472
6006,10.1002/adma.201004200,80,1(a),102,Na0.025Pb0.975Se1,Na0.025Pb0.975Se1,688.5,0.0040567,0.0000085884,0.00010677,1.9908,0.55021,116436.1231428438,0.0013273523,0.0006667432
6006,10.1002/adma.201004200,80,1(a),102,Na0.025Pb0.975Se1,Na0.025Pb0.975Se1,689,0.0040525,0.000008601,0.00010693,1.9887,0.55113,116265.5505173817,0.0013293832,0.0006684684
6006,10.1002/adma.201004200,80,1(a),102,Na0.025Pb0.975Se1,Na0.025Pb0.975Se1,689.5,0.0040484,0.0000086136,0.00010709,1.9867,0.55206,116095.4769202192,0.0013314141,0.0006701636
6006,10.1002/adma.201004200,80,1(a),102,Na0.025Pb0.975Se1,Na0.025Pb0.975Se1,690,0.0040443,0.0000086263,0.00010725,1.9847,0.55298,115924.5562987608,0.0013334295,0.0006718544
6006,10.1002/adma.201004200,80,1(a),102,Na0.025Pb0.975Se1,Na0.025Pb0.975Se1,690.5,0.0040401,0.0000086389,0.00010741,1.9826,0.5539,115755.4781280024,0.0013354603,0.0006735904
6006,10.1002/adma.201004200,80,1(a),102,Na0.025Pb0.975Se1,Na0.025Pb0.975Se1,691,0.004036,0.0000086516,0.00010757,1.9806,0.55482,115585.5564288686,0.0013374757,0.0006752882
6006,10.1002/adma.201004200,80,1(a),102,Na0.025Pb0.975Se1,Na0.025Pb0.975Se1,691.5,0.0040319,0.0000086643,0.00010773,1.9786,0.55574,115416.1328670522,0.0013394911,0.0006769893
6006,10.1002/adma.201004200,80,1(a),102,Na0.025Pb0.975Se1,Na0.025Pb0.975Se1,692,0.0040277,0.0000086771,0.00010789,1.9765,0.55666,115245.8770787475,0.0013414911,0.0006787205
6006,10.1002/adma.201004200,80,1(a),102,Na0.025Pb0.975Se1,Na0.025Pb0.975Se1,692.5,0.0040236,0.0000086899,0.00010805,1.9745,0.55758,115076.1228552688,0.001343491,0.0006804209
6006,10.1002/adma.201004200,80,1(a),102,Na0.025Pb0.975Se1,Na0.025Pb0.975Se1,693,0.0040195,0.0000087027,0.00010821,1.9725,0.5585,114906.8679834994,0.001345491,0.0006821247
6006,10.1002/adma.201004200,80,1(a),102,Na0.025Pb0.975Se1,Na0.025Pb0.975Se1,693.5,0.0040153,0.0000087155,0.00010837,1.9705,0.55942,114738.110263324,0.0013474909,0.000683832
6006,10.1002/adma.201004200,80,1(a),102,Na0.025Pb0.975Se1,Na0.025Pb0.975Se1,694,0.0040112,0.0000087284,0.00010853,1.9684,0.56034,114568.5348975757,0.0013494754,0.0006855697
6006,10.1002/adma.201004200,80,1(a),102,Na0.025Pb0.975Se1,Na0.025Pb0.975Se1,694.5,0.0040071,0.0000087412,0.00010869,1.9664,0.56126,114400.7687731662,0.0013514753,0.000687284
6006,10.1002/adma.201004200,80,1(a),102,Na0.025Pb0.975Se1,Na0.025Pb0.975Se1,695,0.0040029,0.0000087542,0.00010886,1.9644,0.56218,114230.8834616527,0.001353693,0.0006891127
6006,10.1002/adma.201004200,80,1(a),102,Na0.025Pb0.975Se1,Na0.025Pb0.975Se1,695.5,0.0039988,0.0000087671,0.00010902,1.9624,0.5631,114062.8029793204,0.0013556775,0.0006908263
6006,10.1002/adma.201004200,80,1(a),102,Na0.025Pb0.975Se1,Na0.025Pb0.975Se1,696,0.0039946,0.0000087801,0.00010918,1.9604,0.56403,113893.9192036537,0.0013576465,0.0006925355
6006,10.1002/adma.201004200,80,1(a),102,Na0.025Pb0.975Se1,Na0.025Pb0.975Se1,696.5,0.0039905,0.0000087931,0.00010934,1.9584,0.56495,113725.5347943274,0.0013596156,0.0006942481
6006,10.1002/adma.201004200,80,1(a),102,Na0.025Pb0.975Se1,Na0.025Pb0.975Se1,697,0.0039864,0.0000088061,0.0001095,1.9564,0.56587,113557.6475397736,0.0013615846,0.0006959643
6006,10.1002/adma.201004200,80,1(a),102,Na0.025Pb0.975Se1,Na0.025Pb0.975Se1,697.5,0.0039822,0.0000088192,0.00010967,1.9544,0.56679,113388.969521045,0.0013637868,0.0006978033
6006,10.1002/adma.201004200,80,1(a),102,Na0.025Pb0.975Se1,Na0.025Pb0.975Se1,698,0.0039781,0.0000088323,0.00010983,1.9524,0.56771,113220.7918662183,0.0013657404,0.0006995187
6006,10.1002/adma.201004200,80,1(a),102,Na0.025Pb0.975Se1,Na0.025Pb0.975Se1,698.5,0.003974,0.0000088454,0.00010999,1.9504,0.56863,113053.1123521831,0.001367694,0.0007012377
6006,10.1002/adma.201004200,80,1(a),102,Na0.025Pb0.975Se1,Na0.025Pb0.975Se1,699,0.0039698,0.0000088585,0.00011016,1.9484,0.56955,112885.9287689789,0.0013698962,0.0007030878
6006,10.1002/adma.201004200,80,1(a),102,Na0.025Pb0.975Se1,Na0.025Pb0.975Se1,699.5,0.0039657,0.0000088717,0.00011032,1.9464,0.57047,112717.9683713381,0.0013718343,0.000704806
6006,10.1002/adma.201004200,80,1(a),102,Na0.025Pb0.975Se1,Na0.025Pb0.975Se1,700,0.0039616,0.0000088849,0.00011048,1.9444,0.57139,112550.5070400342,0.0013737724,0.0007065277
6006,10.1002/adma.201004200,80,1(a),102,Na0.025Pb0.975Se1,Na0.025Pb0.975Se1,700.5,0.0039574,0.0000088981,0.00011064,1.9424,0.57231,112383.5425540284,0.0013757105,0.0007082529
6006,10.1002/adma.201004200,80,1(a),102,Na0.025Pb0.975Se1,Na0.025Pb0.975Se1,701,0.0039533,0.0000089114,0.00011081,1.9404,0.57323,112215.8134524317,0.0013778818,0.000710102
6006,10.1002/adma.201004200,80,1(a),102,Na0.025Pb0.975Se1,Na0.025Pb0.975Se1,701.5,0.0039492,0.0000089247,0.00011097,1.9384,0.57415,112048.5842661378,0.0013798045,0.0007118265
6006,10.1002/adma.201004200,80,1(a),102,Na0.025Pb0.975Se1,Na0.025Pb0.975Se1,702,0.003945,0.000008938,0.00011114,1.9364,0.57507,111881.8527634818,0.0013819758,0.000713683
6006,10.1002/adma.201004200,80,1(a),102,Na0.025Pb0.975Se1,Na0.025Pb0.975Se1,702.5,0.0039409,0.0000089513,0.0001113,1.9344,0.576,111715.6167260621,0.0013838984,0.0007154148
6006,10.1002/adma.201004200,80,1(a),102,Na0.025Pb0.975Se1,Na0.025Pb0.975Se1,703,0.0039367,0.0000089647,0.00011146,1.9325,0.57692,111548.629625085,0.0013858056,0.0007171051
6006,10.1002/adma.201004200,80,1(a),102,Na0.025Pb0.975Se1,Na0.025Pb0.975Se1,703.5,0.0039326,0.0000089781,0.00011163,1.9305,0.57784,111382.1409875141,0.0013879615,0.0007189648
6006,10.1002/adma.201004200,80,1(a),102,Na0.025Pb0.975Se1,Na0.025Pb0.975Se1,704,0.0039285,0.0000089916,0.00011179,1.9285,0.57876,111214.9116953601,0.0013898532,0.0007206913
6006,10.1002/adma.201004200,80,1(a),102,Na0.025Pb0.975Se1,Na0.025Pb0.975Se1,704.5,0.0039243,0.000009005,0.00011196,1.9265,0.57968,111049.4169905608,0.0013920091,0.0007225586
6006,10.1002/adma.201004200,80,1(a),102,Na0.025Pb0.975Se1,Na0.025Pb0.975Se1,705,0.0039202,0.0000090185,0.00011212,1.9246,0.5806,110883.1845650607,0.0013939008,0.0007242548
6006,10.1002/adma.201004200,80,1(a),102,Na0.025Pb0.975Se1,Na0.025Pb0.975Se1,705.5,0.0039161,0.000009032,0.00011229,1.9226,0.58152,110717.4490699734,0.0013960412,0.0007261215
6006,10.1002/adma.201004200,80,1(a),102,Na0.025Pb0.975Se1,Na0.025Pb0.975Se1,706,0.0039119,0.0000090456,0.00011245,1.9206,0.58244,110550.9861147961,0.0013979175,0.0007278546
6006,10.1002/adma.201004200,80,1(a),102,Na0.025Pb0.975Se1,Na0.025Pb0.975Se1,706.5,0.0039078,0.0000090591,0.00011262,1.9187,0.58336,110386.2414588646,0.0014000579,0.0007296909
6006,10.1002/adma.201004200,80,1(a),102,Na0.025Pb0.975Se1,Na0.025Pb0.975Se1,707,0.0039037,0.0000090727,0.00011278,1.9167,0.58428,110220.7722067301,0.0014019342,0.0007314312
6006,10.1002/adma.201004200,80,1(a),102,Na0.025Pb0.975Se1,Na0.025Pb0.975Se1,707.5,0.0038995,0.0000090864,0.00011295,1.9148,0.5852,110054.5870751893,0.0014040437,0.0007332587
6006,10.1002/adma.201004200,80,1(a),102,Na0.025Pb0.975Se1,Na0.025Pb0.975Se1,708,0.0038954,0.0000091,0.00011311,1.9128,0.58612,109890.1098901099,0.00140592,0.0007350063
6006,10.1002/adma.201004200,80,1(a),102,Na0.025Pb0.975Se1,Na0.025Pb0.975Se1,708.5,0.0038913,0.0000091137,0.00011328,1.9108,0.58705,109724.9196264964,0.0014080295,0.0007368796
6006,10.1002/adma.201004200,80,1(a),102,Na0.025Pb0.975Se1,Na0.025Pb0.975Se1,709,0.0038871,0.0000091274,0.00011344,1.9089,0.58797,109560.2252558231,0.0014098904,0.0007385879
6006,10.1002/adma.201004200,80,1(a),102,Na0.025Pb0.975Se1,Na0.025Pb0.975Se1,709.5,0.003883,0.0000091412,0.00011361,1.9069,0.58889,109394.827812541,0.0014119844,0.0007404607
6006,10.1002/adma.201004200,80,1(a),102,Na0.025Pb0.975Se1,Na0.025Pb0.975Se1,710,0.0038788,0.000009155,0.00011378,1.905,0.58981,109229.9290005462,0.0014140785,0.0007422984
6006,10.1002/adma.201004200,80,1(a),102,Na0.025Pb0.975Se1,Na0.025Pb0.975Se1,710.5,0.0038747,0.0000091688,0.00011394,1.9031,0.59073,109065.5265683623,0.001415924,0.0007440092
6006,10.1002/adma.201004200,80,1(a),102,Na0.025Pb0.975Se1,Na0.025Pb0.975Se1,711,0.0038706,0.0000091826,0.00011411,1.9011,0.59165,108901.6182780476,0.001418018,0.0007458934
6006,10.1002/adma.201004200,80,1(a),102,Na0.025Pb0.975Se1,Na0.025Pb0.975Se1,711.5,0.0038664,0.0000091965,0.00011428,1.8992,0.59257,108737.019518295,0.0014200966,0.0007477341
6006,10.1002/adma.201004200,80,1(a),102,Na0.025Pb0.975Se1,Na0.025Pb0.975Se1,712,0.0038623,0.0000092103,0.00011444,1.8972,0.59349,108574.0963920828,0.0014219421,0.0007494951
6006,10.1002/adma.201004200,80,1(a),102,Na0.025Pb0.975Se1,Na0.025Pb0.975Se1,712.5,0.0038582,0.0000092243,0.00011461,1.8953,0.59441,108409.3101915592,0.0014240053,0.000751335
6006,10.1002/adma.201004200,80,1(a),102,Na0.025Pb0.975Se1,Na0.025Pb0.975Se1,713,0.003854,0.0000092382,0.00011478,1.8934,0.59533,108246.1951462406,0.0014260839,0.0007531868
6006,10.1002/adma.201004200,80,1(a),102,Na0.025Pb0.975Se1,Na0.025Pb0.975Se1,713.5,0.0038499,0.0000092522,0.00011494,1.8914,0.59625,108082.4020233026,0.0014278986,0.0007549427
6006,10.1002/adma.201004200,80,1(a),102,Na0.025Pb0.975Se1,Na0.025Pb0.975Se1,714,0.0038458,0.0000092662,0.00011511,1.8895,0.59717,107919.1038397617,0.0014299618,0.0007567938
6006,10.1002/adma.201004200,80,1(a),102,Na0.025Pb0.975Se1,Na0.025Pb0.975Se1,714.5,0.0038416,0.0000092802,0.00011528,1.8876,0.59809,107756.2983556389,0.001432025,0.0007586485
6006,10.1002/adma.201004200,80,1(a),102,Na0.025Pb0.975Se1,Na0.025Pb0.975Se1,715,0.0038375,0.0000092943,0.00011545,1.8857,0.59902,107592.8257103816,0.0014340728,0.0007604989
6006,10.1002/adma.201004200,80,1(a),102,Na0.025Pb0.975Se1,Na0.025Pb0.975Se1,715.5,0.0038334,0.0000093084,0.00011561,1.8837,0.59994,107429.8483090542,0.0014358721,0.0007622616
6006,10.1002/adma.201004200,80,1(a),102,Na0.025Pb0.975Se1,Na0.025Pb0.975Se1,716,0.0038292,0.0000093225,0.00011578,1.8818,0.60086,107267.3639045321,0.0014379199,0.0007641194
6006,10.1002/adma.201004200,80,1(a),102,Na0.025Pb0.975Se1,Na0.025Pb0.975Se1,716.5,0.0038251,0.0000093366,0.00011595,1.8799,0.60178,107105.370263265,0.0014399677,0.000765981
6006,10.1002/adma.201004200,80,1(a),102,Na0.025Pb0.975Se1,Na0.025Pb0.975Se1,717,0.0038209,0.0000093508,0.00011612,1.878,0.6027,106942.7214783762,0.0014420001,0.0007678382
6006,10.1002/adma.201004200,80,1(a),102,Na0.025Pb0.975Se1,Na0.025Pb0.975Se1,717.5,0.0038168,0.000009365,0.00011628,1.8761,0.60362,106780.5659369995,0.0014437841,0.0007695667
6006,10.1002/adma.201004200,80,1(a),102,Na0.025Pb0.975Se1,Na0.025Pb0.975Se1,718,0.0038127,0.0000093793,0.00011645,1.8742,0.60454,106617.7646519463,0.0014458011,0.0007714231
6006,10.1002/adma.201004200,80,1(a),102,Na0.025Pb0.975Se1,Na0.025Pb0.975Se1,718.5,0.0038085,0.0000093935,0.00011662,1.8723,0.60546,106456.5923244797,0.0014478335,0.0007732914
6006,10.1002/adma.201004200,80,1(a),102,Na0.025Pb0.975Se1,Na0.025Pb0.975Se1,719,0.0038044,0.0000094078,0.00011679,1.8704,0.60638,106294.7766746742,0.0014498506,0.0007751553
6006,10.1002/adma.201004200,80,1(a),102,Na0.025Pb0.975Se1,Na0.025Pb0.975Se1,719.5,0.0038003,0.0000094221,0.00011696,1.8685,0.6073,106133.4522027998,0.0014518676,0.0007770231
6006,10.1002/adma.201004200,80,1(a),102,Na0.025Pb0.975Se1,Na0.025Pb0.975Se1,720,0.0037961,0.0000094365,0.00011713,1.8666,0.60822,105971.4936682033,0.0014538692,0.0007788863
6006,10.1002/adma.201004200,80,1(a),102,Na0.025Pb0.975Se1,Na0.025Pb0.975Se1,720.5,0.003792,0.0000094509,0.0001173,1.8647,0.60914,105810.0286745178,0.0014558709,0.0007807534
6006,10.1002/adma.201004200,80,1(a),102,Na0.025Pb0.975Se1,Na0.025Pb0.975Se1,721,0.0037879,0.0000094653,0.00011747,1.8628,0.61006,105649.0549692033,0.0014578725,0.0007826243
6006,10.1002/adma.201004200,80,1(a),102,Na0.025Pb0.975Se1,Na0.025Pb0.975Se1,721.5,0.0037837,0.0000094797,0.00011763,1.8609,0.61099,105488.5703134065,0.001459626,0.0007843656
6006,10.1002/adma.201004200,80,1(a),102,Na0.025Pb0.975Se1,Na0.025Pb0.975Se1,722,0.0037796,0.0000094942,0.0001178,1.859,0.61191,105327.4630827242,0.0014616124,0.0007862358
6006,10.1002/adma.201004200,80,1(a),102,Na0.025Pb0.975Se1,Na0.025Pb0.975Se1,722.5,0.0037755,0.0000095087,0.00011797,1.8571,0.61283,105166.8472030877,0.0014635987,0.0007881098
6006,10.1002/adma.201004200,80,1(a),102,Na0.025Pb0.975Se1,Na0.025Pb0.975Se1,723,0.0037713,0.0000095232,0.00011814,1.8552,0.61375,105006.7204301075,0.0014655851,0.0007899876
6006,10.1002/adma.201004200,80,1(a),102,Na0.025Pb0.975Se1,Na0.025Pb0.975Se1,723.5,0.0037672,0.0000095378,0.00011831,1.8534,0.61467,104845.9812535385,0.0014675561,0.0007918183
6006,10.1002/adma.201004200,80,1(a),102,Na0.025Pb0.975Se1,Na0.025Pb0.975Se1,724,0.003763,0.0000095523,0.00011848,1.8515,0.61559,104686.8293499995,0.0014695425,0.0007937037