sid,DOI,figureid,fignum,sampleid,samplename,composition,Temperature,Carrier mobility,Electrical resistivity,Seebeck coefficient,Thermal conductivity,ZT,Electrical conductivity,Power factor,Figure of merit Z
6006,10.1002/adma.201004200,80,1(a),147,Na0.0035Pb0.9965Se1,Na0.0035Pb0.9965Se1,429,0.023197,0.0000086189,0.00010118,1.9243,0.33456,116024.0866003782,0.0011877841,0.0006172552
6006,10.1002/adma.201004200,80,1(a),147,Na0.0035Pb0.9965Se1,Na0.0035Pb0.9965Se1,429.5,0.023173,0.000008635,0.00010137,1.9215,0.33555,115807.759119861,0.0011900263,0.0006193215
6006,10.1002/adma.201004200,80,1(a),147,Na0.0035Pb0.9965Se1,Na0.0035Pb0.9965Se1,430,0.023149,0.0000086511,0.00010156,1.9188,0.33655,115592.2368253748,0.0011922685,0.0006213615
6006,10.1002/adma.201004200,80,1(a),147,Na0.0035Pb0.9965Se1,Na0.0035Pb0.9965Se1,430.5,0.023125,0.0000086673,0.00010175,1.9161,0.33754,115376.1840480888,0.0011944968,0.0006234001
6006,10.1002/adma.201004200,80,1(a),147,Na0.0035Pb0.9965Se1,Na0.0035Pb0.9965Se1,431,0.023101,0.0000086835,0.00010195,1.9133,0.33854,115160.9374100305,0.00119696,0.0006255998
6006,10.1002/adma.201004200,80,1(a),147,Na0.0035Pb0.9965Se1,Na0.0035Pb0.9965Se1,431.5,0.023077,0.0000086997,0.00010214,1.9106,0.33954,114946.4924077842,0.0011991884,0.0006276502
6006,10.1002/adma.201004200,80,1(a),147,Na0.0035Pb0.9965Se1,Na0.0035Pb0.9965Se1,432,0.023052,0.000008716,0.00010233,1.9079,0.34053,114731.528223956,0.001201403,0.0006296992
6006,10.1002/adma.201004200,80,1(a),147,Na0.0035Pb0.9965Se1,Na0.0035Pb0.9965Se1,432.5,0.023028,0.0000087323,0.00010252,1.9052,0.34153,114517.3665586386,0.0012036176,0.000631754
6006,10.1002/adma.201004200,80,1(a),147,Na0.0035Pb0.9965Se1,Na0.0035Pb0.9965Se1,433,0.023004,0.0000087486,0.00010272,1.9026,0.34252,114304.0029261825,0.0012060671,0.0006339047
6006,10.1002/adma.201004200,80,1(a),147,Na0.0035Pb0.9965Se1,Na0.0035Pb0.9965Se1,433.5,0.02298,0.000008765,0.00010291,1.8999,0.34352,114090.1312036509,0.0012082679,0.0006359639
6006,10.1002/adma.201004200,80,1(a),147,Na0.0035Pb0.9965Se1,Na0.0035Pb0.9965Se1,434,0.022956,0.0000087815,0.0001031,1.8972,0.34452,113875.7615441553,0.0012104549,0.0006380218
6006,10.1002/adma.201004200,80,1(a),147,Na0.0035Pb0.9965Se1,Na0.0035Pb0.9965Se1,434.5,0.022931,0.0000087979,0.0001033,1.8946,0.34551,113663.487877789,0.0012128906,0.0006401829
6006,10.1002/adma.201004200,80,1(a),147,Na0.0035Pb0.9965Se1,Na0.0035Pb0.9965Se1,435,0.022907,0.0000088144,0.00010349,1.8919,0.34651,113450.7170085315,0.0012150776,0.0006422526
6006,10.1002/adma.201004200,80,1(a),147,Na0.0035Pb0.9965Se1,Na0.0035Pb0.9965Se1,435.5,0.022883,0.000008831,0.00010369,1.8893,0.3475,113237.4589514211,0.0012174857,0.000644411
6006,10.1002/adma.201004200,80,1(a),147,Na0.0035Pb0.9965Se1,Na0.0035Pb0.9965Se1,436,0.022859,0.0000088476,0.00010388,1.8867,0.3485,113025.00113025,0.0012196589,0.0006464509
6006,10.1002/adma.201004200,80,1(a),147,Na0.0035Pb0.9965Se1,Na0.0035Pb0.9965Se1,436.5,0.022835,0.0000088642,0.00010407,1.884,0.3495,112813.3390492092,0.0012218322,0.0006485309
6006,10.1002/adma.201004200,80,1(a),147,Na0.0035Pb0.9965Se1,Na0.0035Pb0.9965Se1,437,0.022811,0.0000088808,0.00010427,1.8814,0.35049,112602.468246104,0.0012242403,0.0006507071
6006,10.1002/adma.201004200,80,1(a),147,Na0.0035Pb0.9965Se1,Na0.0035Pb0.9965Se1,437.5,0.022786,0.0000088975,0.00010446,1.8788,0.35149,112391.121101433,0.0012263997,0.0006527569
6006,10.1002/adma.201004200,80,1(a),147,Na0.0035Pb0.9965Se1,Na0.0035Pb0.9965Se1,438,0.022762,0.0000089142,0.00010466,1.8762,0.35249,112180.5658387741,0.001228794,0.0006549376
6006,10.1002/adma.201004200,80,1(a),147,Na0.0035Pb0.9965Se1,Na0.0035Pb0.9965Se1,438.5,0.022738,0.000008931,0.00010485,1.8736,0.35348,111969.5442839548,0.0012309397,0.0006569917
6006,10.1002/adma.201004200,80,1(a),147,Na0.0035Pb0.9965Se1,Na0.0035Pb0.9965Se1,439,0.022714,0.0000089478,0.00010505,1.871,0.35448,111759.3151389168,0.0012333202,0.000659177
6006,10.1002/adma.201004200,80,1(a),147,Na0.0035Pb0.9965Se1,Na0.0035Pb0.9965Se1,439.5,0.02269,0.0000089647,0.00010524,1.8685,0.35547,111548.629625085,0.0012354521,0.0006612
6006,10.1002/adma.201004200,80,1(a),147,Na0.0035Pb0.9965Se1,Na0.0035Pb0.9965Se1,440,0.022665,0.0000089816,0.00010544,1.8659,0.35647,111338.7369733678,0.0012378188,0.0006633897
6006,10.1002/adma.201004200,80,1(a),147,Na0.0035Pb0.9965Se1,Na0.0035Pb0.9965Se1,440.5,0.022641,0.0000089985,0.00010563,1.8634,0.35747,111129.6327165639,0.0012399508,0.0006654238
6006,10.1002/adma.201004200,80,1(a),147,Na0.0035Pb0.9965Se1,Na0.0035Pb0.9965Se1,441,0.022617,0.0000090154,0.00010583,1.8608,0.35846,110921.3124209686,0.0012423175,0.0006676255
6006,10.1002/adma.201004200,80,1(a),147,Na0.0035Pb0.9965Se1,Na0.0035Pb0.9965Se1,441.5,0.022593,0.0000090324,0.00010602,1.8583,0.35946,110712.5459457066,0.0012444356,0.0006696635
6006,10.1002/adma.201004200,80,1(a),147,Na0.0035Pb0.9965Se1,Na0.0035Pb0.9965Se1,442,0.022569,0.0000090495,0.00010622,1.8557,0.36045,110503.3427261175,0.0012467748,0.0006718623
6006,10.1002/adma.201004200,80,1(a),147,Na0.0035Pb0.9965Se1,Na0.0035Pb0.9965Se1,442.5,0.022545,0.0000090665,0.00010641,1.8532,0.36145,110296.145149727,0.001248893,0.0006739116
6006,10.1002/adma.201004200,80,1(a),147,Na0.0035Pb0.9965Se1,Na0.0035Pb0.9965Se1,443,0.02252,0.0000090837,0.00010661,1.8507,0.36245,110087.299228288,0.0012512183,0.0006760784
6006,10.1002/adma.201004200,80,1(a),147,Na0.0035Pb0.9965Se1,Na0.0035Pb0.9965Se1,443.5,0.022496,0.0000091008,0.00010681,1.8482,0.36344,109880.4500703235,0.0012535575,0.0006782586
6006,10.1002/adma.201004200,80,1(a),147,Na0.0035Pb0.9965Se1,Na0.0035Pb0.9965Se1,444,0.022472,0.000009118,0.000107,1.8457,0.36444,109673.1739416539,0.0012556482,0.00068031
6006,10.1002/adma.201004200,80,1(a),147,Na0.0035Pb0.9965Se1,Na0.0035Pb0.9965Se1,444.5,0.022448,0.0000091352,0.0001072,1.8432,0.36543,109466.6783431123,0.0012579736,0.0006824943
6006,10.1002/adma.201004200,80,1(a),147,Na0.0035Pb0.9965Se1,Na0.0035Pb0.9965Se1,445,0.022424,0.0000091525,0.00010739,1.8407,0.36643,109259.7650915051,0.0012600505,0.0006845496
6006,10.1002/adma.201004200,80,1(a),147,Na0.0035Pb0.9965Se1,Na0.0035Pb0.9965Se1,445.5,0.0224,0.0000091698,0.00010759,1.8382,0.36743,109053.6325765011,0.0012623621,0.0006867382
6006,10.1002/adma.201004200,80,1(a),147,Na0.0035Pb0.9965Se1,Na0.0035Pb0.9965Se1,446,0.022375,0.0000091872,0.00010779,1.8357,0.36842,108847.0916057123,0.00126466,0.0006889252
6006,10.1002/adma.201004200,80,1(a),147,Na0.0035Pb0.9965Se1,Na0.0035Pb0.9965Se1,446.5,0.022351,0.0000092045,0.00010798,1.8333,0.36942,108642.5118148732,0.001266737,0.00069096
6006,10.1002/adma.201004200,80,1(a),147,Na0.0035Pb0.9965Se1,Na0.0035Pb0.9965Se1,447,0.022327,0.000009222,0.00010818,1.8308,0.37042,108436.3478638039,0.0012690211,0.0006931511
6006,10.1002/adma.201004200,80,1(a),147,Na0.0035Pb0.9965Se1,Na0.0035Pb0.9965Se1,447.5,0.022303,0.0000092394,0.00010838,1.8284,0.37141,108232.136285906,0.001271319,0.0006953177
6006,10.1002/adma.201004200,80,1(a),147,Na0.0035Pb0.9965Se1,Na0.0035Pb0.9965Se1,448,0.022279,0.0000092569,0.00010857,1.8259,0.37241,108027.5254134754,0.0012733685,0.0006973922
6006,10.1002/adma.201004200,80,1(a),147,Na0.0035Pb0.9965Se1,Na0.0035Pb0.9965Se1,448.5,0.022254,0.0000092745,0.00010877,1.8235,0.3734,107822.5241252898,0.0012756389,0.0006995552
6006,10.1002/adma.201004200,80,1(a),147,Na0.0035Pb0.9965Se1,Na0.0035Pb0.9965Se1,449,0.02223,0.0000092921,0.00010897,1.821,0.3744,107618.2994156326,0.0012779093,0.0007017624
6006,10.1002/adma.201004200,80,1(a),147,Na0.0035Pb0.9965Se1,Na0.0035Pb0.9965Se1,449.5,0.022206,0.0000093097,0.00010916,1.8186,0.3754,107414.8468801358,0.0012799452,0.000703808
6006,10.1002/adma.201004200,80,1(a),147,Na0.0035Pb0.9965Se1,Na0.0035Pb0.9965Se1,450,0.022182,0.0000093273,0.00010936,1.8162,0.37639,107212.162147674,0.0012822156,0.0007059881
6006,10.1002/adma.201004200,80,1(a),147,Na0.0035Pb0.9965Se1,Na0.0035Pb0.9965Se1,450.5,0.022158,0.000009345,0.00010956,1.8138,0.37739,107009.0957731407,0.0012844723,0.0007081664
6006,10.1002/adma.201004200,80,1(a),147,Na0.0035Pb0.9965Se1,Na0.0035Pb0.9965Se1,451,0.022134,0.0000093628,0.00010975,1.8114,0.37838,106805.6564275644,0.0012864808,0.0007102135
6006,10.1002/adma.201004200,80,1(a),147,Na0.0035Pb0.9965Se1,Na0.0035Pb0.9965Se1,451.5,0.022109,0.0000093805,0.00010995,1.809,0.37938,106604.1255796599,0.0012887375,0.0007124033
6006,10.1002/adma.201004200,80,1(a),147,Na0.0035Pb0.9965Se1,Na0.0035Pb0.9965Se1,452,0.022085,0.0000093984,0.00011015,1.8066,0.38038,106401.089547157,0.0012909668,0.0007145836
6006,10.1002/adma.201004200,80,1(a),147,Na0.0035Pb0.9965Se1,Na0.0035Pb0.9965Se1,452.5,0.022061,0.0000094162,0.00011035,1.8042,0.38137,106199.9532720206,0.0012932098,0.0007167774
6006,10.1002/adma.201004200,80,1(a),147,Na0.0035Pb0.9965Se1,Na0.0035Pb0.9965Se1,453,0.022037,0.0000094341,0.00011054,1.8019,0.38237,105998.4524225946,0.0012952048,0.0007187995
6006,10.1002/adma.201004200,80,1(a),147,Na0.0035Pb0.9965Se1,Na0.0035Pb0.9965Se1,453.5,0.022013,0.0000094521,0.00011074,1.7995,0.38336,105796.5954655579,0.0012974204,0.0007209894
6006,10.1002/adma.201004200,80,1(a),147,Na0.0035Pb0.9965Se1,Na0.0035Pb0.9965Se1,454,0.021989,0.00000947,0.00011094,1.7971,0.38436,105596.6209081309,0.0012996498,0.0007231928
6006,10.1002/adma.201004200,80,1(a),147,Na0.0035Pb0.9965Se1,Na0.0035Pb0.9965Se1,454.5,0.021964,0.0000094881,0.00011114,1.7948,0.38536,105395.1792245023,0.0013018518,0.0007253464
6006,10.1002/adma.201004200,80,1(a),147,Na0.0035Pb0.9965Se1,Na0.0035Pb0.9965Se1,455,0.02194,0.0000095061,0.00011133,1.7924,0.38635,105195.6112390991,0.0013038332,0.0007274231
6006,10.1002/adma.201004200,80,1(a),147,Na0.0035Pb0.9965Se1,Na0.0035Pb0.9965Se1,455.5,0.021916,0.0000095242,0.00011153,1.7901,0.38735,104995.6951764978,0.0013060352,0.0007295879
6006,10.1002/adma.201004200,80,1(a),147,Na0.0035Pb0.9965Se1,Na0.0035Pb0.9965Se1,456,0.021892,0.0000095424,0.00011173,1.7878,0.38835,104795.4393024816,0.0013082236,0.0007317505
6006,10.1002/adma.201004200,80,1(a),147,Na0.0035Pb0.9965Se1,Na0.0035Pb0.9965Se1,456.5,0.021868,0.0000095605,0.00011193,1.7855,0.38934,104597.0399037707,0.0013104257,0.0007339265
6006,10.1002/adma.201004200,80,1(a),147,Na0.0035Pb0.9965Se1,Na0.0035Pb0.9965Se1,457,0.021843,0.0000095788,0.00011212,1.7831,0.39034,104397.2105065353,0.0013123663,0.0007360026
6006,10.1002/adma.201004200,80,1(a),147,Na0.0035Pb0.9965Se1,Na0.0035Pb0.9965Se1,457.5,0.021819,0.000009597,0.00011232,1.7808,0.39133,104199.2289257059,0.0013145548,0.0007381822
6006,10.1002/adma.201004200,80,1(a),147,Na0.0035Pb0.9965Se1,Na0.0035Pb0.9965Se1,458,0.021795,0.0000096153,0.00011252,1.7785,0.39233,104000.9152080538,0.0013167296,0.0007403596
6006,10.1002/adma.201004200,80,1(a),147,Na0.0035Pb0.9965Se1,Na0.0035Pb0.9965Se1,458.5,0.021771,0.0000096337,0.00011272,1.7762,0.39333,103802.2774219666,0.0013188908,0.0007425351
6006,10.1002/adma.201004200,80,1(a),147,Na0.0035Pb0.9965Se1,Na0.0035Pb0.9965Se1,459,0.021747,0.000009652,0.00011291,1.7739,0.39432,103605.4703688355,0.0013208318,0.000744592
6006,10.1002/adma.201004200,80,1(a),147,Na0.0035Pb0.9965Se1,Na0.0035Pb0.9965Se1,459.5,0.021723,0.0000096705,0.00011311,1.7716,0.39532,103407.269531048,0.0013229794,0.0007467709
6006,10.1002/adma.201004200,80,1(a),147,Na0.0035Pb0.9965Se1,Na0.0035Pb0.9965Se1,460,0.021698,0.0000096889,0.00011331,1.7694,0.39631,103210.8908131986,0.0013251407,0.000748921
6006,10.1002/adma.201004200,80,1(a),147,Na0.0035Pb0.9965Se1,Na0.0035Pb0.9965Se1,460.5,0.021674,0.0000097074,0.00011351,1.7671,0.39731,103014.1953561201,0.0013272885,0.0007511111
6006,10.1002/adma.201004200,80,1(a),147,Na0.0035Pb0.9965Se1,Na0.0035Pb0.9965Se1,461,0.02165,0.000009726,0.00011371,1.7648,0.39831,102817.1910343409,0.0013294226,0.0007532993
6006,10.1002/adma.201004200,80,1(a),147,Na0.0035Pb0.9965Se1,Na0.0035Pb0.9965Se1,461.5,0.021626,0.0000097446,0.0001139,1.7625,0.3993,102620.9387763479,0.001331323,0.0007553606
6006,10.1002/adma.201004200,80,1(a),147,Na0.0035Pb0.9965Se1,Na0.0035Pb0.9965Se1,462,0.021602,0.0000097632,0.0001141,1.7603,0.4003,102425.4342838414,0.0013334573,0.0007575171
6006,10.1002/adma.201004200,80,1(a),147,Na0.0035Pb0.9965Se1,Na0.0035Pb0.9965Se1,462.5,0.021578,0.0000097819,0.0001143,1.758,0.4013,102229.6281908423,0.001335578,0.0007597144
6006,10.1002/adma.201004200,80,1(a),147,Na0.0035Pb0.9965Se1,Na0.0035Pb0.9965Se1,463,0.021553,0.0000098006,0.0001145,1.7558,0.40229,102034.5693120829,0.0013376987,0.0007618742
6006,10.1002/adma.201004200,80,1(a),147,Na0.0035Pb0.9965Se1,Na0.0035Pb0.9965Se1,463.5,0.021529,0.0000098194,0.0001147,1.7536,0.40329,101839.2162453918,0.0013398059,0.0007640316
6006,10.1002/adma.201004200,80,1(a),147,Na0.0035Pb0.9965Se1,Na0.0035Pb0.9965Se1,464,0.021505,0.0000098382,0.00011489,1.7513,0.40428,101644.609786343,0.0013416796,0.0007661049
6006,10.1002/adma.201004200,80,1(a),147,Na0.0035Pb0.9965Se1,Na0.0035Pb0.9965Se1,464.5,0.021481,0.000009857,0.00011509,1.7491,0.40528,101450.7456629806,0.001343787,0.0007682734
6006,10.1002/adma.201004200,80,1(a),147,Na0.0035Pb0.9965Se1,Na0.0035Pb0.9965Se1,465,0.021457,0.0000098759,0.00011529,1.7469,0.40628,101256.5943357061,0.0013458808,0.0007704395
6006,10.1002/adma.201004200,80,1(a),147,Na0.0035Pb0.9965Se1,Na0.0035Pb0.9965Se1,465.5,0.021432,0.0000098948,0.00011549,1.7447,0.40727,101063.1847030764,0.0013479747,0.0007726112
6006,10.1002/adma.201004200,80,1(a),147,Na0.0035Pb0.9965Se1,Na0.0035Pb0.9965Se1,466,0.021408,0.0000099138,0.00011569,1.7425,0.40827,100869.4950473078,0.0013500551,0.0007747805
6006,10.1002/adma.201004200,80,1(a),147,Na0.0035Pb0.9965Se1,Na0.0035Pb0.9965Se1,466.5,0.021384,0.0000099328,0.00011589,1.7403,0.40926,100676.5463917526,0.0013521356,0.0007769554
6006,10.1002/adma.201004200,80,1(a),147,Na0.0035Pb0.9965Se1,Na0.0035Pb0.9965Se1,467,0.02136,0.0000099519,0.00011608,1.7381,0.41026,100483.3247922507,0.0013539692,0.0007789939
6006,10.1002/adma.201004200,80,1(a),147,Na0.0035Pb0.9965Se1,Na0.0035Pb0.9965Se1,467.5,0.021336,0.000009971,0.00011628,1.7359,0.41126,100290.8434459934,0.0013560363,0.0007811719
6006,10.1002/adma.201004200,80,1(a),147,Na0.0035Pb0.9965Se1,Na0.0035Pb0.9965Se1,468,0.021312,0.0000099901,0.00011648,1.7337,0.41225,100099.0981071261,0.0013581036,0.0007833556
6006,10.1002/adma.201004200,80,1(a),147,Na0.0035Pb0.9965Se1,Na0.0035Pb0.9965Se1,468.5,0.021287,0.000010009,0.00011668,1.7315,0.41325,99910.0809271655,0.0013601981,0.0007855605
6006,10.1002/adma.201004200,80,1(a),147,Na0.0035Pb0.9965Se1,Na0.0035Pb0.9965Se1,469,0.021263,0.000010029,0.00011688,1.7294,0.41424,99710.8385681524,0.0013621432,0.0007876392
6006,10.1002/adma.201004200,80,1(a),147,Na0.0035Pb0.9965Se1,Na0.0035Pb0.9965Se1,469.5,0.021239,0.000010048,0.00011707,1.7272,0.41524,99522.2929936306,0.0013639913,0.0007897124
6006,10.1002/adma.201004200,80,1(a),147,Na0.0035Pb0.9965Se1,Na0.0035Pb0.9965Se1,470,0.021215,0.000010067,0.00011727,1.725,0.41624,99334.4591238701,0.0013660726,0.0007919261
6006,10.1002/adma.201004200,80,1(a),147,Na0.0035Pb0.9965Se1,Na0.0035Pb0.9965Se1,470.5,0.021191,0.000010086,0.00011747,1.7229,0.41723,99147.332936744,0.001368154,0.0007940995
6006,10.1002/adma.201004200,80,1(a),147,Na0.0035Pb0.9965Se1,Na0.0035Pb0.9965Se1,471,0.021167,0.000010106,0.00011767,1.7207,0.41823,98951.1181476351,0.0013700998,0.0007962456
6006,10.1002/adma.201004200,80,1(a),147,Na0.0035Pb0.9965Se1,Na0.0035Pb0.9965Se1,471.5,0.021142,0.000010125,0.00011787,1.7186,0.41923,98765.4320987654,0.0013721814,0.0007984298
6006,10.1002/adma.201004200,80,1(a),147,Na0.0035Pb0.9965Se1,Na0.0035Pb0.9965Se1,472,0.021118,0.000010145,0.00011807,1.7164,0.42022,98570.724494825,0.0013741276,0.0008005871
6006,10.1002/adma.201004200,80,1(a),147,Na0.0035Pb0.9965Se1,Na0.0035Pb0.9965Se1,472.5,0.021094,0.000010164,0.00011826,1.7143,0.42122,98386.4620228257,0.0013759767,0.0008026464
6006,10.1002/adma.201004200,80,1(a),147,Na0.0035Pb0.9965Se1,Na0.0035Pb0.9965Se1,473,0.02107,0.000010184,0.00011846,1.7122,0.42221,98193.2443047918,0.0013779234,0.0008047678
6006,10.1002/adma.201004200,80,1(a),147,Na0.0035Pb0.9965Se1,Na0.0035Pb0.9965Se1,473.5,0.021046,0.000010204,0.00011866,1.7101,0.42321,98000.7840062721,0.0013798702,0.0008068945
6006,10.1002/adma.201004200,80,1(a),147,Na0.0035Pb0.9965Se1,Na0.0035Pb0.9965Se1,474,0.021021,0.000010223,0.00011886,1.7079,0.42421,97818.6442335909,0.0013819524,0.000809153
6006,10.1002/adma.201004200,80,1(a),147,Na0.0035Pb0.9965Se1,Na0.0035Pb0.9965Se1,474.5,0.020997,0.000010243,0.00011906,1.7058,0.4252,97627.6481499561,0.0013838996,0.0008112907
6006,10.1002/adma.201004200,80,1(a),147,Na0.0035Pb0.9965Se1,Na0.0035Pb0.9965Se1,475,0.020973,0.000010263,0.00011925,1.7037,0.4262,97437.3964727663,0.0013856146,0.0008132973
6006,10.1002/adma.201004200,80,1(a),147,Na0.0035Pb0.9965Se1,Na0.0035Pb0.9965Se1,475.5,0.020949,0.000010283,0.00011945,1.7016,0.42719,97247.8848585043,0.0013875622,0.0008154456
6006,10.1002/adma.201004200,80,1(a),147,Na0.0035Pb0.9965Se1,Na0.0035Pb0.9965Se1,476,0.020925,0.000010302,0.00011965,1.6995,0.42819,97068.53038245,0.001389645,0.0008176787
6006,10.1002/adma.201004200,80,1(a),147,Na0.0035Pb0.9965Se1,Na0.0035Pb0.9965Se1,476.5,0.020901,0.000010322,0.00011985,1.6974,0.42919,96880.4495252858,0.001391593,0.000819838
6006,10.1002/adma.201004200,80,1(a),147,Na0.0035Pb0.9965Se1,Na0.0035Pb0.9965Se1,477,0.020876,0.000010342,0.00012005,1.6954,0.43018,96693.0961129375,0.0013935411,0.0008219542
6006,10.1002/adma.201004200,80,1(a),147,Na0.0035Pb0.9965Se1,Na0.0035Pb0.9965Se1,477.5,0.020852,0.000010362,0.00012024,1.6933,0.43118,96506.4659332175,0.0013952574,0.0008239871
6006,10.1002/adma.201004200,80,1(a),147,Na0.0035Pb0.9965Se1,Na0.0035Pb0.9965Se1,478,0.020828,0.000010382,0.00012044,1.6912,0.43217,96320.5548063957,0.0013972061,0.0008261625
6006,10.1002/adma.201004200,80,1(a),147,Na0.0035Pb0.9965Se1,Na0.0035Pb0.9965Se1,478.5,0.020804,0.000010402,0.00012064,1.6891,0.43317,96135.3585848875,0.0013991549,0.0008283435
6006,10.1002/adma.201004200,80,1(a),147,Na0.0035Pb0.9965Se1,Na0.0035Pb0.9965Se1,479,0.02078,0.000010422,0.00012084,1.6871,0.43417,95950.8731529457,0.001401104,0.0008304807
6006,10.1002/adma.201004200,80,1(a),147,Na0.0035Pb0.9965Se1,Na0.0035Pb0.9965Se1,479.5,0.020756,0.000010443,0.00012104,1.685,0.43516,95757.9239682084,0.0014029189,0.0008325928
6006,10.1002/adma.201004200,80,1(a),147,Na0.0035Pb0.9965Se1,Na0.0035Pb0.9965Se1,480,0.020731,0.000010463,0.00012123,1.683,0.43616,95574.8829207684,0.0014046366,0.0008346029
6006,10.1002/adma.201004200,80,1(a),147,Na0.0035Pb0.9965Se1,Na0.0035Pb0.9965Se1,480.5,0.020707,0.000010483,0.00012143,1.6809,0.43716,95392.5403033483,0.0014065864,0.0008368055
6006,10.1002/adma.201004200,80,1(a),147,Na0.0035Pb0.9965Se1,Na0.0035Pb0.9965Se1,481,0.020683,0.000010503,0.00012163,1.6789,0.43815,95210.8921260592,0.0014085363,0.0008389638
6006,10.1002/adma.201004200,80,1(a),147,Na0.0035Pb0.9965Se1,Na0.0035Pb0.9965Se1,481.5,0.020659,0.000010524,0.00012183,1.6768,0.43915,95020.9045990118,0.0014103524,0.0008410976
6006,10.1002/adma.201004200,80,1(a),147,Na0.0035Pb0.9965Se1,Na0.0035Pb0.9965Se1,482,0.020635,0.000010544,0.00012203,1.6748,0.44014,94840.6676783005,0.0014123028,0.0008432665
6006,10.1002/adma.201004200,80,1(a),147,Na0.0035Pb0.9965Se1,Na0.0035Pb0.9965Se1,482.5,0.02061,0.000010565,0.00012222,1.6728,0.44114,94652.1533364884,0.0014138882,0.0008452225
6006,10.1002/adma.201004200,80,1(a),147,Na0.0035Pb0.9965Se1,Na0.0035Pb0.9965Se1,483,0.020586,0.000010585,0.00012242,1.6708,0.44214,94473.3112895607,0.0014158391,0.0008474019
6006,10.1002/adma.201004200,80,1(a),147,Na0.0035Pb0.9965Se1,Na0.0035Pb0.9965Se1,483.5,0.020562,0.000010606,0.00012262,1.6687,0.44313,94286.2530643032,0.0014176565,0.0008495574
6006,10.1002/adma.201004200,80,1(a),147,Na0.0035Pb0.9965Se1,Na0.0035Pb0.9965Se1,484,0.020538,0.000010626,0.00012282,1.6667,0.44413,94108.7897609637,0.0014196078,0.0008517476
6006,10.1002/adma.201004200,80,1(a),147,Na0.0035Pb0.9965Se1,Na0.0035Pb0.9965Se1,484.5,0.020514,0.000010647,0.00012301,1.6647,0.44512,93923.1708462478,0.0014211947,0.0008537242