sid,DOI,figureid,fignum,sampleid,samplename,composition,Temperature,Carrier mobility,Electrical resistivity,Seebeck coefficient,Thermal conductivity,ZT,Electrical conductivity,Power factor,Figure of merit Z
6006,10.1002/adma.201004200,80,1(a),124,Na0.0125Pb0.9875Se1,Na0.0125Pb0.9875Se1,535.5,0.0076451,0.000006514,0.000071477,2.2416,0.26584,153515.5050660117,0.0007843048,0.0003498862
6006,10.1002/adma.201004200,80,1(a),124,Na0.0125Pb0.9875Se1,Na0.0125Pb0.9875Se1,536,0.0076372,0.0000065244,0.000071621,2.2392,0.26694,153270.7988474036,0.0007862129,0.0003511133
6006,10.1002/adma.201004200,80,1(a),124,Na0.0125Pb0.9875Se1,Na0.0125Pb0.9875Se1,536.5,0.0076293,0.0000065347,0.000071764,2.2368,0.26805,153029.2132768145,0.0007881114,0.0003523388
6006,10.1002/adma.201004200,80,1(a),124,Na0.0125Pb0.9875Se1,Na0.0125Pb0.9875Se1,537,0.0076214,0.0000065452,0.000071907,2.2345,0.26916,152783.7193668643,0.000789986,0.0003535404
6006,10.1002/adma.201004200,80,1(a),124,Na0.0125Pb0.9875Se1,Na0.0125Pb0.9875Se1,537.5,0.0076135,0.0000065556,0.00007205,2.2321,0.27027,152541.3387027885,0.000791873,0.0003547659
6006,10.1002/adma.201004200,80,1(a),124,Na0.0125Pb0.9875Se1,Na0.0125Pb0.9875Se1,538,0.0076055,0.000006566,0.000072192,2.2297,0.27137,152299.7258604934,0.0007937382,0.0003559843
6006,10.1002/adma.201004200,80,1(a),124,Na0.0125Pb0.9875Se1,Na0.0125Pb0.9875Se1,538.5,0.0075976,0.0000065765,0.000072335,2.2274,0.27248,152056.5650421957,0.0007956135,0.0003571938
6006,10.1002/adma.201004200,80,1(a),124,Na0.0125Pb0.9875Se1,Na0.0125Pb0.9875Se1,539,0.0075897,0.000006587,0.000072478,2.225,0.27359,151814.1794443601,0.0007974891,0.0003584221
6006,10.1002/adma.201004200,80,1(a),124,Na0.0125Pb0.9875Se1,Na0.0125Pb0.9875Se1,539.5,0.0075818,0.0000065975,0.000072621,2.2227,0.2747,151572.5653656688,0.0007993649,0.0003596369
6006,10.1002/adma.201004200,80,1(a),124,Na0.0125Pb0.9875Se1,Na0.0125Pb0.9875Se1,540,0.0075739,0.000006608,0.000072764,2.2203,0.2758,151331.7191283293,0.0008012409,0.0003608705
6006,10.1002/adma.201004200,80,1(a),124,Na0.0125Pb0.9875Se1,Na0.0125Pb0.9875Se1,540.5,0.007566,0.0000066186,0.000072906,2.218,0.27691,151089.3542441,0.000803083,0.0003620753
6006,10.1002/adma.201004200,80,1(a),124,Na0.0125Pb0.9875Se1,Na0.0125Pb0.9875Se1,541,0.0075581,0.0000066291,0.000073049,2.2156,0.27802,150850.0399752606,0.0008049594,0.0003633144
6006,10.1002/adma.201004200,80,1(a),124,Na0.0125Pb0.9875Se1,Na0.0125Pb0.9875Se1,541.5,0.0075501,0.0000066397,0.000073192,2.2133,0.27913,150609.2142717291,0.0008068239,0.0003645344
6006,10.1002/adma.201004200,80,1(a),124,Na0.0125Pb0.9875Se1,Na0.0125Pb0.9875Se1,542,0.0075422,0.0000066503,0.000073334,2.2109,0.28024,150369.1562786641,0.0008086666,0.0003657635
6006,10.1002/adma.201004200,80,1(a),124,Na0.0125Pb0.9875Se1,Na0.0125Pb0.9875Se1,542.5,0.0075343,0.0000066609,0.000073477,2.2086,0.28134,150129.8623309163,0.0008105315,0.0003669888
6006,10.1002/adma.201004200,80,1(a),124,Na0.0125Pb0.9875Se1,Na0.0125Pb0.9875Se1,543,0.0075264,0.0000066715,0.00007362,2.2062,0.28245,149891.3287866297,0.0008123967,0.0003682335
6006,10.1002/adma.201004200,80,1(a),124,Na0.0125Pb0.9875Se1,Na0.0125Pb0.9875Se1,543.5,0.0075185,0.0000066822,0.000073762,2.2039,0.28356,149651.3124420101,0.0008142277,0.0003694486
6006,10.1002/adma.201004200,80,1(a),124,Na0.0125Pb0.9875Se1,Na0.0125Pb0.9875Se1,544,0.0075106,0.0000066929,0.000073905,2.2016,0.28467,149412.0635300094,0.0008160811,0.0003706764
6006,10.1002/adma.201004200,80,1(a),124,Na0.0125Pb0.9875Se1,Na0.0125Pb0.9875Se1,544.5,0.0075027,0.0000067036,0.000074047,2.1992,0.28577,149173.5783757981,0.0008179125,0.0003719136
6006,10.1002/adma.201004200,80,1(a),124,Na0.0125Pb0.9875Se1,Na0.0125Pb0.9875Se1,545,0.0074947,0.0000067143,0.000074189,2.1969,0.28688,148935.8533279717,0.0008197441,0.0003731367
6006,10.1002/adma.201004200,80,1(a),124,Na0.0125Pb0.9875Se1,Na0.0125Pb0.9875Se1,545.5,0.0074868,0.000006725,0.000074332,2.1946,0.28799,148698.8847583643,0.000821598,0.0003743725
6006,10.1002/adma.201004200,80,1(a),124,Na0.0125Pb0.9875Se1,Na0.0125Pb0.9875Se1,546,0.0074789,0.0000067357,0.000074474,2.1922,0.2891,148462.6690618644,0.0008234299,0.000375618
6006,10.1002/adma.201004200,80,1(a),124,Na0.0125Pb0.9875Se1,Na0.0125Pb0.9875Se1,546.5,0.007471,0.0000067465,0.000074616,2.1899,0.2902,148225.0055584377,0.0008252498,0.0003768436
6006,10.1002/adma.201004200,80,1(a),124,Na0.0125Pb0.9875Se1,Na0.0125Pb0.9875Se1,547,0.0074631,0.0000067573,0.000074759,2.1876,0.29131,147988.1017566188,0.0008270919,0.0003780819
6006,10.1002/adma.201004200,80,1(a),124,Na0.0125Pb0.9875Se1,Na0.0125Pb0.9875Se1,547.5,0.0074552,0.0000067681,0.000074901,2.1853,0.29242,147751.9540195919,0.0008289121,0.0003793127
6006,10.1002/adma.201004200,80,1(a),124,Na0.0125Pb0.9875Se1,Na0.0125Pb0.9875Se1,548,0.0074473,0.0000067789,0.000075043,2.1829,0.29353,147516.5587337179,0.0008307324,0.0003805637
6006,10.1002/adma.201004200,80,1(a),124,Na0.0125Pb0.9875Se1,Na0.0125Pb0.9875Se1,548.5,0.0074393,0.0000067898,0.000075185,2.1806,0.29463,147279.7431441279,0.0008325406,0.0003817943
6006,10.1002/adma.201004200,80,1(a),124,Na0.0125Pb0.9875Se1,Na0.0125Pb0.9875Se1,549,0.0074314,0.0000068006,0.000075328,2.1783,0.29574,147045.8488956857,0.0008343834,0.0003830434
6006,10.1002/adma.201004200,80,1(a),124,Na0.0125Pb0.9875Se1,Na0.0125Pb0.9875Se1,549.5,0.0074235,0.0000068115,0.00007547,2.176,0.29685,146810.5409968436,0.0008361919,0.0003842794
6006,10.1002/adma.201004200,80,1(a),124,Na0.0125Pb0.9875Se1,Na0.0125Pb0.9875Se1,550,0.0074156,0.0000068224,0.000075612,2.1737,0.29796,146575.9849906191,0.0008380005,0.000385518
6006,10.1002/adma.201004200,80,1(a),124,Na0.0125Pb0.9875Se1,Na0.0125Pb0.9875Se1,550.5,0.0074077,0.0000068334,0.000075754,2.1714,0.29906,146340.0357069687,0.000839797,0.0003867537
6006,10.1002/adma.201004200,80,1(a),124,Na0.0125Pb0.9875Se1,Na0.0125Pb0.9875Se1,551,0.0073998,0.0000068443,0.000075896,2.1691,0.30017,146106.9795304122,0.0008416058,0.0003879977
6006,10.1002/adma.201004200,80,1(a),124,Na0.0125Pb0.9875Se1,Na0.0125Pb0.9875Se1,551.5,0.0073919,0.0000068553,0.000076038,2.1668,0.30128,145872.5365775385,0.0008434025,0.0003892388
6006,10.1002/adma.201004200,80,1(a),124,Na0.0125Pb0.9875Se1,Na0.0125Pb0.9875Se1,552,0.0073839,0.0000068663,0.00007618,2.1644,0.30239,145638.8447926831,0.0008451994,0.0003905005
6006,10.1002/adma.201004200,80,1(a),124,Na0.0125Pb0.9875Se1,Na0.0125Pb0.9875Se1,552.5,0.007376,0.0000068773,0.000076322,2.1621,0.3035,145405.9005714452,0.0008469963,0.0003917471
6006,10.1002/adma.201004200,80,1(a),124,Na0.0125Pb0.9875Se1,Na0.0125Pb0.9875Se1,553,0.0073681,0.0000068883,0.000076464,2.1598,0.3046,145173.7003324478,0.0008487934,0.0003929963
6006,10.1002/adma.201004200,80,1(a),124,Na0.0125Pb0.9875Se1,Na0.0125Pb0.9875Se1,553.5,0.0073602,0.0000068993,0.000076606,2.1575,0.30571,144942.2405171539,0.0008505905,0.0003942482
6006,10.1002/adma.201004200,80,1(a),124,Na0.0125Pb0.9875Se1,Na0.0125Pb0.9875Se1,554,0.0073523,0.0000069104,0.000076748,2.1552,0.30682,144709.4234776569,0.0008523755,0.0003954972
6006,10.1002/adma.201004200,80,1(a),124,Na0.0125Pb0.9875Se1,Na0.0125Pb0.9875Se1,554.5,0.0073444,0.0000069215,0.00007689,2.1529,0.30793,144477.3531748898,0.0008541605,0.0003967488
6006,10.1002/adma.201004200,80,1(a),124,Na0.0125Pb0.9875Se1,Na0.0125Pb0.9875Se1,555,0.0073365,0.0000069326,0.000077032,2.1507,0.30903,144246.0260219831,0.0008559457,0.0003979847
6006,10.1002/adma.201004200,80,1(a),124,Na0.0125Pb0.9875Se1,Na0.0125Pb0.9875Se1,555.5,0.0073285,0.0000069437,0.000077174,2.1484,0.31014,144015.4384550024,0.0008577309,0.0003992417
6006,10.1002/adma.201004200,80,1(a),124,Na0.0125Pb0.9875Se1,Na0.0125Pb0.9875Se1,556,0.0073206,0.0000069549,0.000077315,2.1461,0.31125,143783.5195329911,0.0008594817,0.0004004854
6006,10.1002/adma.201004200,80,1(a),124,Na0.0125Pb0.9875Se1,Na0.0125Pb0.9875Se1,556.5,0.0073127,0.000006966,0.000077457,2.1438,0.31236,143554.4071202986,0.0008612671,0.0004017479
6006,10.1002/adma.201004200,80,1(a),124,Na0.0125Pb0.9875Se1,Na0.0125Pb0.9875Se1,557,0.0073048,0.0000069772,0.000077599,2.1415,0.31346,143323.9695006593,0.0008630403,0.0004030074
6006,10.1002/adma.201004200,80,1(a),124,Na0.0125Pb0.9875Se1,Na0.0125Pb0.9875Se1,557.5,0.0072969,0.0000069885,0.000077741,2.1392,0.31457,143092.2229376833,0.0008648012,0.0004042638
6006,10.1002/adma.201004200,80,1(a),124,Na0.0125Pb0.9875Se1,Na0.0125Pb0.9875Se1,558,0.007289,0.0000069997,0.000077883,2.1369,0.31568,142863.2655685244,0.0008665745,0.0004055288
6006,10.1002/adma.201004200,80,1(a),124,Na0.0125Pb0.9875Se1,Na0.0125Pb0.9875Se1,558.5,0.0072811,0.0000070109,0.000078024,2.1346,0.31679,142635.0397238586,0.0008683257,0.0004067861
6006,10.1002/adma.201004200,80,1(a),124,Na0.0125Pb0.9875Se1,Na0.0125Pb0.9875Se1,559,0.0072731,0.0000070222,0.000078166,2.1324,0.31789,142405.5139414998,0.0008700868,0.0004080317
6006,10.1002/adma.201004200,80,1(a),124,Na0.0125Pb0.9875Se1,Na0.0125Pb0.9875Se1,559.5,0.0072652,0.0000070335,0.000078308,2.1301,0.319,142176.7256700078,0.000871848,0.0004092991
6006,10.1002/adma.201004200,80,1(a),124,Na0.0125Pb0.9875Se1,Na0.0125Pb0.9875Se1,560,0.0072573,0.0000070448,0.00007845,2.1278,0.32011,141948.6713604361,0.0008736093,0.0004105693
6006,10.1002/adma.201004200,80,1(a),124,Na0.0125Pb0.9875Se1,Na0.0125Pb0.9875Se1,560.5,0.0072494,0.0000070562,0.000078592,2.1255,0.32122,141719.3390210028,0.0008753582,0.0004118364
6006,10.1002/adma.201004200,80,1(a),124,Na0.0125Pb0.9875Se1,Na0.0125Pb0.9875Se1,561,0.0072415,0.0000070675,0.000078733,2.1233,0.32232,141492.7484966395,0.0008770973,0.0004130821
6006,10.1002/adma.201004200,80,1(a),124,Na0.0125Pb0.9875Se1,Na0.0125Pb0.9875Se1,561.5,0.0072336,0.0000070789,0.000078875,2.121,0.32343,141264.8857873399,0.0008788464,0.0004143547
6006,10.1002/adma.201004200,80,1(a),124,Na0.0125Pb0.9875Se1,Na0.0125Pb0.9875Se1,562,0.0072257,0.0000070903,0.000079017,2.1187,0.32454,141037.7558072296,0.0008805955,0.0004156301
6006,10.1002/adma.201004200,80,1(a),124,Na0.0125Pb0.9875Se1,Na0.0125Pb0.9875Se1,562.5,0.0072177,0.0000071017,0.000079158,2.1165,0.32565,140811.3550276694,0.0008823224,0.0004168781
6006,10.1002/adma.201004200,80,1(a),124,Na0.0125Pb0.9875Se1,Na0.0125Pb0.9875Se1,563,0.0072098,0.0000071132,0.0000793,2.1142,0.32676,140583.703537086,0.0008840592,0.0004181531
6006,10.1002/adma.201004200,80,1(a),124,Na0.0125Pb0.9875Se1,Na0.0125Pb0.9875Se1,563.5,0.0072019,0.0000071246,0.000079442,2.1119,0.32786,140358.7569828482,0.0008858085,0.0004194368
6006,10.1002/adma.201004200,80,1(a),124,Na0.0125Pb0.9875Se1,Na0.0125Pb0.9875Se1,564,0.007194,0.0000071361,0.000079584,2.1097,0.32897,140132.5654068749,0.0008875454,0.0004206975
6006,10.1002/adma.201004200,80,1(a),124,Na0.0125Pb0.9875Se1,Na0.0125Pb0.9875Se1,564.5,0.0071861,0.0000071476,0.000079725,2.1074,0.33008,139907.1016844815,0.0008892601,0.0004219703
6006,10.1002/adma.201004200,80,1(a),124,Na0.0125Pb0.9875Se1,Na0.0125Pb0.9875Se1,565,0.0071782,0.0000071592,0.000079867,2.1052,0.33119,139680.4112191306,0.0008909847,0.0004232304
6006,10.1002/adma.201004200,80,1(a),124,Na0.0125Pb0.9875Se1,Na0.0125Pb0.9875Se1,565.5,0.0071703,0.0000071707,0.000080009,2.1029,0.33229,139456.3989568661,0.0008927218,0.0004245194
6006,10.1002/adma.201004200,80,1(a),124,Na0.0125Pb0.9875Se1,Na0.0125Pb0.9875Se1,566,0.0071623,0.0000071823,0.00008015,2.1007,0.3334,139231.1655040864,0.0008944241,0.0004257743
6006,10.1002/adma.201004200,80,1(a),124,Na0.0125Pb0.9875Se1,Na0.0125Pb0.9875Se1,566.5,0.0071544,0.0000071939,0.000080292,2.0984,0.33451,139006.6584189383,0.0008961489,0.0004270629
6006,10.1002/adma.201004200,80,1(a),124,Na0.0125Pb0.9875Se1,Na0.0125Pb0.9875Se1,567,0.0071465,0.0000072055,0.000080434,2.0962,0.33562,138782.8741933245,0.0008978736,0.0004283339
6006,10.1002/adma.201004200,80,1(a),124,Na0.0125Pb0.9875Se1,Na0.0125Pb0.9875Se1,567.5,0.0071386,0.0000072172,0.000080576,2.0939,0.33672,138557.8894862273,0.000899586,0.0004296222
6006,10.1002/adma.201004200,80,1(a),124,Na0.0125Pb0.9875Se1,Na0.0125Pb0.9875Se1,568,0.0071307,0.0000072288,0.000080717,2.0917,0.33783,138335.5467020806,0.0009012885,0.000430888
6006,10.1002/adma.201004200,80,1(a),124,Na0.0125Pb0.9875Se1,Na0.0125Pb0.9875Se1,568.5,0.0071228,0.0000072405,0.000080859,2.0894,0.33894,138112.0088391686,0.0009030009,0.0004321819
6006,10.1002/adma.201004200,80,1(a),124,Na0.0125Pb0.9875Se1,Na0.0125Pb0.9875Se1,569,0.0071149,0.0000072522,0.000081001,2.0872,0.34005,137889.1922451118,0.0009047133,0.0004334579
6006,10.1002/adma.201004200,80,1(a),124,Na0.0125Pb0.9875Se1,Na0.0125Pb0.9875Se1,569.5,0.0071069,0.000007264,0.000081142,2.0849,0.34115,137665.1982378855,0.000906391,0.0004347408
6006,10.1002/adma.201004200,80,1(a),124,Na0.0125Pb0.9875Se1,Na0.0125Pb0.9875Se1,570,0.007099,0.0000072757,0.000081284,2.0827,0.34226,137443.8198386409,0.0009081035,0.0004360222
6006,10.1002/adma.201004200,80,1(a),124,Na0.0125Pb0.9875Se1,Na0.0125Pb0.9875Se1,570.5,0.0070911,0.0000072875,0.000081426,2.0805,0.34337,137221.269296741,0.0009098036,0.0004373004
6006,10.1002/adma.201004200,80,1(a),124,Na0.0125Pb0.9875Se1,Na0.0125Pb0.9875Se1,571,0.0070832,0.0000072993,0.000081568,2.0782,0.34448,136999.438302303,0.0009115037,0.0004386025
6006,10.1002/adma.201004200,80,1(a),124,Na0.0125Pb0.9875Se1,Na0.0125Pb0.9875Se1,571.5,0.0070753,0.0000073111,0.00008171,2.076,0.34558,136778.3233713121,0.0009132038,0.0004398862
6006,10.1002/adma.201004200,80,1(a),124,Na0.0125Pb0.9875Se1,Na0.0125Pb0.9875Se1,572,0.0070674,0.000007323,0.000081851,2.0738,0.34669,136556.0562610952,0.0009148691,0.0004411559
6006,10.1002/adma.201004200,80,1(a),124,Na0.0125Pb0.9875Se1,Na0.0125Pb0.9875Se1,572.5,0.0070595,0.0000073349,0.000081993,2.0715,0.3478,136334.5103546061,0.0009165567,0.0004424604
6006,10.1002/adma.201004200,80,1(a),124,Na0.0125Pb0.9875Se1,Na0.0125Pb0.9875Se1,573,0.0070515,0.0000073468,0.000082135,2.0693,0.34891,136113.6821473295,0.0009182444,0.0004437464
6006,10.1002/adma.201004200,80,1(a),124,Na0.0125Pb0.9875Se1,Na0.0125Pb0.9875Se1,573.5,0.0070436,0.0000073587,0.000082277,2.0671,0.35002,135893.5681574191,0.0009199322,0.0004450351
6006,10.1002/adma.201004200,80,1(a),124,Na0.0125Pb0.9875Se1,Na0.0125Pb0.9875Se1,574,0.0070357,0.0000073706,0.000082419,2.0649,0.35112,135674.1649255149,0.0009216199,0.0004463266
6006,10.1002/adma.201004200,80,1(a),124,Na0.0125Pb0.9875Se1,Na0.0125Pb0.9875Se1,574.5,0.0070278,0.0000073826,0.000082561,2.0626,0.35223,135453.6342210062,0.0009232951,0.0004476365
6006,10.1002/adma.201004200,80,1(a),124,Na0.0125Pb0.9875Se1,Na0.0125Pb0.9875Se1,575,0.0070199,0.0000073946,0.000082702,2.0604,0.35334,135233.8192735239,0.000924948,0.0004489167
6006,10.1002/adma.201004200,80,1(a),124,Na0.0125Pb0.9875Se1,Na0.0125Pb0.9875Se1,575.5,0.007012,0.0000074066,0.000082844,2.0582,0.35445,135014.7166041099,0.0009266233,0.0004502105
6006,10.1002/adma.201004200,80,1(a),124,Na0.0125Pb0.9875Se1,Na0.0125Pb0.9875Se1,576,0.0070041,0.0000074186,0.000082986,2.056,0.35555,134796.3227563152,0.0009282986,0.0004515071
6006,10.1002/adma.201004200,80,1(a),124,Na0.0125Pb0.9875Se1,Na0.0125Pb0.9875Se1,576.5,0.0069961,0.0000074307,0.000083128,2.0538,0.35666,134576.823179512,0.0009299614,0.0004528004
6006,10.1002/adma.201004200,80,1(a),124,Na0.0125Pb0.9875Se1,Na0.0125Pb0.9875Se1,577,0.0069882,0.0000074428,0.00008327,2.0516,0.35777,134358.0372977912,0.0009316242,0.0004540964
6006,10.1002/adma.201004200,80,1(a),124,Na0.0125Pb0.9875Se1,Na0.0125Pb0.9875Se1,577.5,0.0069803,0.0000074549,0.000083412,2.0494,0.35888,134139.961635971,0.0009332871,0.0004553953
6006,10.1002/adma.201004200,80,1(a),124,Na0.0125Pb0.9875Se1,Na0.0125Pb0.9875Se1,578,0.0069724,0.000007467,0.000083554,2.0471,0.35998,133922.5927413955,0.0009349499,0.0004567192
6006,10.1002/adma.201004200,80,1(a),124,Na0.0125Pb0.9875Se1,Na0.0125Pb0.9875Se1,578.5,0.0069645,0.0000074791,0.000083696,2.0449,0.36109,133705.9271837521,0.0009366127,0.0004580237
6006,10.1002/adma.201004200,80,1(a),124,Na0.0125Pb0.9875Se1,Na0.0125Pb0.9875Se1,579,0.0069566,0.0000074913,0.000083838,2.0427,0.3622,133488.1796216945,0.0009382631,0.000459325
6006,10.1002/adma.201004200,80,1(a),124,Na0.0125Pb0.9875Se1,Na0.0125Pb0.9875Se1,579.5,0.0069487,0.0000075035,0.00008398,2.0405,0.36331,133271.1401346038,0.0009399134,0.000460629
6006,10.1002/adma.201004200,80,1(a),124,Na0.0125Pb0.9875Se1,Na0.0125Pb0.9875Se1,580,0.0069407,0.0000075157,0.000084123,2.0383,0.36441,133054.8052742925,0.0009415862,0.0004619468
6006,10.1002/adma.201004200,80,1(a),124,Na0.0125Pb0.9875Se1,Na0.0125Pb0.9875Se1,580.5,0.0069328,0.000007528,0.000084265,2.0361,0.36552,132837.4070138151,0.000943224,0.0004632503
6006,10.1002/adma.201004200,80,1(a),124,Na0.0125Pb0.9875Se1,Na0.0125Pb0.9875Se1,581,0.0069249,0.0000075403,0.000084407,2.0339,0.36663,132620.7180085673,0.0009448618,0.0004645567
6006,10.1002/adma.201004200,80,1(a),124,Na0.0125Pb0.9875Se1,Na0.0125Pb0.9875Se1,581.5,0.006917,0.0000075526,0.000084549,2.0317,0.36774,132404.7347933162,0.0009464997,0.0004658659
6006,10.1002/adma.201004200,80,1(a),124,Na0.0125Pb0.9875Se1,Na0.0125Pb0.9875Se1,582,0.0069091,0.0000075649,0.000084691,2.0296,0.36884,132189.4539253658,0.0009481375,0.0004671549
6006,10.1002/adma.201004200,80,1(a),124,Na0.0125Pb0.9875Se1,Na0.0125Pb0.9875Se1,582.5,0.0069012,0.0000075772,0.000084834,2.0274,0.36995,131974.8719843742,0.0009497978,0.0004684807
6006,10.1002/adma.201004200,80,1(a),124,Na0.0125Pb0.9875Se1,Na0.0125Pb0.9875Se1,583,0.0068933,0.0000075896,0.000084976,2.0252,0.37106,131759.2494993148,0.0009514231,0.0004697922
6006,10.1002/adma.201004200,80,1(a),124,Na0.0125Pb0.9875Se1,Na0.0125Pb0.9875Se1,583.5,0.0068853,0.000007602,0.000085119,2.023,0.37217,131544.330439358,0.0009530708,0.0004711175
6006,10.1002/adma.201004200,80,1(a),124,Na0.0125Pb0.9875Se1,Na0.0125Pb0.9875Se1,584,0.0068774,0.0000076144,0.000085261,2.0208,0.37328,131330.1113679344,0.0009546961,0.0004724347
6006,10.1002/adma.201004200,80,1(a),124,Na0.0125Pb0.9875Se1,Na0.0125Pb0.9875Se1,584.5,0.0068695,0.0000076269,0.000085403,2.0186,0.37438,131114.8697373769,0.0009563089,0.0004737486
6006,10.1002/adma.201004200,80,1(a),124,Na0.0125Pb0.9875Se1,Na0.0125Pb0.9875Se1,585,0.0068616,0.0000076394,0.000085546,2.0164,0.37549,130900.3324868445,0.0009579441,0.0004750764
6006,10.1002/adma.201004200,80,1(a),124,Na0.0125Pb0.9875Se1,Na0.0125Pb0.9875Se1,585.5,0.0068537,0.0000076518,0.000085688,2.0143,0.3766,130688.2040826995,0.0009595694,0.0004763786
6006,10.1002/adma.201004200,80,1(a),124,Na0.0125Pb0.9875Se1,Na0.0125Pb0.9875Se1,586,0.0068458,0.0000076644,0.000085831,2.0121,0.37771,130473.3573404311,0.0009611921,0.0004777059
6006,10.1002/adma.201004200,80,1(a),124,Na0.0125Pb0.9875Se1,Na0.0125Pb0.9875Se1,586.5,0.0068379,0.0000076769,0.000085974,2.0099,0.37881,130260.9126079537,0.0009628273,0.0004790424
6006,10.1002/adma.201004200,80,1(a),124,Na0.0125Pb0.9875Se1,Na0.0125Pb0.9875Se1,587,0.0068299,0.0000076895,0.000086116,2.0077,0.37992,130047.4673255738,0.0009644275,0.0004803644
6006,10.1002/adma.201004200,80,1(a),124,Na0.0125Pb0.9875Se1,Na0.0125Pb0.9875Se1,587.5,0.006822,0.0000077021,0.000086259,2.0056,0.38103,129834.7204009296,0.0009660502,0.0004816764
6006,10.1002/adma.201004200,80,1(a),124,Na0.0125Pb0.9875Se1,Na0.0125Pb0.9875Se1,588,0.0068141,0.0000077147,0.000086402,2.0034,0.38214,129622.668412252,0.0009676728,0.0004830153
6006,10.1002/adma.201004200,80,1(a),124,Na0.0125Pb0.9875Se1,Na0.0125Pb0.9875Se1,588.5,0.0068062,0.0000077274,0.000086545,2.0012,0.38324,129409.6332530994,0.0009692829,0.0004843509
6006,10.1002/adma.201004200,80,1(a),124,Na0.0125Pb0.9875Se1,Na0.0125Pb0.9875Se1,589,0.0067983,0.00000774,0.000086687,1.9991,0.38435,129198.9664082687,0.0009708832,0.0004856601
6006,10.1002/adma.201004200,80,1(a),124,Na0.0125Pb0.9875Se1,Na0.0125Pb0.9875Se1,589.5,0.0067904,0.0000077527,0.00008683,1.9969,0.38546,128987.3205463903,0.0009724933,0.0004870015
6006,10.1002/adma.201004200,80,1(a),124,Na0.0125Pb0.9875Se1,Na0.0125Pb0.9875Se1,590,0.0067825,0.0000077655,0.000086973,1.9947,0.38657,128774.7086472217,0.0009740909,0.0004883395
6006,10.1002/adma.201004200,80,1(a),124,Na0.0125Pb0.9875Se1,Na0.0125Pb0.9875Se1,590.5,0.0067745,0.0000077782,0.000087116,1.9926,0.38767,128564.4493584634,0.000975701,0.0004896622