sid,DOI,figureid,fignum,sampleid,samplename,composition,Temperature,Carrier mobility,Electrical resistivity,Seebeck coefficient,Thermal conductivity,ZT,Electrical conductivity,Power factor,Figure of merit Z
6006,10.1002/adma.201004200,80,1(a),324,Na0.007Pb0.993Se1,Na0.007Pb0.993Se1,522.5,0.012056,0.0000074625,0.000083374,1.981,0.34278,134003.3500837521,0.0009314873,0.0004702106
6006,10.1002/adma.201004200,80,1(a),324,Na0.007Pb0.993Se1,Na0.007Pb0.993Se1,523,0.012041,0.0000074763,0.000083533,1.9788,0.34396,133756.0023006032,0.0009333176,0.0004716584
6006,10.1002/adma.201004200,80,1(a),324,Na0.007Pb0.993Se1,Na0.007Pb0.993Se1,523.5,0.012027,0.0000074902,0.000083691,1.9766,0.34515,133507.7835037783,0.000935113,0.0004730917
6006,10.1002/adma.201004200,80,1(a),324,Na0.007Pb0.993Se1,Na0.007Pb0.993Se1,524,0.012012,0.0000075041,0.00008385,1.9744,0.34634,133260.4842685998,0.0009369308,0.0004745395
6006,10.1002/adma.201004200,80,1(a),324,Na0.007Pb0.993Se1,Na0.007Pb0.993Se1,524.5,0.011997,0.000007518,0.000084009,1.9721,0.34753,133014.0994945464,0.0009387486,0.0004760147
6006,10.1002/adma.201004200,80,1(a),324,Na0.007Pb0.993Se1,Na0.007Pb0.993Se1,525,0.011982,0.0000075319,0.000084168,1.9699,0.34872,132768.6241187483,0.0009405664,0.0004774691
6006,10.1002/adma.201004200,80,1(a),324,Na0.007Pb0.993Se1,Na0.007Pb0.993Se1,525.5,0.011967,0.0000075459,0.000084328,1.9677,0.34991,132522.2968764495,0.0009423941,0.0004789318
6006,10.1002/adma.201004200,80,1(a),324,Na0.007Pb0.993Se1,Na0.007Pb0.993Se1,526,0.011952,0.0000075599,0.000084487,1.9655,0.35109,132276.8819693382,0.0009441994,0.0004803864
6006,10.1002/adma.201004200,80,1(a),324,Na0.007Pb0.993Se1,Na0.007Pb0.993Se1,526.5,0.011938,0.000007574,0.000084647,1.9633,0.35228,132030.6311064167,0.0009460146,0.0004818492
6006,10.1002/adma.201004200,80,1(a),324,Na0.007Pb0.993Se1,Na0.007Pb0.993Se1,527,0.011923,0.000007588,0.000084807,1.9611,0.35347,131787.0321560359,0.0009478423,0.0004833217
6006,10.1002/adma.201004200,80,1(a),324,Na0.007Pb0.993Se1,Na0.007Pb0.993Se1,527.5,0.011908,0.0000076021,0.000084967,1.9589,0.35466,131542.600071033,0.0009496575,0.0004847912
6006,10.1002/adma.201004200,80,1(a),324,Na0.007Pb0.993Se1,Na0.007Pb0.993Se1,528,0.011893,0.0000076163,0.000085128,1.9567,0.35585,131297.3491065215,0.0009514825,0.000486269
6006,10.1002/adma.201004200,80,1(a),324,Na0.007Pb0.993Se1,Na0.007Pb0.993Se1,528.5,0.011878,0.0000076304,0.000085289,1.9545,0.35704,131054.7284546026,0.0009533201,0.0004877565
6006,10.1002/adma.201004200,80,1(a),324,Na0.007Pb0.993Se1,Na0.007Pb0.993Se1,529,0.011864,0.0000076446,0.00008545,1.9523,0.35822,130811.2916306936,0.0009551451,0.000489241
6006,10.1002/adma.201004200,80,1(a),324,Na0.007Pb0.993Se1,Na0.007Pb0.993Se1,529.5,0.011849,0.0000076588,0.000085611,1.9501,0.35941,130568.7575077036,0.0009569702,0.0004907288
6006,10.1002/adma.201004200,80,1(a),324,Na0.007Pb0.993Se1,Na0.007Pb0.993Se1,530,0.011834,0.0000076731,0.000085772,1.9479,0.3606,130325.4225801827,0.0009587828,0.0004922135
6006,10.1002/adma.201004200,80,1(a),324,Na0.007Pb0.993Se1,Na0.007Pb0.993Se1,530.5,0.011819,0.0000076874,0.000085934,1.9458,0.36179,130082.9929495018,0.0009606177,0.0004936878
6006,10.1002/adma.201004200,80,1(a),324,Na0.007Pb0.993Se1,Na0.007Pb0.993Se1,531,0.011804,0.0000077017,0.000086095,1.9436,0.36298,129841.4635729774,0.0009624302,0.0004951792
6006,10.1002/adma.201004200,80,1(a),324,Na0.007Pb0.993Se1,Na0.007Pb0.993Se1,531.5,0.011789,0.000007716,0.000086258,1.9414,0.36417,129600.8294453084,0.0009642875,0.000496697
6006,10.1002/adma.201004200,80,1(a),324,Na0.007Pb0.993Se1,Na0.007Pb0.993Se1,532,0.011775,0.0000077304,0.00008642,1.9392,0.36535,129359.412190831,0.00096611,0.0004982003
6006,10.1002/adma.201004200,80,1(a),324,Na0.007Pb0.993Se1,Na0.007Pb0.993Se1,532.5,0.01176,0.0000077448,0.000086582,1.9371,0.36654,129118.8926763764,0.0009679324,0.0004996812
6006,10.1002/adma.201004200,80,1(a),324,Na0.007Pb0.993Se1,Na0.007Pb0.993Se1,533,0.011745,0.0000077592,0.000086745,1.9349,0.36773,128879.2659037014,0.0009697772,0.0005012027
6006,10.1002/adma.201004200,80,1(a),324,Na0.007Pb0.993Se1,Na0.007Pb0.993Se1,533.5,0.01173,0.0000077737,0.000086908,1.9327,0.36892,128638.8720943695,0.0009716095,0.0005027213
6006,10.1002/adma.201004200,80,1(a),324,Na0.007Pb0.993Se1,Na0.007Pb0.993Se1,534,0.011715,0.0000077882,0.000087071,1.9306,0.37011,128399.3734110578,0.0009734418,0.0005042172
6006,10.1002/adma.201004200,80,1(a),324,Na0.007Pb0.993Se1,Na0.007Pb0.993Se1,534.5,0.0117,0.0000078027,0.000087234,1.9284,0.3713,128160.7648634447,0.000975274,0.0005057426
6006,10.1002/adma.201004200,80,1(a),324,Na0.007Pb0.993Se1,Na0.007Pb0.993Se1,535,0.011686,0.0000078173,0.000087398,1.9262,0.37248,127921.4050887135,0.0009771162,0.0005072766
6006,10.1002/adma.201004200,80,1(a),324,Na0.007Pb0.993Se1,Na0.007Pb0.993Se1,535.5,0.011671,0.0000078319,0.000087562,1.9241,0.37367,127682.9377290313,0.0009789583,0.0005087877
6006,10.1002/adma.201004200,80,1(a),324,Na0.007Pb0.993Se1,Na0.007Pb0.993Se1,536,0.011656,0.0000078465,0.000087726,1.9219,0.37486,127445.357802842,0.0009808005,0.0005103286
6006,10.1002/adma.201004200,80,1(a),324,Na0.007Pb0.993Se1,Na0.007Pb0.993Se1,536.5,0.011641,0.0000078611,0.00008789,1.9198,0.37605,127208.6603655977,0.0009826426,0.0005118464
6006,10.1002/adma.201004200,80,1(a),324,Na0.007Pb0.993Se1,Na0.007Pb0.993Se1,537,0.011626,0.0000078758,0.000088054,1.9177,0.37724,126971.2283196628,0.0009844723,0.000513361
6006,10.1002/adma.201004200,80,1(a),324,Na0.007Pb0.993Se1,Na0.007Pb0.993Se1,537.5,0.011611,0.0000078906,0.000088219,1.9155,0.37843,126733.0747978607,0.0009863118,0.0005149109
6006,10.1002/adma.201004200,80,1(a),324,Na0.007Pb0.993Se1,Na0.007Pb0.993Se1,538,0.011597,0.0000079053,0.000088384,1.9134,0.37961,126497.4131279015,0.0009881638,0.0005164439
6006,10.1002/adma.201004200,80,1(a),324,Na0.007Pb0.993Se1,Na0.007Pb0.993Se1,538.5,0.011582,0.0000079201,0.000088549,1.9112,0.3808,126261.032057676,0.0009900033,0.0005180009
6006,10.1002/adma.201004200,80,1(a),324,Na0.007Pb0.993Se1,Na0.007Pb0.993Se1,539,0.011567,0.0000079349,0.000088714,1.9091,0.38199,126025.5327729398,0.0009918428,0.0005195343
6006,10.1002/adma.201004200,80,1(a),324,Na0.007Pb0.993Se1,Na0.007Pb0.993Se1,539.5,0.011552,0.0000079498,0.00008888,1.907,0.38318,125789.3280334096,0.0009936922,0.0005210762
6006,10.1002/adma.201004200,80,1(a),324,Na0.007Pb0.993Se1,Na0.007Pb0.993Se1,540,0.011537,0.0000079646,0.000089045,1.9048,0.38437,125555.5834567963,0.0009955317,0.0005226437
6006,10.1002/adma.201004200,80,1(a),324,Na0.007Pb0.993Se1,Na0.007Pb0.993Se1,540.5,0.011522,0.0000079796,0.000089211,1.9027,0.38556,125319.5648904707,0.0009973686,0.0005241859
6006,10.1002/adma.201004200,80,1(a),324,Na0.007Pb0.993Se1,Na0.007Pb0.993Se1,541,0.011508,0.0000079945,0.000089377,1.9006,0.38674,125085.9966226781,0.000999218,0.0005257382
6006,10.1002/adma.201004200,80,1(a),324,Na0.007Pb0.993Se1,Na0.007Pb0.993Se1,541.5,0.011493,0.0000080095,0.000089544,1.8985,0.38793,124851.7385604594,0.0010010772,0.000527299
6006,10.1002/adma.201004200,80,1(a),324,Na0.007Pb0.993Se1,Na0.007Pb0.993Se1,542,0.011478,0.0000080245,0.00008971,1.8964,0.38912,124618.3562838806,0.0010029141,0.0005288516
6006,10.1002/adma.201004200,80,1(a),324,Na0.007Pb0.993Se1,Na0.007Pb0.993Se1,542.5,0.011463,0.0000080396,0.000089877,1.8943,0.39031,124384.297726255,0.0010047608,0.0005304127
6006,10.1002/adma.201004200,80,1(a),324,Na0.007Pb0.993Se1,Na0.007Pb0.993Se1,543,0.011448,0.0000080546,0.000090044,1.8921,0.3915,124152.6581084101,0.0010066201,0.0005320121
6006,10.1002/adma.201004200,80,1(a),324,Na0.007Pb0.993Se1,Na0.007Pb0.993Se1,543.5,0.011434,0.0000080697,0.000090211,1.89,0.39269,123920.3440028749,0.0010084668,0.0005335803
6006,10.1002/adma.201004200,80,1(a),324,Na0.007Pb0.993Se1,Na0.007Pb0.993Se1,544,0.011419,0.0000080849,0.000090379,1.8879,0.39387,123687.3678091257,0.0010103234,0.0005351573
6006,10.1002/adma.201004200,80,1(a),324,Na0.007Pb0.993Se1,Na0.007Pb0.993Se1,544.5,0.011404,0.0000081001,0.000090547,1.8858,0.39506,123455.2659843705,0.00101218,0.0005367377
6006,10.1002/adma.201004200,80,1(a),324,Na0.007Pb0.993Se1,Na0.007Pb0.993Se1,545,0.011389,0.0000081153,0.000090714,1.8837,0.39625,123224.0336155164,0.0010140142,0.0005383098
6006,10.1002/adma.201004200,80,1(a),324,Na0.007Pb0.993Se1,Na0.007Pb0.993Se1,545.5,0.011374,0.0000081305,0.000090882,1.8816,0.39744,122993.66582621,0.0010158708,0.0005398973
6006,10.1002/adma.201004200,80,1(a),324,Na0.007Pb0.993Se1,Na0.007Pb0.993Se1,546,0.011359,0.0000081458,0.000091051,1.8795,0.39863,122762.6506911537,0.0010177373,0.0005414936
6006,10.1002/adma.201004200,80,1(a),324,Na0.007Pb0.993Se1,Na0.007Pb0.993Se1,546.5,0.011345,0.0000081611,0.000091219,1.8774,0.39982,122532.5017460881,0.0010195814,0.0005430816
6006,10.1002/adma.201004200,80,1(a),324,Na0.007Pb0.993Se1,Na0.007Pb0.993Se1,547,0.01133,0.0000081765,0.000091388,1.8753,0.401,122301.7183391427,0.0010214354,0.0005446784
6006,10.1002/adma.201004200,80,1(a),324,Na0.007Pb0.993Se1,Na0.007Pb0.993Se1,547.5,0.011315,0.0000081919,0.000091557,1.8733,0.40219,122071.8026343095,0.0010232894,0.0005462496
6006,10.1002/adma.201004200,80,1(a),324,Na0.007Pb0.993Se1,Na0.007Pb0.993Se1,548,0.0113,0.0000082073,0.000091726,1.8712,0.40338,121842.7497471763,0.0010251434,0.0005478534
6006,10.1002/adma.201004200,80,1(a),324,Na0.007Pb0.993Se1,Na0.007Pb0.993Se1,548.5,0.011285,0.0000082228,0.000091895,1.8691,0.40457,121613.0758379141,0.0010269849,0.0005494542
6006,10.1002/adma.201004200,80,1(a),324,Na0.007Pb0.993Se1,Na0.007Pb0.993Se1,549,0.01127,0.0000082383,0.000092065,1.867,0.40576,121384.2661714189,0.0010288487,0.0005510705
6006,10.1002/adma.201004200,80,1(a),324,Na0.007Pb0.993Se1,Na0.007Pb0.993Se1,549.5,0.011256,0.0000082538,0.000092235,1.8649,0.40695,121156.3158787468,0.0010307125,0.0005526905
6006,10.1002/adma.201004200,80,1(a),324,Na0.007Pb0.993Se1,Na0.007Pb0.993Se1,550,0.011241,0.0000082693,0.000092405,1.8629,0.40813,120929.2201274594,0.0010325764,0.0005542844
6006,10.1002/adma.201004200,80,1(a),324,Na0.007Pb0.993Se1,Na0.007Pb0.993Se1,550.5,0.011226,0.0000082849,0.000092575,1.8608,0.40932,120701.5172180714,0.0010344278,0.0005559049
6006,10.1002/adma.201004200,80,1(a),324,Na0.007Pb0.993Se1,Na0.007Pb0.993Se1,551,0.011211,0.0000083006,0.000092745,1.8587,0.41051,120473.21880346,0.0010362667,0.0005575223
6006,10.1002/adma.201004200,80,1(a),324,Na0.007Pb0.993Se1,Na0.007Pb0.993Se1,551.5,0.011196,0.0000083162,0.000092916,1.8567,0.4117,120247.2283013877,0.0010381404,0.000559132
6006,10.1002/adma.201004200,80,1(a),324,Na0.007Pb0.993Se1,Na0.007Pb0.993Se1,552,0.011181,0.0000083319,0.000093086,1.8546,0.41289,120020.6435506907,0.0010399793,0.0005607567
6006,10.1002/adma.201004200,80,1(a),324,Na0.007Pb0.993Se1,Na0.007Pb0.993Se1,552.5,0.011167,0.0000083477,0.000093257,1.8525,0.41408,119793.4760472945,0.0010418281,0.0005623903
6006,10.1002/adma.201004200,80,1(a),324,Na0.007Pb0.993Se1,Na0.007Pb0.993Se1,553,0.011152,0.0000083634,0.000093429,1.8505,0.41526,119568.5965038142,0.0010437117,0.000564016
6006,10.1002/adma.201004200,80,1(a),324,Na0.007Pb0.993Se1,Na0.007Pb0.993Se1,553.5,0.011137,0.0000083792,0.0000936,1.8484,0.41645,119343.1353828528,0.0010455604,0.000565657
6006,10.1002/adma.201004200,80,1(a),324,Na0.007Pb0.993Se1,Na0.007Pb0.993Se1,554,0.011122,0.0000083951,0.000093772,1.8464,0.41764,119117.1040249669,0.0010474191,0.0005672764
6006,10.1002/adma.201004200,80,1(a),324,Na0.007Pb0.993Se1,Na0.007Pb0.993Se1,554.5,0.011107,0.000008411,0.000093944,1.8443,0.41883,118891.9272381405,0.0010492777,0.0005689301
6006,10.1002/adma.201004200,80,1(a),324,Na0.007Pb0.993Se1,Na0.007Pb0.993Se1,555,0.011092,0.0000084269,0.000094116,1.8423,0.42002,118667.6001851215,0.0010511364,0.0005705566
6006,10.1002/adma.201004200,80,1(a),324,Na0.007Pb0.993Se1,Na0.007Pb0.993Se1,555.5,0.011078,0.0000084428,0.000094288,1.8402,0.42121,118444.1180650969,0.0010529951,0.0005722177
6006,10.1002/adma.201004200,80,1(a),324,Na0.007Pb0.993Se1,Na0.007Pb0.993Se1,556,0.011063,0.0000084588,0.00009446,1.8382,0.42239,118220.0784981321,0.0010548413,0.0005738447
6006,10.1002/adma.201004200,80,1(a),324,Na0.007Pb0.993Se1,Na0.007Pb0.993Se1,556.5,0.011048,0.0000084748,0.000094633,1.8361,0.42358,117996.8848822391,0.0010567099,0.0005755187
6006,10.1002/adma.201004200,80,1(a),324,Na0.007Pb0.993Se1,Na0.007Pb0.993Se1,557,0.011033,0.0000084909,0.000094806,1.8341,0.42477,117773.1453673933,0.001058566,0.0005771583
6006,10.1002/adma.201004200,80,1(a),324,Na0.007Pb0.993Se1,Na0.007Pb0.993Se1,557.5,0.011018,0.000008507,0.000094979,1.8321,0.42596,117550.2527330434,0.0010604221,0.0005788014
6006,10.1002/adma.201004200,80,1(a),324,Na0.007Pb0.993Se1,Na0.007Pb0.993Se1,558,0.011003,0.0000085231,0.000095152,1.83,0.42715,117328.202179958,0.0010622782,0.0005804799
6006,10.1002/adma.201004200,80,1(a),324,Na0.007Pb0.993Se1,Na0.007Pb0.993Se1,558.5,0.010989,0.0000085393,0.000095326,1.828,0.42834,117105.6175564742,0.0010641442,0.0005821358
6006,10.1002/adma.201004200,80,1(a),324,Na0.007Pb0.993Se1,Na0.007Pb0.993Se1,559,0.010974,0.0000085555,0.000095499,1.826,0.42952,116883.8758693238,0.0010659878,0.000583783
6006,10.1002/adma.201004200,80,1(a),324,Na0.007Pb0.993Se1,Na0.007Pb0.993Se1,559.5,0.010959,0.0000085718,0.000095673,1.8239,0.43071,116661.6113301757,0.0010678414,0.0005854715
6006,10.1002/adma.201004200,80,1(a),324,Na0.007Pb0.993Se1,Na0.007Pb0.993Se1,560,0.010944,0.0000085881,0.000095847,1.8219,0.4319,116440.1904961517,0.001069695,0.0005871316
6006,10.1002/adma.201004200,80,1(a),324,Na0.007Pb0.993Se1,Na0.007Pb0.993Se1,560.5,0.010929,0.0000086044,0.000096022,1.8199,0.43309,116219.6085723583,0.0010715709,0.0005888076
6006,10.1002/adma.201004200,80,1(a),324,Na0.007Pb0.993Se1,Na0.007Pb0.993Se1,561,0.010915,0.0000086207,0.000096196,1.8179,0.43428,115999.860800167,0.0010734245,0.000590475
6006,10.1002/adma.201004200,80,1(a),324,Na0.007Pb0.993Se1,Na0.007Pb0.993Se1,561.5,0.0109,0.0000086371,0.000096371,1.8158,0.43547,115779.6019497285,0.001075288,0.0005921841
6006,10.1002/adma.201004200,80,1(a),324,Na0.007Pb0.993Se1,Na0.007Pb0.993Se1,562,0.010885,0.0000086536,0.000096546,1.8138,0.43665,115558.8425626329,0.001077139,0.0005938577
6006,10.1002/adma.201004200,80,1(a),324,Na0.007Pb0.993Se1,Na0.007Pb0.993Se1,562.5,0.01087,0.00000867,0.000096721,1.8118,0.43784,115340.2537485582,0.0010790025,0.0005955417
6006,10.1002/adma.201004200,80,1(a),324,Na0.007Pb0.993Se1,Na0.007Pb0.993Se1,563,0.010855,0.0000086866,0.000096896,1.8098,0.43903,115119.8397531831,0.0010808412,0.0005972158
6006,10.1002/adma.201004200,80,1(a),324,Na0.007Pb0.993Se1,Na0.007Pb0.993Se1,563.5,0.01084,0.0000087031,0.000097072,1.8078,0.44022,114901.5867909136,0.0010827146,0.0005989128
6006,10.1002/adma.201004200,80,1(a),324,Na0.007Pb0.993Se1,Na0.007Pb0.993Se1,564,0.010826,0.0000087197,0.000097247,1.8058,0.44141,114682.8445932773,0.0010845533,0.0006005943
6006,10.1002/adma.201004200,80,1(a),324,Na0.007Pb0.993Se1,Na0.007Pb0.993Se1,564.5,0.010811,0.0000087363,0.000097423,1.8038,0.4426,114464.9336675709,0.0010864143,0.000602292
6006,10.1002/adma.201004200,80,1(a),324,Na0.007Pb0.993Se1,Na0.007Pb0.993Se1,565,0.010796,0.000008753,0.000097599,1.8018,0.44378,114246.5440420427,0.0010882629,0.0006039865
6006,10.1002/adma.201004200,80,1(a),324,Na0.007Pb0.993Se1,Na0.007Pb0.993Se1,565.5,0.010781,0.0000087697,0.000097775,1.7998,0.44497,114028.986168284,0.0010901115,0.0006056848
6006,10.1002/adma.201004200,80,1(a),324,Na0.007Pb0.993Se1,Na0.007Pb0.993Se1,566,0.010766,0.0000087864,0.000097952,1.7978,0.44616,113812.2553036511,0.0010919824,0.0006073993
6006,10.1002/adma.201004200,80,1(a),324,Na0.007Pb0.993Se1,Na0.007Pb0.993Se1,566.5,0.010751,0.0000088032,0.000098129,1.7958,0.44735,113595.0563431479,0.0010938409,0.0006091107
6006,10.1002/adma.201004200,80,1(a),324,Na0.007Pb0.993Se1,Na0.007Pb0.993Se1,567,0.010737,0.00000882,0.000098306,1.7938,0.44854,113378.6848072562,0.0010956995,0.0006108259
6006,10.1002/adma.201004200,80,1(a),324,Na0.007Pb0.993Se1,Na0.007Pb0.993Se1,567.5,0.010722,0.0000088369,0.000098483,1.7918,0.44973,113161.8554017812,0.0010975457,0.000612538
6006,10.1002/adma.201004200,80,1(a),324,Na0.007Pb0.993Se1,Na0.007Pb0.993Se1,568,0.010707,0.0000088538,0.00009866,1.7898,0.45091,112945.8537577086,0.0010993919,0.000614254
6006,10.1002/adma.201004200,80,1(a),324,Na0.007Pb0.993Se1,Na0.007Pb0.993Se1,568.5,0.010692,0.0000088707,0.000098837,1.7879,0.4521,112730.6751440134,0.0011012381,0.0006159394
6006,10.1002/adma.201004200,80,1(a),324,Na0.007Pb0.993Se1,Na0.007Pb0.993Se1,569,0.010677,0.0000088877,0.000099015,1.7859,0.45329,112515.0488877887,0.0011030942,0.0006176685
6006,10.1002/adma.201004200,80,1(a),324,Na0.007Pb0.993Se1,Na0.007Pb0.993Se1,569.5,0.010662,0.0000089047,0.000099193,1.7839,0.45448,112300.2459375386,0.0011049503,0.0006194015
6006,10.1002/adma.201004200,80,1(a),324,Na0.007Pb0.993Se1,Na0.007Pb0.993Se1,570,0.010648,0.0000089218,0.000099371,1.7819,0.45567,112085.0052679952,0.0011067941,0.0006211314
6006,10.1002/adma.201004200,80,1(a),324,Na0.007Pb0.993Se1,Na0.007Pb0.993Se1,570.5,0.010633,0.0000089389,0.000099549,1.7799,0.45686,111870.5881036817,0.0011086379,0.0006228653
6006,10.1002/adma.201004200,80,1(a),324,Na0.007Pb0.993Se1,Na0.007Pb0.993Se1,571,0.010618,0.000008956,0.000099728,1.778,0.45804,111656.9897275569,0.001110504,0.0006245804
6006,10.1002/adma.201004200,80,1(a),324,Na0.007Pb0.993Se1,Na0.007Pb0.993Se1,571.5,0.010603,0.0000089732,0.000099906,1.776,0.45923,111442.9634912851,0.0011123355,0.000626315
6006,10.1002/adma.201004200,80,1(a),324,Na0.007Pb0.993Se1,Na0.007Pb0.993Se1,572,0.010588,0.0000089904,0.00010009,1.774,0.46042,111229.7561843744,0.0011143006,0.0006281289
6006,10.1002/adma.201004200,80,1(a),324,Na0.007Pb0.993Se1,Na0.007Pb0.993Se1,572.5,0.010573,0.0000090077,0.00010026,1.7721,0.46161,111016.1306437825,0.0011159416,0.0006297284
6006,10.1002/adma.201004200,80,1(a),324,Na0.007Pb0.993Se1,Na0.007Pb0.993Se1,573,0.010559,0.000009025,0.00010044,1.7701,0.4628,110803.324099723,0.0011178054,0.0006314928
6006,10.1002/adma.201004200,80,1(a),324,Na0.007Pb0.993Se1,Na0.007Pb0.993Se1,573.5,0.010544,0.0000090423,0.00010062,1.7681,0.46399,110591.3318514095,0.0011196692,0.0006332612
6006,10.1002/adma.201004200,80,1(a),324,Na0.007Pb0.993Se1,Na0.007Pb0.993Se1,574,0.010529,0.0000090597,0.0001008,1.7662,0.46517,110378.9308696756,0.0011215206,0.0006349907
6006,10.1002/adma.201004200,80,1(a),324,Na0.007Pb0.993Se1,Na0.007Pb0.993Se1,574.5,0.010514,0.0000090771,0.00010098,1.7642,0.46636,110167.3441958335,0.001123372,0.00063676
6006,10.1002/adma.201004200,80,1(a),324,Na0.007Pb0.993Se1,Na0.007Pb0.993Se1,575,0.010499,0.0000090946,0.00010116,1.7623,0.46755,109955.3581246014,0.0011252112,0.0006384901
6006,10.1002/adma.201004200,80,1(a),324,Na0.007Pb0.993Se1,Na0.007Pb0.993Se1,575.5,0.010485,0.0000091121,0.00010134,1.7603,0.46874,109744.1863017307,0.0011270504,0.0006402604
6006,10.1002/adma.201004200,80,1(a),324,Na0.007Pb0.993Se1,Na0.007Pb0.993Se1,576,0.01047,0.0000091296,0.00010152,1.7584,0.46993,109533.8240448651,0.0011288896,0.0006419982
6006,10.1002/adma.201004200,80,1(a),324,Na0.007Pb0.993Se1,Na0.007Pb0.993Se1,576.5,0.010455,0.0000091472,0.0001017,1.7564,0.47112,109323.071541018,0.0011307165,0.0006437694
6006,10.1002/adma.201004200,80,1(a),324,Na0.007Pb0.993Se1,Na0.007Pb0.993Se1,577,0.01044,0.0000091648,0.00010188,1.7545,0.4723,109113.1284916201,0.0011325435,0.0006455078
6006,10.1002/adma.201004200,80,1(a),324,Na0.007Pb0.993Se1,Na0.007Pb0.993Se1,577.5,0.010425,0.0000091825,0.00010207,1.7525,0.47349,108902.8042472094,0.0011345804,0.0006474068
6006,10.1002/adma.201004200,80,1(a),324,Na0.007Pb0.993Se1,Na0.007Pb0.993Se1,578,0.01041,0.0000092002,0.00010225,1.7506,0.47468,108693.2892763201,0.0011363951,0.0006491461
6006,10.1002/adma.201004200,80,1(a),324,Na0.007Pb0.993Se1,Na0.007Pb0.993Se1,578.5,0.010396,0.000009218,0.00010243,1.7486,0.47587,108483.4020394879,0.0011381975,0.0006509193
6006,10.1002/adma.201004200,80,1(a),324,Na0.007Pb0.993Se1,Na0.007Pb0.993Se1,579,0.010381,0.0000092358,0.00010261,1.7467,0.47706,108274.3238268477,0.00114,0.0006526593