sid,DOI,figureid,fignum,sampleid,samplename,composition,Temperature,Carrier mobility,Electrical resistivity,Seebeck coefficient,Thermal conductivity,ZT,Electrical conductivity,Power factor,Figure of merit Z
6006,10.1002/adma.201004200,80,1(a),367,Pb1Se1,Pb1Se1,345.5,,,0.00026336,1.4299,,,,
6006,10.1002/adma.201004200,80,1(a),367,Pb1Se1,Pb1Se1,346,,,0.00026317,1.4277,,,,
6006,10.1002/adma.201004200,80,1(a),367,Pb1Se1,Pb1Se1,346.5,,,0.00026298,1.4255,,,,
6006,10.1002/adma.201004200,80,1(a),367,Pb1Se1,Pb1Se1,347,,,0.0002628,1.4234,,,,
6006,10.1002/adma.201004200,80,1(a),367,Pb1Se1,Pb1Se1,347.5,,,0.00026263,1.4213,,,,
6006,10.1002/adma.201004200,80,1(a),367,Pb1Se1,Pb1Se1,348,,,0.00026245,1.4191,,,,
6006,10.1002/adma.201004200,80,1(a),367,Pb1Se1,Pb1Se1,348.5,,,0.00026228,1.417,,,,
6006,10.1002/adma.201004200,80,1(a),367,Pb1Se1,Pb1Se1,349,,,0.00026211,1.4149,,,,
6006,10.1002/adma.201004200,80,1(a),367,Pb1Se1,Pb1Se1,349.5,,,0.00026195,1.4129,,,,
6006,10.1002/adma.201004200,80,1(a),367,Pb1Se1,Pb1Se1,350,,,0.00026178,1.4108,,,,
6006,10.1002/adma.201004200,80,1(a),367,Pb1Se1,Pb1Se1,350.5,,,0.00026162,1.4087,,,,
6006,10.1002/adma.201004200,80,1(a),367,Pb1Se1,Pb1Se1,351,,,0.00026147,1.4067,,,,
6006,10.1002/adma.201004200,80,1(a),367,Pb1Se1,Pb1Se1,351.5,,,0.00026131,1.4047,,,,
6006,10.1002/adma.201004200,80,1(a),367,Pb1Se1,Pb1Se1,352,,,0.00026116,1.4026,,,,
6006,10.1002/adma.201004200,80,1(a),367,Pb1Se1,Pb1Se1,352.5,,,0.00026101,1.4006,,,,
6006,10.1002/adma.201004200,80,1(a),367,Pb1Se1,Pb1Se1,353,,,0.00026087,1.3987,,,,
6006,10.1002/adma.201004200,80,1(a),367,Pb1Se1,Pb1Se1,353.5,,,0.00026073,1.3967,,,,
6006,10.1002/adma.201004200,80,1(a),367,Pb1Se1,Pb1Se1,354,,,0.00026059,1.3947,,,,
6006,10.1002/adma.201004200,80,1(a),367,Pb1Se1,Pb1Se1,354.5,,,0.00026045,1.3928,,,,
6006,10.1002/adma.201004200,80,1(a),367,Pb1Se1,Pb1Se1,355,,,0.00026031,1.3908,,,,
6006,10.1002/adma.201004200,80,1(a),367,Pb1Se1,Pb1Se1,355.5,,,0.00026018,1.3889,,,,
6006,10.1002/adma.201004200,80,1(a),367,Pb1Se1,Pb1Se1,356,,,0.00026005,1.387,,,,
6006,10.1002/adma.201004200,80,1(a),367,Pb1Se1,Pb1Se1,356.5,,,0.00025992,1.3851,,,,
6006,10.1002/adma.201004200,80,1(a),367,Pb1Se1,Pb1Se1,357,,,0.00025979,1.3832,,,,
6006,10.1002/adma.201004200,80,1(a),367,Pb1Se1,Pb1Se1,357.5,,,0.00025967,1.3813,,,,
6006,10.1002/adma.201004200,80,1(a),367,Pb1Se1,Pb1Se1,358,,,0.00025955,1.3795,,,,
6006,10.1002/adma.201004200,80,1(a),367,Pb1Se1,Pb1Se1,358.5,,,0.00025943,1.3776,,,,
6006,10.1002/adma.201004200,80,1(a),367,Pb1Se1,Pb1Se1,359,,,0.00025931,1.3758,,,,
6006,10.1002/adma.201004200,80,1(a),367,Pb1Se1,Pb1Se1,359.5,,,0.00025919,1.3739,,,,
6006,10.1002/adma.201004200,80,1(a),367,Pb1Se1,Pb1Se1,360,,,0.00025908,1.3721,,,,
6006,10.1002/adma.201004200,80,1(a),367,Pb1Se1,Pb1Se1,360.5,,,0.00025897,1.3703,,,,
6006,10.1002/adma.201004200,80,1(a),367,Pb1Se1,Pb1Se1,361,,,0.00025886,1.3685,,,,
6006,10.1002/adma.201004200,80,1(a),367,Pb1Se1,Pb1Se1,361.5,,,0.00025875,1.3667,,,,
6006,10.1002/adma.201004200,80,1(a),367,Pb1Se1,Pb1Se1,362,,,0.00025864,1.365,,,,
6006,10.1002/adma.201004200,80,1(a),367,Pb1Se1,Pb1Se1,362.5,,,0.00025853,1.3632,,,,
6006,10.1002/adma.201004200,80,1(a),367,Pb1Se1,Pb1Se1,363,,,0.00025843,1.3615,,,,
6006,10.1002/adma.201004200,80,1(a),367,Pb1Se1,Pb1Se1,363.5,,,0.00025833,1.3598,,,,
6006,10.1002/adma.201004200,80,1(a),367,Pb1Se1,Pb1Se1,364,,,0.00025823,1.358,,,,
6006,10.1002/adma.201004200,80,1(a),367,Pb1Se1,Pb1Se1,364.5,,,0.00025813,1.3563,,,,
6006,10.1002/adma.201004200,80,1(a),367,Pb1Se1,Pb1Se1,365,,,0.00025803,1.3546,,,,
6006,10.1002/adma.201004200,80,1(a),367,Pb1Se1,Pb1Se1,365.5,,,0.00025793,1.3529,,,,
6006,10.1002/adma.201004200,80,1(a),367,Pb1Se1,Pb1Se1,366,,,0.00025784,1.3513,,,,
6006,10.1002/adma.201004200,80,1(a),367,Pb1Se1,Pb1Se1,366.5,,,0.00025774,1.3496,,,,
6006,10.1002/adma.201004200,80,1(a),367,Pb1Se1,Pb1Se1,367,,,0.00025765,1.3479,,,,
6006,10.1002/adma.201004200,80,1(a),367,Pb1Se1,Pb1Se1,367.5,,,0.00025756,1.3463,,,,
6006,10.1002/adma.201004200,80,1(a),367,Pb1Se1,Pb1Se1,368,,,0.00025747,1.3447,,,,
6006,10.1002/adma.201004200,80,1(a),367,Pb1Se1,Pb1Se1,368.5,,,0.00025738,1.3431,,,,
6006,10.1002/adma.201004200,80,1(a),367,Pb1Se1,Pb1Se1,369,,,0.00025729,1.3415,,,,
6006,10.1002/adma.201004200,80,1(a),367,Pb1Se1,Pb1Se1,369.5,,,0.00025721,1.3399,,,,
6006,10.1002/adma.201004200,80,1(a),367,Pb1Se1,Pb1Se1,370,,,0.00025712,1.3383,,,,
6006,10.1002/adma.201004200,80,1(a),367,Pb1Se1,Pb1Se1,370.5,,,0.00025703,1.3367,,,,
6006,10.1002/adma.201004200,80,1(a),367,Pb1Se1,Pb1Se1,371,,,0.00025695,1.3351,,,,
6006,10.1002/adma.201004200,80,1(a),367,Pb1Se1,Pb1Se1,371.5,,,0.00025687,1.3336,,,,
6006,10.1002/adma.201004200,80,1(a),367,Pb1Se1,Pb1Se1,372,,,0.00025678,1.332,,,,
6006,10.1002/adma.201004200,80,1(a),367,Pb1Se1,Pb1Se1,372.5,,,0.0002567,1.3305,,,,
6006,10.1002/adma.201004200,80,1(a),367,Pb1Se1,Pb1Se1,373,,,0.00025662,1.329,,,,
6006,10.1002/adma.201004200,80,1(a),367,Pb1Se1,Pb1Se1,373.5,,,0.00025654,1.3275,,,,
6006,10.1002/adma.201004200,80,1(a),367,Pb1Se1,Pb1Se1,374,,,0.00025646,1.326,,,,
6006,10.1002/adma.201004200,80,1(a),367,Pb1Se1,Pb1Se1,374.5,,,0.00025638,1.3245,,,,
6006,10.1002/adma.201004200,80,1(a),367,Pb1Se1,Pb1Se1,375,,,0.0002563,1.323,,,,
6006,10.1002/adma.201004200,80,1(a),367,Pb1Se1,Pb1Se1,375.5,,,0.00025622,1.3215,,,,
6006,10.1002/adma.201004200,80,1(a),367,Pb1Se1,Pb1Se1,376,,,0.00025615,1.3201,,,,
6006,10.1002/adma.201004200,80,1(a),367,Pb1Se1,Pb1Se1,376.5,,,0.00025607,1.3186,,,,
6006,10.1002/adma.201004200,80,1(a),367,Pb1Se1,Pb1Se1,377,,,0.00025599,1.3172,,,,
6006,10.1002/adma.201004200,80,1(a),367,Pb1Se1,Pb1Se1,377.5,,,0.00025591,1.3158,,,,
6006,10.1002/adma.201004200,80,1(a),367,Pb1Se1,Pb1Se1,378,,,0.00025584,1.3144,,,,
6006,10.1002/adma.201004200,80,1(a),367,Pb1Se1,Pb1Se1,378.5,,,0.00025576,1.3129,,,,
6006,10.1002/adma.201004200,80,1(a),367,Pb1Se1,Pb1Se1,379,,,0.00025569,1.3116,,,,
6006,10.1002/adma.201004200,80,1(a),367,Pb1Se1,Pb1Se1,379.5,,,0.00025561,1.3102,,,,
6006,10.1002/adma.201004200,80,1(a),367,Pb1Se1,Pb1Se1,380,,,0.00025554,1.3088,,,,
6006,10.1002/adma.201004200,80,1(a),367,Pb1Se1,Pb1Se1,380.5,,,0.00025546,1.3074,,,,
6006,10.1002/adma.201004200,80,1(a),367,Pb1Se1,Pb1Se1,381,,,0.00025538,1.3061,,,,
6006,10.1002/adma.201004200,80,1(a),367,Pb1Se1,Pb1Se1,381.5,,,0.00025531,1.3047,,,,
6006,10.1002/adma.201004200,80,1(a),367,Pb1Se1,Pb1Se1,382,,,0.00025523,1.3034,,,,
6006,10.1002/adma.201004200,80,1(a),367,Pb1Se1,Pb1Se1,382.5,,,0.00025516,1.302,,,,
6006,10.1002/adma.201004200,80,1(a),367,Pb1Se1,Pb1Se1,383,,,0.00025508,1.3007,,,,
6006,10.1002/adma.201004200,80,1(a),367,Pb1Se1,Pb1Se1,383.5,,,0.00025501,1.2994,,,,
6006,10.1002/adma.201004200,80,1(a),367,Pb1Se1,Pb1Se1,384,,,0.00025493,1.2981,,,,
6006,10.1002/adma.201004200,80,1(a),367,Pb1Se1,Pb1Se1,384.5,,,0.00025486,1.2968,,,,
6006,10.1002/adma.201004200,80,1(a),367,Pb1Se1,Pb1Se1,385,,,0.00025478,1.2955,,,,
6006,10.1002/adma.201004200,80,1(a),367,Pb1Se1,Pb1Se1,385.5,,,0.00025471,1.2943,,,,
6006,10.1002/adma.201004200,80,1(a),367,Pb1Se1,Pb1Se1,386,,,0.00025463,1.293,,,,
6006,10.1002/adma.201004200,80,1(a),367,Pb1Se1,Pb1Se1,386.5,,,0.00025455,1.2918,,,,
6006,10.1002/adma.201004200,80,1(a),367,Pb1Se1,Pb1Se1,387,,,0.00025448,1.2905,,,,
6006,10.1002/adma.201004200,80,1(a),367,Pb1Se1,Pb1Se1,387.5,,,0.0002544,1.2893,,,,
6006,10.1002/adma.201004200,80,1(a),367,Pb1Se1,Pb1Se1,388,,,0.00025432,1.2881,,,,
6006,10.1002/adma.201004200,80,1(a),367,Pb1Se1,Pb1Se1,388.5,,,0.00025424,1.2868,,,,
6006,10.1002/adma.201004200,80,1(a),367,Pb1Se1,Pb1Se1,389,,,0.00025416,1.2856,,,,
6006,10.1002/adma.201004200,80,1(a),367,Pb1Se1,Pb1Se1,389.5,,,0.00025408,1.2844,,,,
6006,10.1002/adma.201004200,80,1(a),367,Pb1Se1,Pb1Se1,390,,,0.000254,1.2832,,,,
6006,10.1002/adma.201004200,80,1(a),367,Pb1Se1,Pb1Se1,390.5,,,0.00025392,1.2821,,,,
6006,10.1002/adma.201004200,80,1(a),367,Pb1Se1,Pb1Se1,391,,,0.00025384,1.2809,,,,
6006,10.1002/adma.201004200,80,1(a),367,Pb1Se1,Pb1Se1,391.5,,,0.00025376,1.2797,,,,
6006,10.1002/adma.201004200,80,1(a),367,Pb1Se1,Pb1Se1,392,,,0.00025368,1.2786,,,,
6006,10.1002/adma.201004200,80,1(a),367,Pb1Se1,Pb1Se1,392.5,,,0.0002536,1.2774,,,,
6006,10.1002/adma.201004200,80,1(a),367,Pb1Se1,Pb1Se1,393,,,0.00025351,1.2763,,,,
6006,10.1002/adma.201004200,80,1(a),367,Pb1Se1,Pb1Se1,393.5,,,0.00025343,1.2752,,,,
6006,10.1002/adma.201004200,80,1(a),367,Pb1Se1,Pb1Se1,394,,,0.00025335,1.274,,,,
6006,10.1002/adma.201004200,80,1(a),367,Pb1Se1,Pb1Se1,394.5,,,0.00025326,1.2729,,,,
6006,10.1002/adma.201004200,80,1(a),367,Pb1Se1,Pb1Se1,395,,,0.00025317,1.2718,,,,
6006,10.1002/adma.201004200,80,1(a),367,Pb1Se1,Pb1Se1,395.5,,,0.00025309,1.2707,,,,
6006,10.1002/adma.201004200,80,1(a),367,Pb1Se1,Pb1Se1,396,,,0.000253,1.2697,,,,
6006,10.1002/adma.201004200,80,1(a),367,Pb1Se1,Pb1Se1,396.5,,,0.00025291,1.2686,,,,
6006,10.1002/adma.201004200,80,1(a),367,Pb1Se1,Pb1Se1,397,,,0.00025282,1.2675,,,,
6006,10.1002/adma.201004200,80,1(a),367,Pb1Se1,Pb1Se1,397.5,,,0.00025273,1.2664,,,,
6006,10.1002/adma.201004200,80,1(a),367,Pb1Se1,Pb1Se1,398,,,0.00025264,1.2654,,,,
6006,10.1002/adma.201004200,80,1(a),367,Pb1Se1,Pb1Se1,398.5,,,0.00025254,1.2643,,,,
6006,10.1002/adma.201004200,80,1(a),367,Pb1Se1,Pb1Se1,399,,,0.00025245,1.2633,,,,
6006,10.1002/adma.201004200,80,1(a),367,Pb1Se1,Pb1Se1,399.5,,,0.00025235,1.2623,,,,
6006,10.1002/adma.201004200,80,1(a),367,Pb1Se1,Pb1Se1,400,,,0.00025226,1.2613,,,,
6006,10.1002/adma.201004200,80,1(a),367,Pb1Se1,Pb1Se1,400.5,,,0.00025216,1.2602,,,,
6006,10.1002/adma.201004200,80,1(a),367,Pb1Se1,Pb1Se1,401,,,0.00025206,1.2592,,,,
6006,10.1002/adma.201004200,80,1(a),367,Pb1Se1,Pb1Se1,401.5,,,0.00025196,1.2582,,,,
6006,10.1002/adma.201004200,80,1(a),367,Pb1Se1,Pb1Se1,402,,,0.00025186,1.2573,,,,
6006,10.1002/adma.201004200,80,1(a),367,Pb1Se1,Pb1Se1,402.5,,,0.00025176,1.2563,,,,
6006,10.1002/adma.201004200,80,1(a),367,Pb1Se1,Pb1Se1,403,,,0.00025166,1.2553,,,,
6006,10.1002/adma.201004200,80,1(a),367,Pb1Se1,Pb1Se1,403.5,,,0.00025155,1.2543,,,,
6006,10.1002/adma.201004200,80,1(a),367,Pb1Se1,Pb1Se1,404,,,0.00025145,1.2534,,,,
6006,10.1002/adma.201004200,80,1(a),367,Pb1Se1,Pb1Se1,404.5,,,0.00025134,1.2524,,,,
6006,10.1002/adma.201004200,80,1(a),367,Pb1Se1,Pb1Se1,405,,,0.00025123,1.2515,,,,
6006,10.1002/adma.201004200,80,1(a),367,Pb1Se1,Pb1Se1,405.5,,,0.00025112,1.2505,,,,
6006,10.1002/adma.201004200,80,1(a),367,Pb1Se1,Pb1Se1,406,,,0.00025101,1.2496,,,,
6006,10.1002/adma.201004200,80,1(a),367,Pb1Se1,Pb1Se1,406.5,,,0.0002509,1.2487,,,,
6006,10.1002/adma.201004200,80,1(a),367,Pb1Se1,Pb1Se1,407,,,0.00025078,1.2478,,,,
6006,10.1002/adma.201004200,80,1(a),367,Pb1Se1,Pb1Se1,407.5,,,0.00025067,1.2469,,,,
6006,10.1002/adma.201004200,80,1(a),367,Pb1Se1,Pb1Se1,408,,,0.00025055,1.246,,,,
6006,10.1002/adma.201004200,80,1(a),367,Pb1Se1,Pb1Se1,408.5,,,0.00025043,1.2451,,,,
6006,10.1002/adma.201004200,80,1(a),367,Pb1Se1,Pb1Se1,409,,,0.00025031,1.2442,,,,
6006,10.1002/adma.201004200,80,1(a),367,Pb1Se1,Pb1Se1,409.5,,,0.00025019,1.2433,,,,
6006,10.1002/adma.201004200,80,1(a),367,Pb1Se1,Pb1Se1,410,,,0.00025007,1.2425,,,,
6006,10.1002/adma.201004200,80,1(a),367,Pb1Se1,Pb1Se1,410.5,,,0.00024994,1.2416,,,,
6006,10.1002/adma.201004200,80,1(a),367,Pb1Se1,Pb1Se1,411,,,0.00024982,1.2407,,,,
6006,10.1002/adma.201004200,80,1(a),367,Pb1Se1,Pb1Se1,411.5,,,0.00024969,1.2399,,,,
6006,10.1002/adma.201004200,80,1(a),367,Pb1Se1,Pb1Se1,412,,,0.00024956,1.2391,,,,
6006,10.1002/adma.201004200,80,1(a),367,Pb1Se1,Pb1Se1,412.5,,,0.00024943,1.2382,,,,
6006,10.1002/adma.201004200,80,1(a),367,Pb1Se1,Pb1Se1,413,,,0.0002493,1.2374,,,,
6006,10.1002/adma.201004200,80,1(a),367,Pb1Se1,Pb1Se1,413.5,,,0.00024916,1.2366,,,,
6006,10.1002/adma.201004200,80,1(a),367,Pb1Se1,Pb1Se1,414,,,0.00024903,1.2358,,,,
6006,10.1002/adma.201004200,80,1(a),367,Pb1Se1,Pb1Se1,414.5,,,0.00024889,1.2349,,,,
6006,10.1002/adma.201004200,80,1(a),367,Pb1Se1,Pb1Se1,415,,,0.00024875,1.2341,,,,
6006,10.1002/adma.201004200,80,1(a),367,Pb1Se1,Pb1Se1,415.5,,,0.00024861,1.2334,,,,
6006,10.1002/adma.201004200,80,1(a),367,Pb1Se1,Pb1Se1,416,,,0.00024847,1.2326,,,,
6006,10.1002/adma.201004200,80,1(a),367,Pb1Se1,Pb1Se1,416.5,,,0.00024832,1.2318,,,,
6006,10.1002/adma.201004200,80,1(a),367,Pb1Se1,Pb1Se1,417,,,0.00024818,1.231,,,,
6006,10.1002/adma.201004200,80,1(a),367,Pb1Se1,Pb1Se1,417.5,,,0.00024803,1.2303,,,,
6006,10.1002/adma.201004200,80,1(a),367,Pb1Se1,Pb1Se1,418,,,0.00024788,1.2295,,,,
6006,10.1002/adma.201004200,80,1(a),367,Pb1Se1,Pb1Se1,418.5,,,0.00024773,1.2287,,,,
6006,10.1002/adma.201004200,80,1(a),367,Pb1Se1,Pb1Se1,419,,,0.00024757,1.228,,,,
6006,10.1002/adma.201004200,80,1(a),367,Pb1Se1,Pb1Se1,419.5,,,0.00024742,1.2272,,,,
6006,10.1002/adma.201004200,80,1(a),367,Pb1Se1,Pb1Se1,420,,,0.00024726,1.2265,,,,
6006,10.1002/adma.201004200,80,1(a),367,Pb1Se1,Pb1Se1,420.5,,,0.0002471,1.2258,,,,
6006,10.1002/adma.201004200,80,1(a),367,Pb1Se1,Pb1Se1,421,,,0.00024694,1.2251,,,,
6006,10.1002/adma.201004200,80,1(a),367,Pb1Se1,Pb1Se1,421.5,,,0.00024677,1.2244,,,,
6006,10.1002/adma.201004200,80,1(a),367,Pb1Se1,Pb1Se1,422,,,0.00024661,1.2236,,,,
6006,10.1002/adma.201004200,80,1(a),367,Pb1Se1,Pb1Se1,422.5,,,0.00024644,1.2229,,,,
6006,10.1002/adma.201004200,80,1(a),367,Pb1Se1,Pb1Se1,423,,,0.00024627,1.2222,,,,
6006,10.1002/adma.201004200,80,1(a),367,Pb1Se1,Pb1Se1,423.5,,,0.0002461,1.2216,,,,
6006,10.1002/adma.201004200,80,1(a),367,Pb1Se1,Pb1Se1,424,,,0.00024593,1.2209,,,,
6006,10.1002/adma.201004200,80,1(a),367,Pb1Se1,Pb1Se1,424.5,,,0.00024575,1.2202,,,,
6006,10.1002/adma.201004200,80,1(a),367,Pb1Se1,Pb1Se1,425,,,0.00024558,1.2195,,,,
6006,10.1002/adma.201004200,80,1(a),367,Pb1Se1,Pb1Se1,425.5,,,0.0002454,1.2189,,,,
6006,10.1002/adma.201004200,80,1(a),367,Pb1Se1,Pb1Se1,426,,,0.00024521,1.2182,,,,
6006,10.1002/adma.201004200,80,1(a),367,Pb1Se1,Pb1Se1,426.5,,,0.00024503,1.2175,,,,
6006,10.1002/adma.201004200,80,1(a),367,Pb1Se1,Pb1Se1,427,,,0.00024484,1.2169,,,,
6006,10.1002/adma.201004200,80,1(a),367,Pb1Se1,Pb1Se1,427.5,,,0.00024466,1.2162,,,,
6006,10.1002/adma.201004200,80,1(a),367,Pb1Se1,Pb1Se1,428,,,0.00024447,1.2156,,,,
6006,10.1002/adma.201004200,80,1(a),367,Pb1Se1,Pb1Se1,428.5,,,0.00024428,1.215,,,,
6006,10.1002/adma.201004200,80,1(a),367,Pb1Se1,Pb1Se1,429,,,0.00024408,1.2144,,,,
6006,10.1002/adma.201004200,80,1(a),367,Pb1Se1,Pb1Se1,429.5,,,0.00024389,1.2137,,,,
6006,10.1002/adma.201004200,80,1(a),367,Pb1Se1,Pb1Se1,430,,,0.00024369,1.2131,,,,
6006,10.1002/adma.201004200,80,1(a),367,Pb1Se1,Pb1Se1,430.5,,,0.00024349,1.2125,,,,
6006,10.1002/adma.201004200,80,1(a),367,Pb1Se1,Pb1Se1,431,,,0.00024328,1.2119,,,,
6006,10.1002/adma.201004200,80,1(a),367,Pb1Se1,Pb1Se1,431.5,,,0.00024308,1.2113,,,,
6006,10.1002/adma.201004200,80,1(a),367,Pb1Se1,Pb1Se1,432,,,0.00024287,1.2107,,,,
6006,10.1002/adma.201004200,80,1(a),367,Pb1Se1,Pb1Se1,432.5,,,0.00024266,1.2101,,,,
6006,10.1002/adma.201004200,80,1(a),367,Pb1Se1,Pb1Se1,433,,,0.00024245,1.2096,,,,
6006,10.1002/adma.201004200,80,1(a),367,Pb1Se1,Pb1Se1,433.5,,,0.00024224,1.209,,,,
6006,10.1002/adma.201004200,80,1(a),367,Pb1Se1,Pb1Se1,434,,,0.00024202,1.2084,,,,
6006,10.1002/adma.201004200,80,1(a),367,Pb1Se1,Pb1Se1,434.5,,,0.0002418,1.2079,,,,
6006,10.1002/adma.201004200,80,1(a),367,Pb1Se1,Pb1Se1,435,,,0.00024158,1.2073,,,,
6006,10.1002/adma.201004200,80,1(a),367,Pb1Se1,Pb1Se1,435.5,,,0.00024136,1.2067,,,,
6006,10.1002/adma.201004200,80,1(a),367,Pb1Se1,Pb1Se1,436,,,0.00024113,1.2062,,,,
6006,10.1002/adma.201004200,80,1(a),367,Pb1Se1,Pb1Se1,436.5,,,0.00024091,1.2057,,,,
6006,10.1002/adma.201004200,80,1(a),367,Pb1Se1,Pb1Se1,437,,,0.00024068,1.2051,,,,
6006,10.1002/adma.201004200,80,1(a),367,Pb1Se1,Pb1Se1,437.5,,,0.00024045,1.2046,,,,
6006,10.1002/adma.201004200,80,1(a),367,Pb1Se1,Pb1Se1,438,,,0.00024021,1.2041,,,,
6006,10.1002/adma.201004200,80,1(a),367,Pb1Se1,Pb1Se1,438.5,,,0.00023998,1.2035,,,,
6006,10.1002/adma.201004200,80,1(a),367,Pb1Se1,Pb1Se1,439,,,0.00023974,1.203,,,,
6006,10.1002/adma.201004200,80,1(a),367,Pb1Se1,Pb1Se1,439.5,,,0.0002395,1.2025,,,,
6006,10.1002/adma.201004200,80,1(a),367,Pb1Se1,Pb1Se1,440,,,0.00023925,1.202,,,,
6006,10.1002/adma.201004200,80,1(a),367,Pb1Se1,Pb1Se1,440.5,,,0.00023901,1.2015,,,,
6006,10.1002/adma.201004200,80,1(a),367,Pb1Se1,Pb1Se1,441,,,0.00023876,1.201,,,,
6006,10.1002/adma.201004200,80,1(a),367,Pb1Se1,Pb1Se1,441.5,,,0.00023851,1.2005,,,,
6006,10.1002/adma.201004200,80,1(a),367,Pb1Se1,Pb1Se1,442,,,0.00023826,1.2,,,,
6006,10.1002/adma.201004200,80,1(a),367,Pb1Se1,Pb1Se1,442.5,,,0.000238,1.1995,,,,
6006,10.1002/adma.201004200,80,1(a),367,Pb1Se1,Pb1Se1,443,,,0.00023774,1.1991,,,,
6006,10.1002/adma.201004200,80,1(a),367,Pb1Se1,Pb1Se1,443.5,,,0.00023748,1.1986,,,,
6006,10.1002/adma.201004200,80,1(a),367,Pb1Se1,Pb1Se1,444,,,0.00023722,1.1981,,,,
6006,10.1002/adma.201004200,80,1(a),367,Pb1Se1,Pb1Se1,444.5,,,0.00023696,1.1977,,,,
6006,10.1002/adma.201004200,80,1(a),367,Pb1Se1,Pb1Se1,445,,,0.00023669,1.1972,,,,
6006,10.1002/adma.201004200,80,1(a),367,Pb1Se1,Pb1Se1,445.5,,,0.00023642,1.1968,,,,
6006,10.1002/adma.201004200,80,1(a),367,Pb1Se1,Pb1Se1,446,,,0.00023615,1.1963,,,,
6006,10.1002/adma.201004200,80,1(a),367,Pb1Se1,Pb1Se1,446.5,,,0.00023588,1.1959,,,,
6006,10.1002/adma.201004200,80,1(a),367,Pb1Se1,Pb1Se1,447,,,0.0002356,1.1954,,,,
6006,10.1002/adma.201004200,80,1(a),367,Pb1Se1,Pb1Se1,447.5,,,0.00023532,1.195,,,,
6006,10.1002/adma.201004200,80,1(a),367,Pb1Se1,Pb1Se1,448,,,0.00023504,1.1946,,,,
6006,10.1002/adma.201004200,80,1(a),367,Pb1Se1,Pb1Se1,448.5,,,0.00023476,1.1941,,,,
6006,10.1002/adma.201004200,80,1(a),367,Pb1Se1,Pb1Se1,449,,,0.00023447,1.1937,,,,
6006,10.1002/adma.201004200,80,1(a),367,Pb1Se1,Pb1Se1,449.5,,,0.00023418,1.1933,,,,
6006,10.1002/adma.201004200,80,1(a),367,Pb1Se1,Pb1Se1,450,,,0.00023389,1.1929,,,,
6006,10.1002/adma.201004200,80,1(a),367,Pb1Se1,Pb1Se1,450.5,,,0.0002336,1.1925,,,,
6006,10.1002/adma.201004200,80,1(a),367,Pb1Se1,Pb1Se1,451,,,0.0002333,1.1921,,,,
6006,10.1002/adma.201004200,80,1(a),367,Pb1Se1,Pb1Se1,451.5,,,0.000233,1.1917,,,,
6006,10.1002/adma.201004200,80,1(a),367,Pb1Se1,Pb1Se1,452,,,0.0002327,1.1913,,,,
6006,10.1002/adma.201004200,80,1(a),367,Pb1Se1,Pb1Se1,452.5,,,0.0002324,1.1909,,,,
6006,10.1002/adma.201004200,80,1(a),367,Pb1Se1,Pb1Se1,453,,,0.0002321,1.1905,,,,
6006,10.1002/adma.201004200,80,1(a),367,Pb1Se1,Pb1Se1,453.5,,,0.00023179,1.1901,,,,
6006,10.1002/adma.201004200,80,1(a),367,Pb1Se1,Pb1Se1,454,,,0.00023148,1.1898,,,,
6006,10.1002/adma.201004200,80,1(a),367,Pb1Se1,Pb1Se1,454.5,,,0.00023117,1.1894,,,,
6006,10.1002/adma.201004200,80,1(a),367,Pb1Se1,Pb1Se1,455,,,0.00023085,1.189,,,,
6006,10.1002/adma.201004200,80,1(a),367,Pb1Se1,Pb1Se1,455.5,,,0.00023053,1.1887,,,,
6006,10.1002/adma.201004200,80,1(a),367,Pb1Se1,Pb1Se1,456,,,0.00023021,1.1883,,,,
6006,10.1002/adma.201004200,80,1(a),367,Pb1Se1,Pb1Se1,456.5,,,0.00022989,1.1879,,,,
6006,10.1002/adma.201004200,80,1(a),367,Pb1Se1,Pb1Se1,457,,,0.00022957,1.1876,,,,
6006,10.1002/adma.201004200,80,1(a),367,Pb1Se1,Pb1Se1,457.5,,,0.00022924,1.1873,,,,
6006,10.1002/adma.201004200,80,1(a),367,Pb1Se1,Pb1Se1,458,,,0.00022891,1.1869,,,,
6006,10.1002/adma.201004200,80,1(a),367,Pb1Se1,Pb1Se1,458.5,,,0.00022858,1.1866,,,,
6006,10.1002/adma.201004200,80,1(a),367,Pb1Se1,Pb1Se1,459,,,0.00022825,1.1862,,,,
6006,10.1002/adma.201004200,80,1(a),367,Pb1Se1,Pb1Se1,459.5,,,0.00022791,1.1859,,,,
6006,10.1002/adma.201004200,80,1(a),367,Pb1Se1,Pb1Se1,460,,,0.00022757,1.1856,,,,
6006,10.1002/adma.201004200,80,1(a),367,Pb1Se1,Pb1Se1,460.5,,,0.00022723,1.1853,,,,
6006,10.1002/adma.201004200,80,1(a),367,Pb1Se1,Pb1Se1,461,,,0.00022689,1.1849,,,,
6006,10.1002/adma.201004200,80,1(a),367,Pb1Se1,Pb1Se1,461.5,,,0.00022654,1.1846,,,,
6006,10.1002/adma.201004200,80,1(a),367,Pb1Se1,Pb1Se1,462,,,0.00022619,1.1843,,,,
6006,10.1002/adma.201004200,80,1(a),367,Pb1Se1,Pb1Se1,462.5,,,0.00022584,1.184,,,,
6006,10.1002/adma.201004200,80,1(a),367,Pb1Se1,Pb1Se1,463,,,0.00022549,1.1837,,,,
6006,10.1002/adma.201004200,80,1(a),367,Pb1Se1,Pb1Se1,463.5,,,0.00022513,1.1834,,,,
6006,10.1002/adma.201004200,80,1(a),367,Pb1Se1,Pb1Se1,464,,,0.00022477,1.1831,,,,
6006,10.1002/adma.201004200,80,1(a),367,Pb1Se1,Pb1Se1,464.5,,,0.00022441,1.1828,,,,