sid,DOI,figureid,fignum,sampleid,samplename,composition,Temperature,Carrier mobility,Electrical resistivity,Seebeck coefficient,Thermal conductivity,ZT,Electrical conductivity,Power factor,Figure of merit Z
6006,10.1002/adma.201004200,80,1(a),73,Na0.005Pb0.995Se1,Na0.005Pb0.995Se1,545.5,0.013662,0.00000956,0.00010542,1.7103,0.42314,104602.510460251,0.0011624871,0.0006796978
6006,10.1002/adma.201004200,80,1(a),73,Na0.005Pb0.995Se1,Na0.005Pb0.995Se1,546,0.013643,0.0000095793,0.00010557,1.7084,0.42416,104391.7614021901,0.0011634488,0.0006810166
6006,10.1002/adma.201004200,80,1(a),73,Na0.005Pb0.995Se1,Na0.005Pb0.995Se1,546.5,0.013625,0.0000095986,0.00010573,1.7065,0.42517,104181.8598545621,0.0011646316,0.000682468
6006,10.1002/adma.201004200,80,1(a),73,Na0.005Pb0.995Se1,Na0.005Pb0.995Se1,547,0.013606,0.000009618,0.00010589,1.7047,0.42619,103971.7196922437,0.0011658029,0.0006838757
6006,10.1002/adma.201004200,80,1(a),73,Na0.005Pb0.995Se1,Na0.005Pb0.995Se1,547.5,0.013587,0.0000096374,0.00010605,1.7028,0.42721,103762.4255504597,0.0011669748,0.000685327
6006,10.1002/adma.201004200,80,1(a),73,Na0.005Pb0.995Se1,Na0.005Pb0.995Se1,548,0.013568,0.0000096568,0.00010621,1.7009,0.42823,103553.9723303786,0.0011681472,0.0006867818
6006,10.1002/adma.201004200,80,1(a),73,Na0.005Pb0.995Se1,Na0.005Pb0.995Se1,548.5,0.013549,0.0000096763,0.00010637,1.699,0.42925,103345.2869381892,0.0011693082,0.0006882332
6006,10.1002/adma.201004200,80,1(a),73,Na0.005Pb0.995Se1,Na0.005Pb0.995Se1,549,0.01353,0.0000096958,0.00010653,1.6972,0.43027,103137.4409538151,0.0011704698,0.0006896475
6006,10.1002/adma.201004200,80,1(a),73,Na0.005Pb0.995Se1,Na0.005Pb0.995Se1,549.5,0.013511,0.0000097154,0.00010669,1.6953,0.43129,102929.3698663977,0.0011716199,0.0006910989
6006,10.1002/adma.201004200,80,1(a),73,Na0.005Pb0.995Se1,Na0.005Pb0.995Se1,550,0.013492,0.000009735,0.00010684,1.6934,0.43231,102722.1366204417,0.0011725512,0.0006924242
6006,10.1002/adma.201004200,80,1(a),73,Na0.005Pb0.995Se1,Na0.005Pb0.995Se1,550.5,0.013473,0.0000097547,0.000107,1.6916,0.43333,102514.685228659,0.0011736906,0.0006938346
6006,10.1002/adma.201004200,80,1(a),73,Na0.005Pb0.995Se1,Na0.005Pb0.995Se1,551,0.013454,0.0000097744,0.00010716,1.6897,0.43435,102308.0700605664,0.0011748307,0.0006952895
6006,10.1002/adma.201004200,80,1(a),73,Na0.005Pb0.995Se1,Na0.005Pb0.995Se1,551.5,0.013435,0.0000097942,0.00010732,1.6878,0.43537,102101.243593147,0.0011759595,0.000696741
6006,10.1002/adma.201004200,80,1(a),73,Na0.005Pb0.995Se1,Na0.005Pb0.995Se1,552,0.013416,0.000009814,0.00010748,1.686,0.43639,101895.2516812717,0.0011770889,0.0006981547
6006,10.1002/adma.201004200,80,1(a),73,Na0.005Pb0.995Se1,Na0.005Pb0.995Se1,552.5,0.013397,0.0000098338,0.00010764,1.6841,0.43741,101690.0892838984,0.001178219,0.0006996134
6006,10.1002/adma.201004200,80,1(a),73,Na0.005Pb0.995Se1,Na0.005Pb0.995Se1,553,0.013378,0.0000098537,0.0001078,1.6823,0.43842,101484.7214751819,0.0011793377,0.000701027
6006,10.1002/adma.201004200,80,1(a),73,Na0.005Pb0.995Se1,Na0.005Pb0.995Se1,553.5,0.013359,0.0000098736,0.00010797,1.6804,0.43944,101280.1814940852,0.0011806758,0.0007026159
6006,10.1002/adma.201004200,80,1(a),73,Na0.005Pb0.995Se1,Na0.005Pb0.995Se1,554,0.01334,0.0000098936,0.00010813,1.6786,0.44046,101075.4427104391,0.0011817839,0.0007040295
6006,10.1002/adma.201004200,80,1(a),73,Na0.005Pb0.995Se1,Na0.005Pb0.995Se1,554.5,0.013321,0.0000099137,0.00010829,1.6767,0.44148,100870.5125230741,0.0011828807,0.0007054814
6006,10.1002/adma.201004200,80,1(a),73,Na0.005Pb0.995Se1,Na0.005Pb0.995Se1,555,0.013302,0.0000099337,0.00010845,1.6749,0.4425,100667.4250279352,0.0011839901,0.000706902
6006,10.1002/adma.201004200,80,1(a),73,Na0.005Pb0.995Se1,Na0.005Pb0.995Se1,555.5,0.013284,0.0000099539,0.00010861,1.6731,0.44352,100463.1350525924,0.0011850764,0.0007083118
6006,10.1002/adma.201004200,80,1(a),73,Na0.005Pb0.995Se1,Na0.005Pb0.995Se1,556,0.013265,0.0000099741,0.00010877,1.6712,0.44454,100259.6725519094,0.0011861635,0.0007097675
6006,10.1002/adma.201004200,80,1(a),73,Na0.005Pb0.995Se1,Na0.005Pb0.995Se1,556.5,0.013246,0.0000099943,0.00010893,1.6694,0.44556,100057.0325085299,0.0011872512,0.0007111844
6006,10.1002/adma.201004200,80,1(a),73,Na0.005Pb0.995Se1,Na0.005Pb0.995Se1,557,0.013227,0.000010015,0.0001091,1.6676,0.44658,99850.2246630055,0.0011884983,0.0007126998
6006,10.1002/adma.201004200,80,1(a),73,Na0.005Pb0.995Se1,Na0.005Pb0.995Se1,557.5,0.013208,0.000010035,0.00010926,1.6657,0.4476,99651.2207274539,0.0011896111,0.0007141809
6006,10.1002/adma.201004200,80,1(a),73,Na0.005Pb0.995Se1,Na0.005Pb0.995Se1,558,0.013189,0.000010055,0.00010942,1.6639,0.44862,99453.0084535057,0.0011907247,0.0007156227
6006,10.1002/adma.201004200,80,1(a),73,Na0.005Pb0.995Se1,Na0.005Pb0.995Se1,558.5,0.01317,0.000010076,0.00010958,1.6621,0.44964,99245.7324335054,0.0011917206,0.0007169969
6006,10.1002/adma.201004200,80,1(a),73,Na0.005Pb0.995Se1,Na0.005Pb0.995Se1,559,0.013151,0.000010096,0.00010975,1.6603,0.45065,99049.1283676704,0.0011930529,0.0007185767
6006,10.1002/adma.201004200,80,1(a),73,Na0.005Pb0.995Se1,Na0.005Pb0.995Se1,559.5,0.013132,0.000010117,0.00010991,1.6584,0.45167,98843.5306909163,0.0011940504,0.0007200015
6006,10.1002/adma.201004200,80,1(a),73,Na0.005Pb0.995Se1,Na0.005Pb0.995Se1,560,0.013113,0.000010137,0.00011007,1.6566,0.45269,98648.5153398441,0.0011951667,0.0007214576
6006,10.1002/adma.201004200,80,1(a),73,Na0.005Pb0.995Se1,Na0.005Pb0.995Se1,560.5,0.013094,0.000010158,0.00011024,1.6548,0.45371,98444.5757038787,0.0011963829,0.0007229773
6006,10.1002/adma.201004200,80,1(a),73,Na0.005Pb0.995Se1,Na0.005Pb0.995Se1,561,0.013075,0.000010178,0.0001104,1.653,0.45473,98251.1298879937,0.0011975005,0.0007244407
6006,10.1002/adma.201004200,80,1(a),73,Na0.005Pb0.995Se1,Na0.005Pb0.995Se1,561.5,0.013056,0.000010199,0.00011056,1.6512,0.45575,98048.8283165016,0.0011985012,0.0007258365
6006,10.1002/adma.201004200,80,1(a),73,Na0.005Pb0.995Se1,Na0.005Pb0.995Se1,562,0.013037,0.00001022,0.00011073,1.6494,0.45677,97847.3581213307,0.0011997195,0.0007273672
6006,10.1002/adma.201004200,80,1(a),73,Na0.005Pb0.995Se1,Na0.005Pb0.995Se1,562.5,0.013018,0.000010241,0.00011089,1.6476,0.45779,97646.7141880676,0.0012007218,0.0007287702
6006,10.1002/adma.201004200,80,1(a),73,Na0.005Pb0.995Se1,Na0.005Pb0.995Se1,563,0.012999,0.000010262,0.00011106,1.6458,0.45881,97446.8914441629,0.0012019415,0.0007303084
6006,10.1002/adma.201004200,80,1(a),73,Na0.005Pb0.995Se1,Na0.005Pb0.995Se1,563.5,0.01298,0.000010282,0.00011122,1.644,0.45983,97257.3429293912,0.0012030625,0.0007317898
6006,10.1002/adma.201004200,80,1(a),73,Na0.005Pb0.995Se1,Na0.005Pb0.995Se1,564,0.012961,0.000010303,0.00011139,1.6422,0.46085,97059.1089973794,0.0012042834,0.0007333354
6006,10.1002/adma.201004200,80,1(a),73,Na0.005Pb0.995Se1,Na0.005Pb0.995Se1,564.5,0.012942,0.000010324,0.00011155,1.6404,0.46187,96861.6815187912,0.0012052889,0.000734753
6006,10.1002/adma.201004200,80,1(a),73,Na0.005Pb0.995Se1,Na0.005Pb0.995Se1,565,0.012924,0.000010346,0.00011172,1.6386,0.46289,96655.7123526,0.0012063946,0.0007362349
6006,10.1002/adma.201004200,80,1(a),73,Na0.005Pb0.995Se1,Na0.005Pb0.995Se1,565.5,0.012905,0.000010367,0.00011188,1.6368,0.4639,96459.9209028649,0.0012074018,0.0007376599
6006,10.1002/adma.201004200,80,1(a),73,Na0.005Pb0.995Se1,Na0.005Pb0.995Se1,566,0.012886,0.000010388,0.00011205,1.635,0.46492,96264.9210627647,0.0012086256,0.0007392205
6006,10.1002/adma.201004200,80,1(a),73,Na0.005Pb0.995Se1,Na0.005Pb0.995Se1,566.5,0.012867,0.000010409,0.00011221,1.6332,0.46594,96070.7080411183,0.0012096344,0.0007406529
6006,10.1002/adma.201004200,80,1(a),73,Na0.005Pb0.995Se1,Na0.005Pb0.995Se1,567,0.012848,0.00001043,0.00011238,1.6314,0.46696,95877.2770853308,0.0012108595,0.0007422211
6006,10.1002/adma.201004200,80,1(a),73,Na0.005Pb0.995Se1,Na0.005Pb0.995Se1,567.5,0.012829,0.000010452,0.00011254,1.6296,0.46798,95675.4688097972,0.0012117539,0.0007435898
6006,10.1002/adma.201004200,80,1(a),73,Na0.005Pb0.995Se1,Na0.005Pb0.995Se1,568,0.01281,0.000010473,0.00011271,1.6279,0.469,95483.6245583882,0.0012129804,0.0007451197
6006,10.1002/adma.201004200,80,1(a),73,Na0.005Pb0.995Se1,Na0.005Pb0.995Se1,568.5,0.012791,0.000010494,0.00011288,1.6261,0.47002,95292.5481227368,0.0012142076,0.0007466992
6006,10.1002/adma.201004200,80,1(a),73,Na0.005Pb0.995Se1,Na0.005Pb0.995Se1,569,0.012772,0.000010516,0.00011304,1.6243,0.47104,95093.1913275009,0.0012151048,0.000748079
6006,10.1002/adma.201004200,80,1(a),73,Na0.005Pb0.995Se1,Na0.005Pb0.995Se1,569.5,0.012753,0.000010537,0.00011321,1.6225,0.47206,94903.6727721363,0.0012163333,0.0007496661
6006,10.1002/adma.201004200,80,1(a),73,Na0.005Pb0.995Se1,Na0.005Pb0.995Se1,570,0.012734,0.000010559,0.00011338,1.6208,0.47308,94705.9380623165,0.0012174471,0.0007511396
6006,10.1002/adma.201004200,80,1(a),73,Na0.005Pb0.995Se1,Na0.005Pb0.995Se1,570.5,0.012715,0.000010581,0.00011355,1.619,0.4741,94509.0256119459,0.0012185618,0.0007526633
6006,10.1002/adma.201004200,80,1(a),73,Na0.005Pb0.995Se1,Na0.005Pb0.995Se1,571,0.012696,0.000010602,0.00011371,1.6172,0.47512,94321.8260705527,0.0012195778,0.0007541293
6006,10.1002/adma.201004200,80,1(a),73,Na0.005Pb0.995Se1,Na0.005Pb0.995Se1,571.5,0.012677,0.000010624,0.00011388,1.6155,0.47614,94126.5060240964,0.0012206941,0.0007556138
6006,10.1002/adma.201004200,80,1(a),73,Na0.005Pb0.995Se1,Na0.005Pb0.995Se1,572,0.012658,0.000010646,0.00011405,1.6137,0.47715,93931.9932368965,0.0012218112,0.0007571489
6006,10.1002/adma.201004200,80,1(a),73,Na0.005Pb0.995Se1,Na0.005Pb0.995Se1,572.5,0.012639,0.000010668,0.00011422,1.6119,0.47817,93738.2827146607,0.0012229292,0.000758688
6006,10.1002/adma.201004200,80,1(a),73,Na0.005Pb0.995Se1,Na0.005Pb0.995Se1,573,0.01262,0.00001069,0.00011439,1.6102,0.47919,93545.3695042095,0.0012240479,0.0007601838
6006,10.1002/adma.201004200,80,1(a),73,Na0.005Pb0.995Se1,Na0.005Pb0.995Se1,573.5,0.012601,0.000010711,0.00011455,1.6084,0.48021,93361.9643357296,0.0012250679,0.0007616687
6006,10.1002/adma.201004200,80,1(a),73,Na0.005Pb0.995Se1,Na0.005Pb0.995Se1,574,0.012583,0.000010733,0.00011472,1.6067,0.48123,93170.5953601043,0.0012261882,0.0007631719
6006,10.1002/adma.201004200,80,1(a),73,Na0.005Pb0.995Se1,Na0.005Pb0.995Se1,574.5,0.012564,0.000010756,0.00011489,1.6049,0.48225,92971.3648196355,0.0012271952,0.0007646553
6006,10.1002/adma.201004200,80,1(a),73,Na0.005Pb0.995Se1,Na0.005Pb0.995Se1,575,0.012545,0.000010778,0.00011506,1.6032,0.48327,92781.592132121,0.0012283173,0.000766166
6006,10.1002/adma.201004200,80,1(a),73,Na0.005Pb0.995Se1,Na0.005Pb0.995Se1,575.5,0.012526,0.0000108,0.00011523,1.6014,0.48429,92592.5925925926,0.0012294401,0.0007677283
6006,10.1002/adma.201004200,80,1(a),73,Na0.005Pb0.995Se1,Na0.005Pb0.995Se1,576,0.012507,0.000010822,0.0001154,1.5997,0.48531,92404.3614858621,0.0012305637,0.0007692465
6006,10.1002/adma.201004200,80,1(a),73,Na0.005Pb0.995Se1,Na0.005Pb0.995Se1,576.5,0.012488,0.000010844,0.00011557,1.5979,0.48633,92216.8941350055,0.001231688,0.0007708167
6006,10.1002/adma.201004200,80,1(a),73,Na0.005Pb0.995Se1,Na0.005Pb0.995Se1,577,0.012469,0.000010867,0.00011574,1.5962,0.48735,92021.7171252416,0.0012326997,0.0007722715
6006,10.1002/adma.201004200,80,1(a),73,Na0.005Pb0.995Se1,Na0.005Pb0.995Se1,577.5,0.01245,0.000010889,0.00011591,1.5945,0.48837,91835.7975939021,0.0012338257,0.000773801
6006,10.1002/adma.201004200,80,1(a),73,Na0.005Pb0.995Se1,Na0.005Pb0.995Se1,578,0.012431,0.000010912,0.00011608,1.5927,0.48939,91642.2287390029,0.0012348393,0.0007753119
6006,10.1002/adma.201004200,80,1(a),73,Na0.005Pb0.995Se1,Na0.005Pb0.995Se1,578.5,0.012412,0.000010934,0.00011625,1.591,0.4904,91457.8379367112,0.0012359669,0.0007768491
6006,10.1002/adma.201004200,80,1(a),73,Na0.005Pb0.995Se1,Na0.005Pb0.995Se1,579,0.012393,0.000010957,0.00011642,1.5892,0.49142,91265.8574427307,0.0012369824,0.000778368
6006,10.1002/adma.201004200,80,1(a),73,Na0.005Pb0.995Se1,Na0.005Pb0.995Se1,579.5,0.012374,0.000010979,0.00011659,1.5875,0.49244,91082.976591675,0.0012381117,0.0007799129
6006,10.1002/adma.201004200,80,1(a),73,Na0.005Pb0.995Se1,Na0.005Pb0.995Se1,580,0.012355,0.000011002,0.00011677,1.5858,0.49346,90892.564988184,0.0012393413,0.0007815243
6006,10.1002/adma.201004200,80,1(a),73,Na0.005Pb0.995Se1,Na0.005Pb0.995Se1,580.5,0.012336,0.000011025,0.00011694,1.5841,0.49448,90702.947845805,0.0012403595,0.0007830058
6006,10.1002/adma.201004200,80,1(a),73,Na0.005Pb0.995Se1,Na0.005Pb0.995Se1,581,0.012317,0.000011047,0.00011711,1.5823,0.4955,90522.3137503395,0.0012414911,0.0007846117
6006,10.1002/adma.201004200,80,1(a),73,Na0.005Pb0.995Se1,Na0.005Pb0.995Se1,581.5,0.012298,0.00001107,0.00011728,1.5806,0.49652,90334.2366757001,0.0012425111,0.0007861009
6006,10.1002/adma.201004200,80,1(a),73,Na0.005Pb0.995Se1,Na0.005Pb0.995Se1,582,0.012279,0.000011093,0.00011745,1.5789,0.49754,90146.9395114036,0.0012435322,0.000787594
6006,10.1002/adma.201004200,80,1(a),73,Na0.005Pb0.995Se1,Na0.005Pb0.995Se1,582.5,0.01226,0.000011116,0.00011763,1.5772,0.49856,89960.4174163368,0.0012447658,0.0007892251
6006,10.1002/adma.201004200,80,1(a),73,Na0.005Pb0.995Se1,Na0.005Pb0.995Se1,583,0.012241,0.000011139,0.0001178,1.5755,0.49958,89774.6655893707,0.0012457887,0.0007907259
6006,10.1002/adma.201004200,80,1(a),73,Na0.005Pb0.995Se1,Na0.005Pb0.995Se1,583.5,0.012223,0.000011162,0.00011797,1.5738,0.5006,89589.6792689482,0.0012468125,0.0007922306
6006,10.1002/adma.201004200,80,1(a),73,Na0.005Pb0.995Se1,Na0.005Pb0.995Se1,584,0.012204,0.000011185,0.00011814,1.5721,0.50162,89405.4537326777,0.0012478372,0.0007937391
6006,10.1002/adma.201004200,80,1(a),73,Na0.005Pb0.995Se1,Na0.005Pb0.995Se1,584.5,0.012185,0.000011209,0.00011832,1.5703,0.50264,89214.0244446427,0.0012489627,0.0007953656
6006,10.1002/adma.201004200,80,1(a),73,Na0.005Pb0.995Se1,Na0.005Pb0.995Se1,585,0.012166,0.000011232,0.00011849,1.5686,0.50365,89031.339031339,0.0012499893,0.0007968821
6006,10.1002/adma.201004200,80,1(a),73,Na0.005Pb0.995Se1,Na0.005Pb0.995Se1,585.5,0.012147,0.000011255,0.00011866,1.5669,0.50467,88849.4002665482,0.0012510169,0.0007984025
6006,10.1002/adma.201004200,80,1(a),73,Na0.005Pb0.995Se1,Na0.005Pb0.995Se1,586,0.012128,0.000011279,0.00011884,1.5652,0.50569,88660.342228921,0.0012521452,0.0007999905
6006,10.1002/adma.201004200,80,1(a),73,Na0.005Pb0.995Se1,Na0.005Pb0.995Se1,586.5,0.012109,0.000011302,0.00011901,1.5635,0.50671,88479.9150592815,0.0012531747,0.0008015188
6006,10.1002/adma.201004200,80,1(a),73,Na0.005Pb0.995Se1,Na0.005Pb0.995Se1,587,0.01209,0.000011325,0.00011919,1.5618,0.50773,88300.2207505519,0.0012544155,0.0008031858
6006,10.1002/adma.201004200,80,1(a),73,Na0.005Pb0.995Se1,Na0.005Pb0.995Se1,587.5,0.012071,0.000011349,0.00011936,1.5601,0.50875,88113.4901753459,0.0012553361,0.0008046511
6006,10.1002/adma.201004200,80,1(a),73,Na0.005Pb0.995Se1,Na0.005Pb0.995Se1,588,0.012052,0.000011373,0.00011954,1.5585,0.50977,87927.5477006946,0.0012564681,0.0008062035
6006,10.1002/adma.201004200,80,1(a),73,Na0.005Pb0.995Se1,Na0.005Pb0.995Se1,588.5,0.012033,0.000011396,0.00011971,1.5568,0.51079,87750.0877500877,0.0012575012,0.0008077475
6006,10.1002/adma.201004200,80,1(a),73,Na0.005Pb0.995Se1,Na0.005Pb0.995Se1,589,0.012014,0.00001142,0.00011989,1.5551,0.51181,87565.6742556918,0.001258635,0.0008093595
6006,10.1002/adma.201004200,80,1(a),73,Na0.005Pb0.995Se1,Na0.005Pb0.995Se1,589.5,0.011995,0.000011444,0.00012006,1.5534,0.51283,87382.0342537574,0.0012595599,0.0008108407
6006,10.1002/adma.201004200,80,1(a),73,Na0.005Pb0.995Se1,Na0.005Pb0.995Se1,590,0.011976,0.000011468,0.00012024,1.5517,0.51385,87199.1628880363,0.0012606956,0.0008124609
6006,10.1002/adma.201004200,80,1(a),73,Na0.005Pb0.995Se1,Na0.005Pb0.995Se1,590.5,0.011957,0.000011492,0.00012041,1.55,0.51487,87017.0553428472,0.0012616227,0.0008139501
6006,10.1002/adma.201004200,80,1(a),73,Na0.005Pb0.995Se1,Na0.005Pb0.995Se1,591,0.011938,0.000011516,0.00012059,1.5483,0.51589,86835.7068426537,0.0012627603,0.0008155786
6006,10.1002/adma.201004200,80,1(a),73,Na0.005Pb0.995Se1,Na0.005Pb0.995Se1,591.5,0.011919,0.00001154,0.00012076,1.5467,0.5169,86655.1126516464,0.0012636896,0.0008170231
6006,10.1002/adma.201004200,80,1(a),73,Na0.005Pb0.995Se1,Na0.005Pb0.995Se1,592,0.0119,0.000011564,0.00012094,1.545,0.51792,86475.268073331,0.0012648291,0.0008186596
6006,10.1002/adma.201004200,80,1(a),73,Na0.005Pb0.995Se1,Na0.005Pb0.995Se1,592.5,0.011882,0.000011588,0.00012112,1.5433,0.51894,86296.1684501208,0.0012659695,0.0008203003
6006,10.1002/adma.201004200,80,1(a),73,Na0.005Pb0.995Se1,Na0.005Pb0.995Se1,593,0.011863,0.000011612,0.00012129,1.5416,0.51996,86117.8091629349,0.0012669018,0.0008218097
6006,10.1002/adma.201004200,80,1(a),73,Na0.005Pb0.995Se1,Na0.005Pb0.995Se1,593.5,0.011844,0.000011636,0.00012147,1.54,0.52098,85940.185630801,0.0012680441,0.0008234052
6006,10.1002/adma.201004200,80,1(a),73,Na0.005Pb0.995Se1,Na0.005Pb0.995Se1,594,0.011825,0.000011661,0.00012165,1.5383,0.522,85755.938598748,0.0012690783,0.0008249875
6006,10.1002/adma.201004200,80,1(a),73,Na0.005Pb0.995Se1,Na0.005Pb0.995Se1,594.5,0.011806,0.000011685,0.00012183,1.5366,0.52302,85579.8031664527,0.0012702224,0.0008266448
6006,10.1002/adma.201004200,80,1(a),73,Na0.005Pb0.995Se1,Na0.005Pb0.995Se1,595,0.011787,0.00001171,0.000122,1.535,0.52404,85397.0964987191,0.0012710504,0.0008280459
6006,10.1002/adma.201004200,80,1(a),73,Na0.005Pb0.995Se1,Na0.005Pb0.995Se1,595.5,0.011768,0.000011734,0.00012218,1.5333,0.52506,85222.4305437191,0.0012721964,0.0008297113
6006,10.1002/adma.201004200,80,1(a),73,Na0.005Pb0.995Se1,Na0.005Pb0.995Se1,596,0.011749,0.000011759,0.00012236,1.5317,0.52608,85041.2450038269,0.0012732349,0.0008312561
6006,10.1002/adma.201004200,80,1(a),73,Na0.005Pb0.995Se1,Na0.005Pb0.995Se1,596.5,0.01173,0.000011784,0.00012254,1.53,0.5271,84860.8282416836,0.0012742746,0.0008328592
6006,10.1002/adma.201004200,80,1(a),73,Na0.005Pb0.995Se1,Na0.005Pb0.995Se1,597,0.011711,0.000011808,0.00012272,1.5284,0.52812,84688.3468834688,0.0012754233,0.0008344827
6006,10.1002/adma.201004200,80,1(a),73,Na0.005Pb0.995Se1,Na0.005Pb0.995Se1,597.5,0.011692,0.000011833,0.0001229,1.5267,0.52914,84509.4228006423,0.001276465,0.0008360942
6006,10.1002/adma.201004200,80,1(a),73,Na0.005Pb0.995Se1,Na0.005Pb0.995Se1,598,0.011673,0.000011858,0.00012307,1.5251,0.53015,84331.253162422,0.0012773001,0.0008375189
6006,10.1002/adma.201004200,80,1(a),73,Na0.005Pb0.995Se1,Na0.005Pb0.995Se1,598.5,0.011654,0.000011883,0.00012325,1.5234,0.53117,84153.8332071026,0.0012783441,0.0008391388
6006,10.1002/adma.201004200,80,1(a),73,Na0.005Pb0.995Se1,Na0.005Pb0.995Se1,599,0.011635,0.000011908,0.00012343,1.5218,0.53219,83977.1582129661,0.0012793891,0.0008407078
6006,10.1002/adma.201004200,80,1(a),73,Na0.005Pb0.995Se1,Na0.005Pb0.995Se1,599.5,0.011616,0.000011933,0.00012361,1.5201,0.53321,83801.2234978631,0.0012804351,0.0008423361
6006,10.1002/adma.201004200,80,1(a),73,Na0.005Pb0.995Se1,Na0.005Pb0.995Se1,600,0.011597,0.000011958,0.00012379,1.5185,0.53423,83626.0244187991,0.0012814822,0.0008439132
6006,10.1002/adma.201004200,80,1(a),73,Na0.005Pb0.995Se1,Na0.005Pb0.995Se1,600.5,0.011578,0.000011983,0.00012397,1.5168,0.53525,83451.5563715263,0.0012825303,0.0008455501
6006,10.1002/adma.201004200,80,1(a),73,Na0.005Pb0.995Se1,Na0.005Pb0.995Se1,601,0.011559,0.000012009,0.00012415,1.5152,0.53627,83270.8801732034,0.0012834726,0.0008470648
6006,10.1002/adma.201004200,80,1(a),73,Na0.005Pb0.995Se1,Na0.005Pb0.995Se1,601.5,0.01154,0.000012034,0.00012433,1.5136,0.53729,83097.8893136114,0.0012845229,0.0008486542
6006,10.1002/adma.201004200,80,1(a),73,Na0.005Pb0.995Se1,Na0.005Pb0.995Se1,602,0.011522,0.000012059,0.00012451,1.5119,0.53831,82925.6157226967,0.0012855743,0.0008503038
6006,10.1002/adma.201004200,80,1(a),73,Na0.005Pb0.995Se1,Na0.005Pb0.995Se1,602.5,0.011503,0.000012085,0.00012469,1.5103,0.53933,82747.2072817542,0.0012865202,0.0008518309
6006,10.1002/adma.201004200,80,1(a),73,Na0.005Pb0.995Se1,Na0.005Pb0.995Se1,603,0.011484,0.00001211,0.00012488,1.5087,0.54035,82576.3831544178,0.0012877799,0.0008535692