sid,DOI,figureid,fignum,sampleid,samplename,composition,Temperature,Carrier mobility,Electrical resistivity,Seebeck coefficient,Thermal conductivity,ZT,Electrical conductivity,Power factor,Figure of merit Z
6006,10.1002/adma.201004200,80,1(a),324,Na0.007Pb0.993Se1,Na0.007Pb0.993Se1,752,0.0052503,0.000018856,0.0001724,1.2236,0.88822,53033.5171828596,0.0015762495,0.0012882065
6006,10.1002/adma.201004200,80,1(a),324,Na0.007Pb0.993Se1,Na0.007Pb0.993Se1,752.5,0.0052354,0.000018897,0.0001726,1.2225,0.88941,52918.4526644441,0.0015764809,0.0012895549
6006,10.1002/adma.201004200,80,1(a),324,Na0.007Pb0.993Se1,Na0.007Pb0.993Se1,753,0.0052206,0.000018937,0.00017281,1.2215,0.8906,52806.6747636901,0.0015769814,0.0012910204
6006,10.1002/adma.201004200,80,1(a),324,Na0.007Pb0.993Se1,Na0.007Pb0.993Se1,753.5,0.0052058,0.000018977,0.00017301,1.2205,0.89179,52695.368077146,0.001577302,0.0012923408
6006,10.1002/adma.201004200,80,1(a),324,Na0.007Pb0.993Se1,Na0.007Pb0.993Se1,754,0.005191,0.000019018,0.00017322,1.2195,0.89298,52581.7646440215,0.0015777247,0.0012937472
6006,10.1002/adma.201004200,80,1(a),324,Na0.007Pb0.993Se1,Na0.007Pb0.993Se1,754.5,0.0051761,0.000019058,0.00017342,1.2185,0.89417,52471.4030853185,0.001578051,0.0012950768
6006,10.1002/adma.201004200,80,1(a),324,Na0.007Pb0.993Se1,Na0.007Pb0.993Se1,755,0.0051613,0.000019099,0.00017363,1.2175,0.89535,52358.7622388607,0.0015784793,0.0012964923
6006,10.1002/adma.201004200,80,1(a),324,Na0.007Pb0.993Se1,Na0.007Pb0.993Se1,755.5,0.0051465,0.00001914,0.00017383,1.2165,0.89654,52246.6039707419,0.0015787288,0.0012977631
6006,10.1002/adma.201004200,80,1(a),324,Na0.007Pb0.993Se1,Na0.007Pb0.993Se1,756,0.0051316,0.000019181,0.00017404,1.2156,0.89773,52134.9251863824,0.0015791628,0.0012990809
6006,10.1002/adma.201004200,80,1(a),324,Na0.007Pb0.993Se1,Na0.007Pb0.993Se1,756.5,0.0051168,0.000019222,0.00017424,1.2146,0.89892,52023.7228176048,0.0015794182,0.0013003608
6006,10.1002/adma.201004200,80,1(a),324,Na0.007Pb0.993Se1,Na0.007Pb0.993Se1,757,0.005102,0.000019263,0.00017445,1.2136,0.90011,51912.9938223537,0.0015798579,0.0013017946
6006,10.1002/adma.201004200,80,1(a),324,Na0.007Pb0.993Se1,Na0.007Pb0.993Se1,757.5,0.0050872,0.000019304,0.00017465,1.2126,0.9013,51802.7351844177,0.0015801193,0.0013030837
6006,10.1002/adma.201004200,80,1(a),324,Na0.007Pb0.993Se1,Na0.007Pb0.993Se1,758,0.0050723,0.000019345,0.00017485,1.2116,0.90248,51692.9439131559,0.0015803837,0.0013043774
6006,10.1002/adma.201004200,80,1(a),324,Na0.007Pb0.993Se1,Na0.007Pb0.993Se1,758.5,0.0050575,0.000019386,0.00017506,1.2107,0.90367,51583.6170432271,0.0015808317,0.0013057171
6006,10.1002/adma.201004200,80,1(a),324,Na0.007Pb0.993Se1,Na0.007Pb0.993Se1,759,0.0050427,0.000019428,0.00017526,1.2097,0.90486,51472.1021206506,0.0015810206,0.0013069526
6006,10.1002/adma.201004200,80,1(a),324,Na0.007Pb0.993Se1,Na0.007Pb0.993Se1,759.5,0.0050278,0.000019469,0.00017547,1.2087,0.90605,51363.7064050542,0.0015814742,0.0013084092
6006,10.1002/adma.201004200,80,1(a),324,Na0.007Pb0.993Se1,Na0.007Pb0.993Se1,760,0.005013,0.000019511,0.00017567,1.2078,0.90724,51253.1392547794,0.0015816693,0.0013095457
6006,10.1002/adma.201004200,80,1(a),324,Na0.007Pb0.993Se1,Na0.007Pb0.993Se1,760.5,0.0049982,0.000019552,0.00017587,1.2068,0.90843,51145.6628477905,0.0015819485,0.0013108622
6006,10.1002/adma.201004200,80,1(a),324,Na0.007Pb0.993Se1,Na0.007Pb0.993Se1,761,0.0049834,0.000019594,0.00017608,1.2058,0.90961,51036.0314381954,0.0015823296,0.0013122654
6006,10.1002/adma.201004200,80,1(a),324,Na0.007Pb0.993Se1,Na0.007Pb0.993Se1,761.5,0.0049685,0.000019636,0.00017628,1.2049,0.9108,50926.8690160929,0.001582534,0.0013134153
6006,10.1002/adma.201004200,80,1(a),324,Na0.007Pb0.993Se1,Na0.007Pb0.993Se1,762,0.0049537,0.000019677,0.00017648,1.2039,0.91199,50820.7551964222,0.0015828221,0.0013147455
6006,10.1002/adma.201004200,80,1(a),324,Na0.007Pb0.993Se1,Na0.007Pb0.993Se1,762.5,0.0049389,0.000019719,0.00017669,1.203,0.91318,50712.5107764085,0.0015832119,0.0013160531
6006,10.1002/adma.201004200,80,1(a),324,Na0.007Pb0.993Se1,Na0.007Pb0.993Se1,763,0.004924,0.000019761,0.00017689,1.202,0.91437,50604.7264814534,0.0015834255,0.0013173257
6006,10.1002/adma.201004200,80,1(a),324,Na0.007Pb0.993Se1,Na0.007Pb0.993Se1,763.5,0.0049092,0.000019804,0.00017709,1.2011,0.91556,50494.8495253484,0.0015835623,0.0013184267
6006,10.1002/adma.201004200,80,1(a),324,Na0.007Pb0.993Se1,Na0.007Pb0.993Se1,764,0.0048944,0.000019846,0.0001773,1.2002,0.91674,50387.9875037791,0.001583961,0.0013197475
6006,10.1002/adma.201004200,80,1(a),324,Na0.007Pb0.993Se1,Na0.007Pb0.993Se1,764.5,0.0048796,0.000019888,0.0001775,1.1992,0.91793,50281.5768302494,0.0015841839,0.001321034
6006,10.1002/adma.201004200,80,1(a),324,Na0.007Pb0.993Se1,Na0.007Pb0.993Se1,765,0.0048647,0.00001993,0.0001777,1.1983,0.91912,50175.6146512795,0.0015844099,0.0013222147
6006,10.1002/adma.201004200,80,1(a),324,Na0.007Pb0.993Se1,Na0.007Pb0.993Se1,765.5,0.0048499,0.000019973,0.0001779,1.1974,0.92031,50067.591248185,0.0015845597,0.0013233336
6006,10.1002/adma.201004200,80,1(a),324,Na0.007Pb0.993Se1,Na0.007Pb0.993Se1,766,0.0048351,0.000020015,0.0001781,1.1964,0.9215,49962.5281039221,0.0015847919,0.0013246338
6006,10.1002/adma.201004200,80,1(a),324,Na0.007Pb0.993Se1,Na0.007Pb0.993Se1,766.5,0.0048203,0.000020058,0.00017831,1.1955,0.92269,49855.4192840762,0.0015851259,0.0013259104
6006,10.1002/adma.201004200,80,1(a),324,Na0.007Pb0.993Se1,Na0.007Pb0.993Se1,767,0.0048054,0.000020101,0.00017851,1.1946,0.92387,49748.7687179742,0.0015852853,0.0013270428
6006,10.1002/adma.201004200,80,1(a),324,Na0.007Pb0.993Se1,Na0.007Pb0.993Se1,767.5,0.0047906,0.000020143,0.00017871,1.1937,0.92506,49645.0379784541,0.0015855267,0.0013282455
6006,10.1002/adma.201004200,80,1(a),324,Na0.007Pb0.993Se1,Na0.007Pb0.993Se1,768,0.0047758,0.000020186,0.00017891,1.1928,0.92625,49539.2846527296,0.0015856925,0.0013293867
6006,10.1002/adma.201004200,80,1(a),324,Na0.007Pb0.993Se1,Na0.007Pb0.993Se1,768.5,0.0047609,0.000020229,0.00017911,1.1919,0.92744,49433.9809184834,0.0015858615,0.0013305323
6006,10.1002/adma.201004200,80,1(a),324,Na0.007Pb0.993Se1,Na0.007Pb0.993Se1,769,0.0047461,0.000020272,0.00017931,1.1909,0.92863,49329.1239147593,0.0015860337,0.0013317942
6006,10.1002/adma.201004200,80,1(a),324,Na0.007Pb0.993Se1,Na0.007Pb0.993Se1,769.5,0.0047313,0.000020315,0.00017952,1.19,0.92982,49224.710804824,0.0015863859,0.0013330974
6006,10.1002/adma.201004200,80,1(a),324,Na0.007Pb0.993Se1,Na0.007Pb0.993Se1,770,0.0047165,0.000020359,0.00017972,1.1891,0.931,49118.3260474483,0.0015864865,0.001334191
6006,10.1002/adma.201004200,80,1(a),324,Na0.007Pb0.993Se1,Na0.007Pb0.993Se1,770.5,0.0047016,0.000020402,0.00017992,1.1882,0.93219,49014.802470346,0.0015866683,0.0013353546
6006,10.1002/adma.201004200,80,1(a),324,Na0.007Pb0.993Se1,Na0.007Pb0.993Se1,771,0.0046868,0.000020445,0.00018012,1.1873,0.93338,48911.7143555882,0.0015868532,0.0013365226
6006,10.1002/adma.201004200,80,1(a),324,Na0.007Pb0.993Se1,Na0.007Pb0.993Se1,771.5,0.004672,0.000020489,0.00018032,1.1865,0.93457,48806.6767533799,0.0015869639,0.0013375169
6006,10.1002/adma.201004200,80,1(a),324,Na0.007Pb0.993Se1,Na0.007Pb0.993Se1,772,0.0046571,0.000020532,0.00018052,1.1856,0.93576,48704.4613286577,0.0015871552,0.0013386937
6006,10.1002/adma.201004200,80,1(a),324,Na0.007Pb0.993Se1,Na0.007Pb0.993Se1,772.5,0.0046423,0.000020576,0.00018072,1.1847,0.93695,48600.3110419907,0.0015872725,0.0013398096
6006,10.1002/adma.201004200,80,1(a),324,Na0.007Pb0.993Se1,Na0.007Pb0.993Se1,773,0.0046275,0.00002062,0.00018092,1.1838,0.93813,48496.6052376334,0.0015873931,0.0013409302
6006,10.1002/adma.201004200,80,1(a),324,Na0.007Pb0.993Se1,Na0.007Pb0.993Se1,773.5,0.0046127,0.000020664,0.00018112,1.1829,0.93932,48393.3410762679,0.0015875172,0.0013420552
6006,10.1002/adma.201004200,80,1(a),324,Na0.007Pb0.993Se1,Na0.007Pb0.993Se1,774,0.0045978,0.000020707,0.00018132,1.182,0.94051,48292.8478292365,0.0015877212,0.0013432497
6006,10.1002/adma.201004200,80,1(a),324,Na0.007Pb0.993Se1,Na0.007Pb0.993Se1,774.5,0.004583,0.000020751,0.00018152,1.1812,0.9417,48190.448653077,0.0015878517,0.00134427
6006,10.1002/adma.201004200,80,1(a),324,Na0.007Pb0.993Se1,Na0.007Pb0.993Se1,775,0.0045682,0.000020795,0.00018172,1.1803,0.94289,48088.4828083674,0.0015879855,0.0013454084
6006,10.1002/adma.201004200,80,1(a),324,Na0.007Pb0.993Se1,Na0.007Pb0.993Se1,775.5,0.0045533,0.00002084,0.00018192,1.1794,0.94408,47984.6449136276,0.0015880464,0.0013464867
6006,10.1002/adma.201004200,80,1(a),324,Na0.007Pb0.993Se1,Na0.007Pb0.993Se1,776,0.0045385,0.000020884,0.00018212,1.1786,0.94526,47883.5472131776,0.0015881869,0.0013475198
6006,10.1002/adma.201004200,80,1(a),324,Na0.007Pb0.993Se1,Na0.007Pb0.993Se1,776.5,0.0045237,0.000020928,0.00018232,1.1777,0.94645,47782.874617737,0.0015883306,0.0013486716
6006,10.1002/adma.201004200,80,1(a),324,Na0.007Pb0.993Se1,Na0.007Pb0.993Se1,777,0.0045089,0.000020973,0.00018252,1.1768,0.94764,47680.3509273828,0.0015884018,0.0013497636
6006,10.1002/adma.201004200,80,1(a),324,Na0.007Pb0.993Se1,Na0.007Pb0.993Se1,777.5,0.004494,0.000021017,0.00018272,1.176,0.94883,47580.5300471047,0.001588552,0.0013508096
6006,10.1002/adma.201004200,80,1(a),324,Na0.007Pb0.993Se1,Na0.007Pb0.993Se1,778,0.0044792,0.000021062,0.00018291,1.1751,0.95002,47478.8719020036,0.0015884564,0.0013517627
6006,10.1002/adma.201004200,80,1(a),324,Na0.007Pb0.993Se1,Na0.007Pb0.993Se1,778.5,0.0044644,0.000021106,0.00018311,1.1743,0.95121,47379.8919738463,0.0015886133,0.0013528172
6006,10.1002/adma.201004200,80,1(a),324,Na0.007Pb0.993Se1,Na0.007Pb0.993Se1,779,0.0044496,0.000021151,0.00018331,1.1734,0.95239,47279.0884591745,0.0015886982,0.0013539272
6006,10.1002/adma.201004200,80,1(a),324,Na0.007Pb0.993Se1,Na0.007Pb0.993Se1,779.5,0.0044347,0.000021196,0.00018351,1.1726,0.95358,47178.7129647103,0.0015887866,0.0013549263
6006,10.1002/adma.201004200,80,1(a),324,Na0.007Pb0.993Se1,Na0.007Pb0.993Se1,780,0.0044199,0.000021241,0.00018371,1.1718,0.95477,47078.7627701144,0.0015888783,0.0013559296
6006,10.1002/adma.201004200,80,1(a),324,Na0.007Pb0.993Se1,Na0.007Pb0.993Se1,780.5,0.0044051,0.000021286,0.0001839,1.1709,0.95596,46979.2351780513,0.0015888006,0.0013569055
6006,10.1002/adma.201004200,80,1(a),324,Na0.007Pb0.993Se1,Na0.007Pb0.993Se1,781,0.0043902,0.000021331,0.0001841,1.1701,0.95715,46880.1275139468,0.0015888993,0.0013579175
6006,10.1002/adma.201004200,80,1(a),324,Na0.007Pb0.993Se1,Na0.007Pb0.993Se1,781.5,0.0043754,0.000021376,0.0001843,1.1692,0.95834,46781.4371257485,0.0015890012,0.00135905
6006,10.1002/adma.201004200,80,1(a),324,Na0.007Pb0.993Se1,Na0.007Pb0.993Se1,782,0.0043606,0.000021421,0.0001845,1.1684,0.95952,46683.1613836889,0.0015891065,0.0013600706
6006,10.1002/adma.201004200,80,1(a),324,Na0.007Pb0.993Se1,Na0.007Pb0.993Se1,782.5,0.0043458,0.000021467,0.00018469,1.1676,0.96071,46583.1275911865,0.0015889689,0.0013608847
6006,10.1002/adma.201004200,80,1(a),324,Na0.007Pb0.993Se1,Na0.007Pb0.993Se1,783,0.0043309,0.000021512,0.00018489,1.1668,0.9619,46485.6824098178,0.0015890811,0.0013619138
6006,10.1002/adma.201004200,80,1(a),324,Na0.007Pb0.993Se1,Na0.007Pb0.993Se1,783.5,0.0043161,0.000021558,0.00018509,1.166,0.96309,46386.4922534558,0.0015891227,0.001362884
6006,10.1002/adma.201004200,80,1(a),324,Na0.007Pb0.993Se1,Na0.007Pb0.993Se1,784,0.0043013,0.000021603,0.00018528,1.1651,0.96428,46289.8671480813,0.00158907,0.0013638915
6006,10.1002/adma.201004200,80,1(a),324,Na0.007Pb0.993Se1,Na0.007Pb0.993Se1,784.5,0.0042864,0.000021649,0.00018548,1.1643,0.96547,46191.5100004619,0.0015891187,0.0013648705
6006,10.1002/adma.201004200,80,1(a),324,Na0.007Pb0.993Se1,Na0.007Pb0.993Se1,785,0.0042716,0.000021695,0.00018568,1.1635,0.96665,46093.5699469924,0.0015891709,0.0013658538
6006,10.1002/adma.201004200,80,1(a),324,Na0.007Pb0.993Se1,Na0.007Pb0.993Se1,785.5,0.0042568,0.00002174,0.00018587,1.1627,0.96784,45998.1600735971,0.0015891287,0.0013667572
6006,10.1002/adma.201004200,80,1(a),324,Na0.007Pb0.993Se1,Na0.007Pb0.993Se1,786,0.004242,0.000021786,0.00018607,1.1619,0.96903,45901.0373634444,0.0015891878,0.0013677492
6006,10.1002/adma.201004200,80,1(a),324,Na0.007Pb0.993Se1,Na0.007Pb0.993Se1,786.5,0.0042271,0.000021832,0.00018626,1.1611,0.97022,45804.3239281788,0.0015890797,0.0013685985
6006,10.1002/adma.201004200,80,1(a),324,Na0.007Pb0.993Se1,Na0.007Pb0.993Se1,787,0.0042123,0.000021878,0.00018646,1.1603,0.97141,45708.0171862145,0.0015891458,0.0013695991
6006,10.1002/adma.201004200,80,1(a),324,Na0.007Pb0.993Se1,Na0.007Pb0.993Se1,787.5,0.0041975,0.000021925,0.00018665,1.1595,0.9726,45610.0342075257,0.0015889725,0.0013703946
6006,10.1002/adma.201004200,80,1(a),324,Na0.007Pb0.993Se1,Na0.007Pb0.993Se1,788,0.0041827,0.000021971,0.00018685,1.1587,0.97378,45514.5418961358,0.0015890457,0.0013714039
6006,10.1002/adma.201004200,80,1(a),324,Na0.007Pb0.993Se1,Na0.007Pb0.993Se1,788.5,0.0041678,0.000022017,0.00018704,1.1579,0.97497,45419.4486078939,0.0015889522,0.0013722707
6006,10.1002/adma.201004200,80,1(a),324,Na0.007Pb0.993Se1,Na0.007Pb0.993Se1,789,0.004153,0.000022064,0.00018724,1.1571,0.97616,45322.6976069616,0.0015889602,0.0013732263
6006,10.1002/adma.201004200,80,1(a),324,Na0.007Pb0.993Se1,Na0.007Pb0.993Se1,789.5,0.0041382,0.00002211,0.00018743,1.1563,0.97735,45228.4034373587,0.001588874,0.0013741019
6006,10.1002/adma.201004200,80,1(a),324,Na0.007Pb0.993Se1,Na0.007Pb0.993Se1,790,0.0041233,0.000022157,0.00018763,1.1556,0.97854,45132.4637811978,0.0015888892,0.0013749473
6006,10.1002/adma.201004200,80,1(a),324,Na0.007Pb0.993Se1,Na0.007Pb0.993Se1,790.5,0.0041085,0.000022204,0.00018782,1.1548,0.97973,45036.9302828319,0.0015887386,0.0013757695
6006,10.1002/adma.201004200,80,1(a),324,Na0.007Pb0.993Se1,Na0.007Pb0.993Se1,791,0.0040937,0.00002225,0.00018802,1.154,0.98091,44943.8202247191,0.0015888324,0.0013768045
6006,10.1002/adma.201004200,80,1(a),324,Na0.007Pb0.993Se1,Na0.007Pb0.993Se1,791.5,0.0040789,0.000022297,0.00018821,1.1532,0.9821,44849.082836256,0.0015886892,0.0013776355
6006,10.1002/adma.201004200,80,1(a),324,Na0.007Pb0.993Se1,Na0.007Pb0.993Se1,792,0.004064,0.000022344,0.0001884,1.1525,0.98329,44754.7440028643,0.0015885499,0.0013783514
6006,10.1002/adma.201004200,80,1(a),324,Na0.007Pb0.993Se1,Na0.007Pb0.993Se1,792.5,0.0040492,0.000022391,0.0001886,1.1517,0.98448,44660.8012147738,0.0015885829,0.0013793374
6006,10.1002/adma.201004200,80,1(a),324,Na0.007Pb0.993Se1,Na0.007Pb0.993Se1,793,0.0040344,0.000022438,0.00018879,1.1509,0.98567,44567.2519832427,0.001588451,0.0013801816
6006,10.1002/adma.201004200,80,1(a),324,Na0.007Pb0.993Se1,Na0.007Pb0.993Se1,793.5,0.0040195,0.000022486,0.00018898,1.1502,0.98686,44472.1159832785,0.0015882523,0.0013808488
6006,10.1002/adma.201004200,80,1(a),324,Na0.007Pb0.993Se1,Na0.007Pb0.993Se1,794,0.0040047,0.000022533,0.00018918,1.1494,0.98804,44379.3547241823,0.0015882959,0.0013818479
6006,10.1002/adma.201004200,80,1(a),324,Na0.007Pb0.993Se1,Na0.007Pb0.993Se1,794.5,0.0039899,0.00002258,0.00018937,1.1486,0.98923,44286.9796279894,0.0015881752,0.0013827052
6006,10.1002/adma.201004200,80,1(a),324,Na0.007Pb0.993Se1,Na0.007Pb0.993Se1,795,0.0039751,0.000022628,0.00018956,1.1479,0.99042,44193.035177656,0.0015879881,0.0013833854
6006,10.1002/adma.201004200,80,1(a),324,Na0.007Pb0.993Se1,Na0.007Pb0.993Se1,795.5,0.0039602,0.000022675,0.00018975,1.1471,0.99161,44101.4332965821,0.0015878749,0.0013842515
6006,10.1002/adma.201004200,80,1(a),324,Na0.007Pb0.993Se1,Na0.007Pb0.993Se1,796,0.0039454,0.000022723,0.00018994,1.1464,0.9928,44008.2735554284,0.0015876954,0.0013849402
6006,10.1002/adma.201004200,80,1(a),324,Na0.007Pb0.993Se1,Na0.007Pb0.993Se1,796.5,0.0039306,0.000022771,0.00019014,1.1456,0.99399,43915.5065653682,0.001587687,0.0013858999
6006,10.1002/adma.201004200,80,1(a),324,Na0.007Pb0.993Se1,Na0.007Pb0.993Se1,797,0.0039157,0.000022819,0.00019033,1.1449,0.99517,43823.1298479337,0.0015875152,0.0013865972
6006,10.1002/adma.201004200,80,1(a),324,Na0.007Pb0.993Se1,Na0.007Pb0.993Se1,797.5,0.0039009,0.000022867,0.00019052,1.1442,0.99636,43731.1409454673,0.0015873473,0.0013872988
6006,10.1002/adma.201004200,80,1(a),324,Na0.007Pb0.993Se1,Na0.007Pb0.993Se1,798,0.0038861,0.000022915,0.00019071,1.1434,0.99755,43639.5374209033,0.0015871832,0.001388126
6006,10.1002/adma.201004200,80,1(a),324,Na0.007Pb0.993Se1,Na0.007Pb0.993Se1,798.5,0.0038713,0.000022963,0.0001909,1.1427,0.99874,43548.3168575535,0.001587023,0.0013888361
6006,10.1002/adma.201004200,80,1(a),324,Na0.007Pb0.993Se1,Na0.007Pb0.993Se1,799,0.0038564,0.000023011,0.00019109,1.1419,0.99993,43457.4768588936,0.0015868666,0.0013896722
6006,10.1002/adma.201004200,80,1(a),324,Na0.007Pb0.993Se1,Na0.007Pb0.993Se1,799.5,0.0038416,0.000023059,0.00019128,1.1412,1.0011,43367.0150483542,0.001586714,0.0013903908
6006,10.1002/adma.201004200,80,1(a),324,Na0.007Pb0.993Se1,Na0.007Pb0.993Se1,800,0.0038268,0.000023107,0.00019147,1.1405,1.0023,43276.9290691133,0.0015865651,0.0013911137
6006,10.1002/adma.201004200,80,1(a),324,Na0.007Pb0.993Se1,Na0.007Pb0.993Se1,800.5,0.003812,0.000023156,0.00019166,1.1398,1.0035,43185.3515287614,0.0015863515,0.0013917806
6006,10.1002/adma.201004200,80,1(a),324,Na0.007Pb0.993Se1,Na0.007Pb0.993Se1,801,0.0037971,0.000023204,0.00019185,1.139,1.0047,43096.0179279435,0.0015862102,0.0013926341
6006,10.1002/adma.201004200,80,1(a),324,Na0.007Pb0.993Se1,Na0.007Pb0.993Se1,801.5,0.0037823,0.000023253,0.00019204,1.1383,1.0059,43005.2036296392,0.0015860045,0.0013933097
6006,10.1002/adma.201004200,80,1(a),324,Na0.007Pb0.993Se1,Na0.007Pb0.993Se1,802,0.0037675,0.000023302,0.00019223,1.1376,1.0071,42914.7712642692,0.0015858026,0.0013939897
6006,10.1002/adma.201004200,80,1(a),324,Na0.007Pb0.993Se1,Na0.007Pb0.993Se1,802.5,0.0037526,0.00002335,0.00019242,1.1369,1.0082,42826.5524625268,0.0015856727,0.0013947336
6006,10.1002/adma.201004200,80,1(a),324,Na0.007Pb0.993Se1,Na0.007Pb0.993Se1,803,0.0037378,0.000023399,0.00019261,1.1362,1.0094,42736.86909697,0.0015854785,0.001395422
6006,10.1002/adma.201004200,80,1(a),324,Na0.007Pb0.993Se1,Na0.007Pb0.993Se1,803.5,0.003723,0.000023448,0.0001928,1.1355,1.0106,42647.560559536,0.0015852883,0.0013961147
6006,10.1002/adma.201004200,80,1(a),324,Na0.007Pb0.993Se1,Na0.007Pb0.993Se1,804,0.0037082,0.000023497,0.00019298,1.1348,1.0118,42558.624505256,0.0015849377,0.001396667
6006,10.1002/adma.201004200,80,1(a),324,Na0.007Pb0.993Se1,Na0.007Pb0.993Se1,804.5,0.0036933,0.000023546,0.00019317,1.1341,1.013,42470.0586086809,0.0015847553,0.0013973682
6006,10.1002/adma.201004200,80,1(a),324,Na0.007Pb0.993Se1,Na0.007Pb0.993Se1,805,0.0036785,0.000023595,0.00019336,1.1334,1.0142,42381.8605636787,0.0015845768,0.0013980738
6006,10.1002/adma.201004200,80,1(a),324,Na0.007Pb0.993Se1,Na0.007Pb0.993Se1,805.5,0.0036637,0.000023645,0.00019355,1.1327,1.0154,42292.2393740749,0.0015843351,0.0013987243
6006,10.1002/adma.201004200,80,1(a),324,Na0.007Pb0.993Se1,Na0.007Pb0.993Se1,806,0.0036488,0.000023694,0.00019373,1.132,1.0166,42204.7775808221,0.0015840007,0.0013992939
6006,10.1002/adma.201004200,80,1(a),324,Na0.007Pb0.993Se1,Na0.007Pb0.993Se1,806.5,0.003634,0.000023744,0.00019392,1.1313,1.0178,42115.9029649596,0.0015837671,0.0013999533
6006,10.1002/adma.201004200,80,1(a),324,Na0.007Pb0.993Se1,Na0.007Pb0.993Se1,807,0.0036192,0.000023793,0.00019411,1.1306,1.0189,42029.1682427605,0.0015836041,0.0014006758
6006,10.1002/adma.201004200,80,1(a),324,Na0.007Pb0.993Se1,Na0.007Pb0.993Se1,807.5,0.0036044,0.000023843,0.00019429,1.1299,1.0201,41941.0309105398,0.0015832154,0.0014011995
6006,10.1002/adma.201004200,80,1(a),324,Na0.007Pb0.993Se1,Na0.007Pb0.993Se1,808,0.0035895,0.000023892,0.00019448,1.1292,1.0213,41855.0142307048,0.00158306,0.0014019306
6006,10.1002/adma.201004200,80,1(a),324,Na0.007Pb0.993Se1,Na0.007Pb0.993Se1,808.5,0.0035747,0.000023942,0.00019467,1.1285,1.0225,41767.6050455267,0.0015828422,0.0014026072
6006,10.1002/adma.201004200,80,1(a),324,Na0.007Pb0.993Se1,Na0.007Pb0.993Se1,809,0.0035599,0.000023992,0.00019485,1.1278,1.0237,41680.5601867289,0.0015824659,0.0014031441