sid,DOI,figureid,fignum,sampleid,samplename,composition,Temperature,Carrier mobility,Electrical resistivity,Seebeck coefficient,Thermal conductivity,ZT,Electrical conductivity,Power factor,Figure of merit Z
6006,10.1002/adma.201004200,80,1(a),147,Na0.0035Pb0.9965Se1,Na0.0035Pb0.9965Se1,824,0.0040977,0.000049695,0.00024572,1.0585,1.1215,20122.7487674816,0.0012149777,0.0011478297
6006,10.1002/adma.201004200,80,1(a),147,Na0.0035Pb0.9965Se1,Na0.0035Pb0.9965Se1,824.5,0.0040736,0.000049809,0.00024576,1.0586,1.1225,20076.6929671345,0.0012125917,0.0011454673
6006,10.1002/adma.201004200,80,1(a),147,Na0.0035Pb0.9965Se1,Na0.0035Pb0.9965Se1,825,0.0040494,0.000049923,0.00024581,1.0586,1.1235,20030.8475051579,0.001210315,0.0011433167
6006,10.1002/adma.201004200,80,1(a),147,Na0.0035Pb0.9965Se1,Na0.0035Pb0.9965Se1,825.5,0.0040252,0.000050037,0.00024585,1.0587,1.1245,19985.2109439015,0.0012079506,0.0011409753
6006,10.1002/adma.201004200,80,1(a),147,Na0.0035Pb0.9965Se1,Na0.0035Pb0.9965Se1,826,0.004001,0.000050151,0.0002459,1.0588,1.1255,19939.7818587865,0.001205695,0.0011387373
6006,10.1002/adma.201004200,80,1(a),147,Na0.0035Pb0.9965Se1,Na0.0035Pb0.9965Se1,826.5,0.0039768,0.000050266,0.00024594,1.0588,1.1265,19894.1630525604,0.001203328,0.0011365017
6006,10.1002/adma.201004200,80,1(a),147,Na0.0035Pb0.9965Se1,Na0.0035Pb0.9965Se1,827,0.0039527,0.00005038,0.00024598,1.0589,1.1275,19849.1464867011,0.0012009956,0.0011341917
6006,10.1002/adma.201004200,80,1(a),147,Na0.0035Pb0.9965Se1,Na0.0035Pb0.9965Se1,827.5,0.0039285,0.000050495,0.00024602,1.059,1.1285,19803.9409842559,0.0011986502,0.0011318699
6006,10.1002/adma.201004200,80,1(a),147,Na0.0035Pb0.9965Se1,Na0.0035Pb0.9965Se1,828,0.0039043,0.00005061,0.00024605,1.059,1.1295,19758.9409207666,0.0011962182,0.0011295734
6006,10.1002/adma.201004200,80,1(a),147,Na0.0035Pb0.9965Se1,Na0.0035Pb0.9965Se1,828.5,0.0038801,0.000050725,0.00024609,1.0591,1.1305,19714.144898965,0.0011938943,0.0011272725
6006,10.1002/adma.201004200,80,1(a),147,Na0.0035Pb0.9965Se1,Na0.0035Pb0.9965Se1,829,0.003856,0.00005084,0.00024612,1.0592,1.1314,19669.551534225,0.0011914842,0.0011248906
6006,10.1002/adma.201004200,80,1(a),147,Na0.0035Pb0.9965Se1,Na0.0035Pb0.9965Se1,829.5,0.0038318,0.000050956,0.00024615,1.0592,1.1324,19624.7743150954,0.0011890616,0.0011226035
6006,10.1002/adma.201004200,80,1(a),147,Na0.0035Pb0.9965Se1,Na0.0035Pb0.9965Se1,830,0.0038076,0.000051072,0.00024618,1.0593,1.1334,19580.2005012531,0.0011866501,0.001120221
6006,10.1002/adma.201004200,80,1(a),147,Na0.0035Pb0.9965Se1,Na0.0035Pb0.9965Se1,830.5,0.0037834,0.000051188,0.00024621,1.0594,1.1344,19535.8287098539,0.0011842495,0.0011178493
6006,10.1002/adma.201004200,80,1(a),147,Na0.0035Pb0.9965Se1,Na0.0035Pb0.9965Se1,831,0.0037593,0.000051304,0.00024624,1.0594,1.1354,19491.6575705598,0.0011818598,0.0011155936
6006,10.1002/adma.201004200,80,1(a),147,Na0.0035Pb0.9965Se1,Na0.0035Pb0.9965Se1,831.5,0.0037351,0.00005142,0.00024626,1.0595,1.1364,19447.6857253987,0.0011793852,0.0011131526
6006,10.1002/adma.201004200,80,1(a),147,Na0.0035Pb0.9965Se1,Na0.0035Pb0.9965Se1,832,0.0037109,0.000051537,0.00024628,1.0595,1.1374,19403.5353241361,0.0011768989,0.0011108059
6006,10.1002/adma.201004200,80,1(a),147,Na0.0035Pb0.9965Se1,Na0.0035Pb0.9965Se1,832.5,0.0036867,0.000051653,0.0002463,1.0596,1.1384,19359.9597312838,0.0011744466,0.0011083867
6006,10.1002/adma.201004200,80,1(a),147,Na0.0035Pb0.9965Se1,Na0.0035Pb0.9965Se1,833,0.0036625,0.00005177,0.00024632,1.0597,1.1394,19316.2062970833,0.0011719827,0.001105957
6006,10.1002/adma.201004200,80,1(a),147,Na0.0035Pb0.9965Se1,Na0.0035Pb0.9965Se1,833.5,0.0036384,0.000051887,0.00024634,1.0597,1.1404,19272.6501821265,0.0011695299,0.0011036424
6006,10.1002/adma.201004200,80,1(a),147,Na0.0035Pb0.9965Se1,Na0.0035Pb0.9965Se1,834,0.0036142,0.000052005,0.00024636,1.0598,1.1414,19228.9202961254,0.0011670657,0.0011012131
6006,10.1002/adma.201004200,80,1(a),147,Na0.0035Pb0.9965Se1,Na0.0035Pb0.9965Se1,834.5,0.00359,0.000052122,0.00024637,1.0599,1.1424,19185.7564943786,0.0011645404,0.0010987267
6006,10.1002/adma.201004200,80,1(a),147,Na0.0035Pb0.9965Se1,Na0.0035Pb0.9965Se1,835,0.0035658,0.00005224,0.00024639,1.0599,1.1434,19142.4196018377,0.0011620986,0.0010964229
6006,10.1002/adma.201004200,80,1(a),147,Na0.0035Pb0.9965Se1,Na0.0035Pb0.9965Se1,835.5,0.0035417,0.000052358,0.0002464,1.06,1.1444,19099.2780472898,0.0011595737,0.0010939375
6006,10.1002/adma.201004200,80,1(a),147,Na0.0035Pb0.9965Se1,Na0.0035Pb0.9965Se1,836,0.0035175,0.000052476,0.00024641,1.0601,1.1454,19056.3305129964,0.0011570601,0.0010914632
6006,10.1002/adma.201004200,80,1(a),147,Na0.0035Pb0.9965Se1,Na0.0035Pb0.9965Se1,836.5,0.0034933,0.000052594,0.00024641,1.0601,1.1464,19013.5756930448,0.0011544642,0.0010890144
6006,10.1002/adma.201004200,80,1(a),147,Na0.0035Pb0.9965Se1,Na0.0035Pb0.9965Se1,837,0.0034691,0.000052712,0.00024642,1.0602,1.1474,18971.012293216,0.0011519733,0.0010865622
6006,10.1002/adma.201004200,80,1(a),147,Na0.0035Pb0.9965Se1,Na0.0035Pb0.9965Se1,837.5,0.003445,0.000052831,0.00024642,1.0602,1.1484,18928.28074426,0.0011493785,0.0010841148
6006,10.1002/adma.201004200,80,1(a),147,Na0.0035Pb0.9965Se1,Na0.0035Pb0.9965Se1,838,0.0034208,0.00005295,0.00024642,1.0603,1.1494,18885.7412653447,0.0011467954,0.0010815763
6006,10.1002/adma.201004200,80,1(a),147,Na0.0035Pb0.9965Se1,Na0.0035Pb0.9965Se1,838.5,0.0033966,0.000053069,0.00024642,1.0603,1.1504,18843.3925643973,0.0011442239,0.0010791511
6006,10.1002/adma.201004200,80,1(a),147,Na0.0035Pb0.9965Se1,Na0.0035Pb0.9965Se1,839,0.0033724,0.000053188,0.00024642,1.0604,1.1514,18801.2333609085,0.0011416638,0.0010766351
6006,10.1002/adma.201004200,80,1(a),147,Na0.0035Pb0.9965Se1,Na0.0035Pb0.9965Se1,839.5,0.0033482,0.000053307,0.00024642,1.0605,1.1524,18759.262385803,0.0011391152,0.0010741304
6006,10.1002/adma.201004200,80,1(a),147,Na0.0035Pb0.9965Se1,Na0.0035Pb0.9965Se1,840,0.0033241,0.000053427,0.00024641,1.0605,1.1534,18717.1280438729,0.0011364645,0.0010716308
6006,10.1002/adma.201004200,80,1(a),147,Na0.0035Pb0.9965Se1,Na0.0035Pb0.9965Se1,840.5,0.0032999,0.000053547,0.0002464,1.0606,1.1544,18675.1825499094,0.0011338256,0.0010690417
6006,10.1002/adma.201004200,80,1(a),147,Na0.0035Pb0.9965Se1,Na0.0035Pb0.9965Se1,841,0.0032757,0.000053667,0.0002464,1.0606,1.1554,18633.4246371141,0.0011312904,0.0010666513
6006,10.1002/adma.201004200,80,1(a),147,Na0.0035Pb0.9965Se1,Na0.0035Pb0.9965Se1,841.5,0.0032515,0.000053787,0.00024638,1.0607,1.1564,18591.8530499935,0.0011285832,0.0010639985
6006,10.1002/adma.201004200,80,1(a),147,Na0.0035Pb0.9965Se1,Na0.0035Pb0.9965Se1,842,0.0032274,0.000053907,0.00024637,1.0607,1.1573,18550.4665442336,0.0011259795,0.0010615438
6006,10.1002/adma.201004200,80,1(a),147,Na0.0035Pb0.9965Se1,Na0.0035Pb0.9965Se1,842.5,0.0032032,0.000054028,0.00024635,1.0608,1.1583,18508.9213000666,0.0011232754,0.0010588946
6006,10.1002/adma.201004200,80,1(a),147,Na0.0035Pb0.9965Se1,Na0.0035Pb0.9965Se1,843,0.003179,0.000054148,0.00024634,1.0608,1.1593,18467.9027849597,0.0011206951,0.0010564622
6006,10.1002/adma.201004200,80,1(a),147,Na0.0035Pb0.9965Se1,Na0.0035Pb0.9965Se1,843.5,0.0031548,0.000054269,0.00024632,1.0609,1.1603,18426.7261235696,0.0011180147,0.0010538361
6006,10.1002/adma.201004200,80,1(a),147,Na0.0035Pb0.9965Se1,Na0.0035Pb0.9965Se1,844,0.0031307,0.00005439,0.0002463,1.0609,1.1613,18385.732671447,0.0011153464,0.0010513209
6006,10.1002/adma.201004200,80,1(a),147,Na0.0035Pb0.9965Se1,Na0.0035Pb0.9965Se1,844.5,0.0031065,0.000054512,0.00024627,1.061,1.1623,18344.5846786029,0.0011125791,0.0010486137
6006,10.1002/adma.201004200,80,1(a),147,Na0.0035Pb0.9965Se1,Na0.0035Pb0.9965Se1,845,0.0030823,0.000054633,0.00024625,1.061,1.1633,18303.9554847803,0.0011099347,0.0010461213
6006,10.1002/adma.201004200,80,1(a),147,Na0.0035Pb0.9965Se1,Na0.0035Pb0.9965Se1,845.5,0.0030581,0.000054755,0.00024622,1.0611,1.1643,18263.1723130308,0.0011071918,0.0010434378
6006,10.1002/adma.201004200,80,1(a),147,Na0.0035Pb0.9965Se1,Na0.0035Pb0.9965Se1,846,0.0030339,0.000054876,0.00024619,1.0611,1.1653,18222.9025439172,0.0011044813,0.0010408833
6006,10.1002/adma.201004200,80,1(a),147,Na0.0035Pb0.9965Se1,Na0.0035Pb0.9965Se1,846.5,0.0030098,,0.00024616,1.0612,1.1663,,,
6006,10.1002/adma.201004200,80,1(a),147,Na0.0035Pb0.9965Se1,Na0.0035Pb0.9965Se1,847,0.0029856,,0.00024613,1.0612,1.1673,,,
6006,10.1002/adma.201004200,80,1(a),147,Na0.0035Pb0.9965Se1,Na0.0035Pb0.9965Se1,847.5,0.0029614,,0.00024609,1.0612,1.1683,,,
6006,10.1002/adma.201004200,80,1(a),147,Na0.0035Pb0.9965Se1,Na0.0035Pb0.9965Se1,848,0.0029372,,0.00024605,1.0613,1.1693,,,
6006,10.1002/adma.201004200,80,1(a),147,Na0.0035Pb0.9965Se1,Na0.0035Pb0.9965Se1,848.5,0.0029131,,0.00024601,1.0613,1.1703,,,
6006,10.1002/adma.201004200,80,1(a),147,Na0.0035Pb0.9965Se1,Na0.0035Pb0.9965Se1,849,0.0028889,,0.00024597,,1.1713,,,
6006,10.1002/adma.201004200,80,1(a),147,Na0.0035Pb0.9965Se1,Na0.0035Pb0.9965Se1,849.5,0.0028647,,0.00024593,,1.1723,,,
6006,10.1002/adma.201004200,19,3(a),147,Na0.0035Pb0.9965Se1,Na0.0035Pb0.9965Se1,299.5,0.029459,0.0000060601,,3.1363,,165013.7786505173,,
6006,10.1002/adma.201004200,19,3(a),147,Na0.0035Pb0.9965Se1,Na0.0035Pb0.9965Se1,300,0.029435,0.0000060609,,3.1287,,164991.9978881024,,
6006,10.1002/adma.201004200,19,3(a),147,Na0.0035Pb0.9965Se1,Na0.0035Pb0.9965Se1,300.5,0.029411,0.0000060618,,3.1211,,164967.5014022237,,
6006,10.1002/adma.201004200,19,3(a),147,Na0.0035Pb0.9965Se1,Na0.0035Pb0.9965Se1,301,0.029387,0.0000060628,,3.1136,,164940.2916144356,,
6006,10.1002/adma.201004200,19,3(a),147,Na0.0035Pb0.9965Se1,Na0.0035Pb0.9965Se1,301.5,0.029362,0.000006064,,3.1061,,164907.6517150396,,
6006,10.1002/adma.201004200,19,3(a),147,Na0.0035Pb0.9965Se1,Na0.0035Pb0.9965Se1,302,0.029338,0.0000060652,,3.0986,,164875.0247312537,,
6006,10.1002/adma.201004200,19,3(a),147,Na0.0035Pb0.9965Se1,Na0.0035Pb0.9965Se1,302.5,0.029314,0.0000060665,,3.0912,,164839.6933981703,,
6006,10.1002/adma.201004200,19,3(a),147,Na0.0035Pb0.9965Se1,Na0.0035Pb0.9965Se1,303,0.02929,0.000006068,,3.0838,,164798.9452867502,,
6006,10.1002/adma.201004200,19,3(a),147,Na0.0035Pb0.9965Se1,Na0.0035Pb0.9965Se1,303.5,0.029266,0.0000060695,,3.0764,0.08453,164758.2173160886,,
6006,10.1002/adma.201004200,19,3(a),147,Na0.0035Pb0.9965Se1,Na0.0035Pb0.9965Se1,304,0.029242,0.0000060712,,3.069,0.085526,164712.0832784293,,
6006,10.1002/adma.201004200,19,3(a),147,Na0.0035Pb0.9965Se1,Na0.0035Pb0.9965Se1,304.5,0.029217,0.0000060729,,3.0617,0.086522,164665.9750695714,,
6006,10.1002/adma.201004200,19,3(a),147,Na0.0035Pb0.9965Se1,Na0.0035Pb0.9965Se1,305,0.029193,0.0000060748,,3.0545,0.087518,164614.4729044578,,
6006,10.1002/adma.201004200,19,3(a),147,Na0.0035Pb0.9965Se1,Na0.0035Pb0.9965Se1,305.5,0.029169,0.0000060767,,3.0472,0.088514,164563.0029456778,,
6006,10.1002/adma.201004200,19,3(a),147,Na0.0035Pb0.9965Se1,Na0.0035Pb0.9965Se1,306,0.029145,0.0000060788,,3.04,0.08951,164506.1525301046,,
6006,10.1002/adma.201004200,19,3(a),147,Na0.0035Pb0.9965Se1,Na0.0035Pb0.9965Se1,306.5,0.029121,0.0000060809,,3.0328,0.090506,164449.3413803878,,
6006,10.1002/adma.201004200,19,3(a),147,Na0.0035Pb0.9965Se1,Na0.0035Pb0.9965Se1,307,0.029097,0.0000060832,,3.0256,0.091502,164387.1646501841,,
6006,10.1002/adma.201004200,19,3(a),147,Na0.0035Pb0.9965Se1,Na0.0035Pb0.9965Se1,307.5,0.029072,0.0000060855,,3.0185,0.092499,164325.0349190699,,
6006,10.1002/adma.201004200,19,3(a),147,Na0.0035Pb0.9965Se1,Na0.0035Pb0.9965Se1,308,0.029048,0.000006088,,3.0114,0.093495,164257.555847569,,
6006,10.1002/adma.201004200,19,3(a),147,Na0.0035Pb0.9965Se1,Na0.0035Pb0.9965Se1,308.5,0.029024,0.0000060905,,3.0043,0.094491,164190.1321730564,,
6006,10.1002/adma.201004200,19,3(a),147,Na0.0035Pb0.9965Se1,Na0.0035Pb0.9965Se1,309,0.029,0.0000060932,,2.9973,0.095487,164117.37674785,,
6006,10.1002/adma.201004200,19,3(a),147,Na0.0035Pb0.9965Se1,Na0.0035Pb0.9965Se1,309.5,0.028976,0.0000060959,,2.9903,0.096483,164044.6857724044,,
6006,10.1002/adma.201004200,19,3(a),147,Na0.0035Pb0.9965Se1,Na0.0035Pb0.9965Se1,310,0.028951,0.0000060987,,2.9833,0.097479,163969.3705215866,,
6006,10.1002/adma.201004200,19,3(a),147,Na0.0035Pb0.9965Se1,Na0.0035Pb0.9965Se1,310.5,0.028927,0.0000061017,,2.9764,0.098475,163888.7523149286,,
6006,10.1002/adma.201004200,19,3(a),147,Na0.0035Pb0.9965Se1,Na0.0035Pb0.9965Se1,311,0.028903,0.0000061047,,2.9695,0.099471,163808.213343817,,
6006,10.1002/adma.201004200,19,3(a),147,Na0.0035Pb0.9965Se1,Na0.0035Pb0.9965Se1,311.5,0.028879,0.0000061078,,2.9626,0.10047,163725.0728576574,,
6006,10.1002/adma.201004200,19,3(a),147,Na0.0035Pb0.9965Se1,Na0.0035Pb0.9965Se1,312,0.028855,0.000006111,,2.9557,0.10146,163639.3388970709,,
6006,10.1002/adma.201004200,19,3(a),147,Na0.0035Pb0.9965Se1,Na0.0035Pb0.9965Se1,312.5,0.028831,0.0000061143,,2.9489,0.10246,163551.0197406081,,
6006,10.1002/adma.201004200,19,3(a),147,Na0.0035Pb0.9965Se1,Na0.0035Pb0.9965Se1,313,0.028806,0.0000061177,,2.9421,0.10346,163460.1239027739,,
6006,10.1002/adma.201004200,19,3(a),147,Na0.0035Pb0.9965Se1,Na0.0035Pb0.9965Se1,313.5,0.028782,0.0000061212,,2.9353,0.10445,163366.6601320003,,
6006,10.1002/adma.201004200,19,3(a),147,Na0.0035Pb0.9965Se1,Na0.0035Pb0.9965Se1,314,0.028758,0.0000061248,,2.9285,0.10545,163270.6374085684,,
6006,10.1002/adma.201004200,19,3(a),147,Na0.0035Pb0.9965Se1,Na0.0035Pb0.9965Se1,314.5,0.028734,0.0000061284,,2.9218,0.10644,163174.7274982051,,
6006,10.1002/adma.201004200,19,3(a),147,Na0.0035Pb0.9965Se1,Na0.0035Pb0.9965Se1,315,0.02871,0.0000061322,,2.9151,0.10744,163073.6114281987,,
6006,10.1002/adma.201004200,19,3(a),147,Na0.0035Pb0.9965Se1,Na0.0035Pb0.9965Se1,315.5,0.028686,0.000006136,,2.9085,0.10844,162972.6205997392,,
6006,10.1002/adma.201004200,19,3(a),147,Na0.0035Pb0.9965Se1,Na0.0035Pb0.9965Se1,316,0.028661,0.00000614,,2.9018,0.10943,162866.4495114007,,
6006,10.1002/adma.201004200,19,3(a),147,Na0.0035Pb0.9965Se1,Na0.0035Pb0.9965Se1,316.5,0.028637,0.000006144,,2.8952,0.11043,162760.4166666667,,
6006,10.1002/adma.201004200,19,3(a),147,Na0.0035Pb0.9965Se1,Na0.0035Pb0.9965Se1,317,0.028613,0.0000061481,,2.8887,0.11142,162651.8761893919,,
6006,10.1002/adma.201004200,19,3(a),147,Na0.0035Pb0.9965Se1,Na0.0035Pb0.9965Se1,317.5,0.028589,0.0000061523,,2.8821,0.11242,162540.8383856444,,
6006,10.1002/adma.201004200,7,2(a),147,Na0.0035Pb0.9965Se1,Na0.0035Pb0.9965Se1,294.5,,0.0000060579,,,,165073.7054094653,,
6006,10.1002/adma.201004200,7,2(a),147,Na0.0035Pb0.9965Se1,Na0.0035Pb0.9965Se1,295,,0.0000060576,,,,165081.8806127839,,
6006,10.1002/adma.201004200,7,2(a),147,Na0.0035Pb0.9965Se1,Na0.0035Pb0.9965Se1,295.5,,0.0000060574,,,,165087.3311982038,,
6006,10.1002/adma.201004200,7,2(a),147,Na0.0035Pb0.9965Se1,Na0.0035Pb0.9965Se1,296,,0.0000060574,,,,165087.3311982038,,
6006,10.1002/adma.201004200,7,2(a),147,Na0.0035Pb0.9965Se1,Na0.0035Pb0.9965Se1,296.5,,0.0000060574,,,,165087.3311982038,,
6006,10.1002/adma.201004200,7,2(a),147,Na0.0035Pb0.9965Se1,Na0.0035Pb0.9965Se1,297,,0.0000060576,,,,165081.8806127839,,
6006,10.1002/adma.201004200,7,2(a),147,Na0.0035Pb0.9965Se1,Na0.0035Pb0.9965Se1,297.5,,0.0000060579,,,,165073.7054094653,,
6006,10.1002/adma.201004200,7,2(a),147,Na0.0035Pb0.9965Se1,Na0.0035Pb0.9965Se1,298,0.029532,0.0000060582,,,,165065.5310158133,,
6006,10.1002/adma.201004200,7,2(a),147,Na0.0035Pb0.9965Se1,Na0.0035Pb0.9965Se1,298.5,0.029508,0.0000060587,,,,165051.9088253256,,
6006,10.1002/adma.201004200,7,2(a),147,Na0.0035Pb0.9965Se1,Na0.0035Pb0.9965Se1,299,0.029483,0.0000060593,,,,165035.5651642929,,
6006,10.1002/adma.201004200,4842,4,147,Na0.0035Pb0.9965Se1,Na0.0035Pb0.9965Se1,850,0.0028405,,,,1.1733,,,
6006,10.1002/adma.201004200,4842,4,147,Na0.0035Pb0.9965Se1,Na0.0035Pb0.9965Se1,850.5,0.0028164,,,,1.1743,,,
6006,10.1002/adma.201004200,4842,4,147,Na0.0035Pb0.9965Se1,Na0.0035Pb0.9965Se1,851,0.0027922,,,,1.1753,,,
6006,10.1002/adma.201004200,4842,4,147,Na0.0035Pb0.9965Se1,Na0.0035Pb0.9965Se1,851.5,0.002768,,,,1.1763,,,
6006,10.1002/adma.201004200,4842,4,147,Na0.0035Pb0.9965Se1,Na0.0035Pb0.9965Se1,852,0.0027438,,,,1.1773,,,
6006,10.1002/adma.201004200,4842,4,147,Na0.0035Pb0.9965Se1,Na0.0035Pb0.9965Se1,852.5,0.0027197,,,,1.1783,,,
6006,10.1002/adma.201004200,25442,2b,147,Na0.0035Pb0.9965Se1,Na0.0035Pb0.9965Se1,853,0.0026955,,,,,,,
6006,10.1002/adma.201004200,25442,2b,147,Na0.0035Pb0.9965Se1,Na0.0035Pb0.9965Se1,853.5,0.0026713,,,,,,,
6006,10.1002/adma.201004200,25442,2b,147,Na0.0035Pb0.9965Se1,Na0.0035Pb0.9965Se1,854,0.0026471,,,,,,,
6006,10.1002/adma.201004200,25442,2b,147,Na0.0035Pb0.9965Se1,Na0.0035Pb0.9965Se1,854.5,0.0026229,,,,,,,
6006,10.1002/adma.201004200,25442,2b,147,Na0.0035Pb0.9965Se1,Na0.0035Pb0.9965Se1,855,0.0025988,,,,,,,
6006,10.1002/adma.201004200,25442,2b,147,Na0.0035Pb0.9965Se1,Na0.0035Pb0.9965Se1,855.5,0.0025746,,,,,,,
6006,10.1002/adma.201004200,25442,2b,147,Na0.0035Pb0.9965Se1,Na0.0035Pb0.9965Se1,856,0.0025504,,,,,,,
6006,10.1002/adma.201004200,25442,2b,147,Na0.0035Pb0.9965Se1,Na0.0035Pb0.9965Se1,856.5,0.0025262,,,,,,,
6006,10.1002/adma.201004200,25442,2b,147,Na0.0035Pb0.9965Se1,Na0.0035Pb0.9965Se1,857,0.0025021,,,,,,,
6006,10.1002/adma.201004200,25442,2b,147,Na0.0035Pb0.9965Se1,Na0.0035Pb0.9965Se1,857.5,0.0024779,,,,,,,
6006,10.1002/adma.201004200,25442,2b,147,Na0.0035Pb0.9965Se1,Na0.0035Pb0.9965Se1,858,0.0024537,,,,,,,
6006,10.1002/adma.201004200,80,1(a),124,Na0.0125Pb0.9875Se1,Na0.0125Pb0.9875Se1,306.5,0.01127,0.0000032572,0.000025314,3.87,0.015581,307012.1576814442,0.000196733,0.0000508354
6006,10.1002/adma.201004200,80,1(a),124,Na0.0125Pb0.9875Se1,Na0.0125Pb0.9875Se1,307,0.011262,0.0000032598,0.000025224,3.8638,0.015508,306767.2863365851,0.0001951807,0.0000505152
6006,10.1002/adma.201004200,80,1(a),124,Na0.0125Pb0.9875Se1,Na0.0125Pb0.9875Se1,307.5,0.011254,0.0000032625,0.000025137,3.8577,0.015438,306513.4099616858,0.0001936763,0.0000502051
6006,10.1002/adma.201004200,80,1(a),124,Na0.0125Pb0.9875Se1,Na0.0125Pb0.9875Se1,308,0.011246,0.0000032651,0.000025051,3.8516,0.01537,306269.3332516615,0.0001922001,0.0000499014
6006,10.1002/adma.201004200,80,1(a),124,Na0.0125Pb0.9875Se1,Na0.0125Pb0.9875Se1,308.5,0.011238,0.0000032679,0.000024967,3.8454,0.015303,306006.9157562961,0.0001907497,0.0000496047
6006,10.1002/adma.201004200,80,1(a),124,Na0.0125Pb0.9875Se1,Na0.0125Pb0.9875Se1,309,0.01123,0.0000032706,0.000024885,3.8394,0.015239,305754.2958478567,0.0001893424,0.0000493156
6006,10.1002/adma.201004200,80,1(a),124,Na0.0125Pb0.9875Se1,Na0.0125Pb0.9875Se1,309.5,0.011222,0.0000032734,0.000024806,3.8333,0.015178,305492.7598215922,0.0001879812,0.000049039
6006,10.1002/adma.201004200,80,1(a),124,Na0.0125Pb0.9875Se1,Na0.0125Pb0.9875Se1,310,0.011214,0.0000032762,0.000024728,3.8273,0.015117,305231.6708381661,0.0001866412,0.0000487658
6006,10.1002/adma.201004200,80,1(a),124,Na0.0125Pb0.9875Se1,Na0.0125Pb0.9875Se1,310.5,0.011207,0.0000032791,0.000024652,3.8212,0.01506,304961.7273032235,0.0001853317,0.0000485009
6006,10.1002/adma.201004200,80,1(a),124,Na0.0125Pb0.9875Se1,Na0.0125Pb0.9875Se1,311,0.011199,0.000003282,0.000024578,3.8152,0.015004,304692.2608165753,0.0001840579,0.0000482433
6006,10.1002/adma.201004200,80,1(a),124,Na0.0125Pb0.9875Se1,Na0.0125Pb0.9875Se1,311.5,0.011191,0.0000032849,0.000024506,3.8092,0.01495,304423.2701147675,0.0001828196,0.0000479942
6006,10.1002/adma.201004200,80,1(a),124,Na0.0125Pb0.9875Se1,Na0.0125Pb0.9875Se1,312,0.011183,0.0000032879,0.000024436,3.8033,0.014898,304145.5032087351,0.0001816108,0.0000477508
6006,10.1002/adma.201004200,80,1(a),124,Na0.0125Pb0.9875Se1,Na0.0125Pb0.9875Se1,312.5,0.011175,0.0000032909,0.000024368,3.7973,0.014849,303868.2427299523,0.0001804368,0.0000475171
6006,10.1002/adma.201004200,80,1(a),124,Na0.0125Pb0.9875Se1,Na0.0125Pb0.9875Se1,313,0.011167,0.000003294,0.000024302,3.7914,0.014801,303582.2707953855,0.0001792918,0.0000472891
6006,10.1002/adma.201004200,80,1(a),124,Na0.0125Pb0.9875Se1,Na0.0125Pb0.9875Se1,313.5,0.011159,0.000003297,0.000024237,3.7855,0.014755,303306.0357901122,0.0001781717,0.0000470669
6006,10.1002/adma.201004200,80,1(a),124,Na0.0125Pb0.9875Se1,Na0.0125Pb0.9875Se1,314,0.011151,0.0000033001,0.000024175,3.7796,0.014713,303021.1205721039,0.0001770948,0.0000468554