sid,DOI,figureid,fignum,sampleid,samplename,composition,Temperature,Carrier mobility,Electrical resistivity,Seebeck coefficient,Thermal conductivity,ZT,Electrical conductivity,Power factor,Figure of merit Z
6006,10.1002/adma.201004200,80,1(a),147,Na0.0035Pb0.9965Se1,Na0.0035Pb0.9965Se1,711,0.0095617,0.000028982,0.00021176,1.0972,0.89637,34504.1750051756,0.0015472465,0.0014101773
6006,10.1002/adma.201004200,80,1(a),147,Na0.0035Pb0.9965Se1,Na0.0035Pb0.9965Se1,711.5,0.0095375,0.000029053,0.00021196,1.0966,0.89736,34419.8533714246,0.0015463822,0.0014101607
6006,10.1002/adma.201004200,80,1(a),147,Na0.0035Pb0.9965Se1,Na0.0035Pb0.9965Se1,712,0.0095133,0.000029124,0.00021216,1.0961,0.89836,34335.9428649911,0.0015455248,0.0014100218
6006,10.1002/adma.201004200,80,1(a),147,Na0.0035Pb0.9965Se1,Na0.0035Pb0.9965Se1,712.5,0.0094891,0.000029195,0.00021236,1.0956,0.89935,34252.4404863847,0.0015446744,0.001409889
6006,10.1002/adma.201004200,80,1(a),147,Na0.0035Pb0.9965Se1,Na0.0035Pb0.9965Se1,713,0.009465,0.000029266,0.00021256,1.0951,0.90035,34169.3432652224,0.0015438308,0.0014097624
6006,10.1002/adma.201004200,80,1(a),147,Na0.0035Pb0.9965Se1,Na0.0035Pb0.9965Se1,713.5,0.0094408,0.000029337,0.00021275,1.0946,0.90135,34086.6482598766,0.001542849,0.0014095095
6006,10.1002/adma.201004200,80,1(a),147,Na0.0035Pb0.9965Se1,Na0.0035Pb0.9965Se1,714,0.0094166,0.000029408,0.00021295,1.0941,0.90234,34004.3525571273,0.0015420193,0.0014093952
6006,10.1002/adma.201004200,80,1(a),147,Na0.0035Pb0.9965Se1,Na0.0035Pb0.9965Se1,714.5,0.0093924,0.00002948,0.00021315,1.0936,0.90334,33921.302578019,0.0015411439,0.0014092391
6006,10.1002/adma.201004200,80,1(a),147,Na0.0035Pb0.9965Se1,Na0.0035Pb0.9965Se1,715,0.0093683,0.000029552,0.00021335,1.0931,0.90433,33838.657282079,0.0015402755,0.0014090893
6006,10.1002/adma.201004200,80,1(a),147,Na0.0035Pb0.9965Se1,Na0.0035Pb0.9965Se1,715.5,0.0093441,0.000029624,0.00021355,1.0926,0.90533,33756.4137186065,0.0015394141,0.0014089457
6006,10.1002/adma.201004200,80,1(a),147,Na0.0035Pb0.9965Se1,Na0.0035Pb0.9965Se1,716,0.0093199,0.000029696,0.00021375,1.0921,0.90633,33674.5689655172,0.0015385595,0.0014088082
6006,10.1002/adma.201004200,80,1(a),147,Na0.0035Pb0.9965Se1,Na0.0035Pb0.9965Se1,716.5,0.0092957,0.000029768,0.00021394,1.0916,0.90732,33593.1201289976,0.001537568,0.0014085452
6006,10.1002/adma.201004200,80,1(a),147,Na0.0035Pb0.9965Se1,Na0.0035Pb0.9965Se1,717,0.0092716,0.000029841,0.00021414,1.0911,0.90832,33510.9413223417,0.0015366757,0.0014083729
6006,10.1002/adma.201004200,80,1(a),147,Na0.0035Pb0.9965Se1,Na0.0035Pb0.9965Se1,717.5,0.0092474,0.000029913,0.00021434,1.0907,0.90932,33430.2811486645,0.0015358418,0.0014081249
6006,10.1002/adma.201004200,80,1(a),147,Na0.0035Pb0.9965Se1,Na0.0035Pb0.9965Se1,718,0.0092232,0.000029986,0.00021454,1.0902,0.91031,33348.8961515374,0.0015349634,0.0014079649
6006,10.1002/adma.201004200,80,1(a),147,Na0.0035Pb0.9965Se1,Na0.0035Pb0.9965Se1,718.5,0.009199,0.000030059,0.00021474,1.0897,0.91131,33267.9064506471,0.0015340919,0.0014078112
6006,10.1002/adma.201004200,80,1(a),147,Na0.0035Pb0.9965Se1,Na0.0035Pb0.9965Se1,719,0.0091749,0.000030132,0.00021493,1.0892,0.9123,33187.3091729723,0.0015330846,0.0014075327
6006,10.1002/adma.201004200,80,1(a),147,Na0.0035Pb0.9965Se1,Na0.0035Pb0.9965Se1,719.5,0.0091507,0.000030206,0.00021513,1.0888,0.9133,33106.0054293849,0.0015321763,0.0014072155
6006,10.1002/adma.201004200,80,1(a),147,Na0.0035Pb0.9965Se1,Na0.0035Pb0.9965Se1,720,0.0091265,0.000030279,0.00021533,1.0883,0.9143,33026.1897684864,0.0015313256,0.0014070804
6006,10.1002/adma.201004200,80,1(a),147,Na0.0035Pb0.9965Se1,Na0.0035Pb0.9965Se1,720.5,0.0091023,0.000030353,0.00021552,1.0879,0.91529,32945.6725859058,0.0015302893,0.0014066452
6006,10.1002/adma.201004200,80,1(a),147,Na0.0035Pb0.9965Se1,Na0.0035Pb0.9965Se1,721,0.0090781,0.000030427,0.00021572,1.0874,0.91629,32865.5470470306,0.0015294021,0.0014064761
6006,10.1002/adma.201004200,80,1(a),147,Na0.0035Pb0.9965Se1,Na0.0035Pb0.9965Se1,721.5,0.009054,0.000030501,0.00021592,1.087,0.91728,32785.8103013016,0.0015285219,0.0014061839
6006,10.1002/adma.201004200,80,1(a),147,Na0.0035Pb0.9965Se1,Na0.0035Pb0.9965Se1,722,0.0090298,0.000030575,0.00021611,1.0865,0.91828,32706.4595257563,0.0015275072,0.0014058971
6006,10.1002/adma.201004200,80,1(a),147,Na0.0035Pb0.9965Se1,Na0.0035Pb0.9965Se1,722.5,0.0090056,0.00003065,0.00021631,1.0861,0.91928,32626.427406199,0.0015265911,0.0014055714
6006,10.1002/adma.201004200,80,1(a),147,Na0.0035Pb0.9965Se1,Na0.0035Pb0.9965Se1,723,0.0089814,0.000030724,0.0002165,1.0856,0.92027,32547.845332639,0.0015255907,0.0014052973
6006,10.1002/adma.201004200,80,1(a),147,Na0.0035Pb0.9965Se1,Na0.0035Pb0.9965Se1,723.5,0.0089573,0.000030799,0.0002167,1.0852,0.92127,32468.5866424235,0.0015246888,0.0014049841
6006,10.1002/adma.201004200,80,1(a),147,Na0.0035Pb0.9965Se1,Na0.0035Pb0.9965Se1,724,0.0089331,0.000030874,0.0002169,1.0848,0.92226,32389.7130271426,0.0015237938,0.0014046772
6006,10.1002/adma.201004200,80,1(a),147,Na0.0035Pb0.9965Se1,Na0.0035Pb0.9965Se1,724.5,0.0089089,0.000030949,0.00021709,1.0843,0.92326,32311.221687292,0.0015227655,0.0014043765
6006,10.1002/adma.201004200,80,1(a),147,Na0.0035Pb0.9965Se1,Na0.0035Pb0.9965Se1,725,0.0088847,0.000031025,0.00021729,1.0839,0.92426,32232.070910556,0.0015218354,0.0014040367
6006,10.1002/adma.201004200,80,1(a),147,Na0.0035Pb0.9965Se1,Na0.0035Pb0.9965Se1,725.5,0.0088606,0.0000311,0.00021748,1.0835,0.92525,32154.3408360129,0.0015208216,0.0014036193
6006,10.1002/adma.201004200,80,1(a),147,Na0.0035Pb0.9965Se1,Na0.0035Pb0.9965Se1,726,0.0088364,0.000031176,0.00021768,1.0831,0.92625,32075.9558634847,0.0015199058,0.0014032922
6006,10.1002/adma.201004200,80,1(a),147,Na0.0035Pb0.9965Se1,Na0.0035Pb0.9965Se1,726.5,0.0088122,0.000031252,0.00021787,1.0827,0.92725,31997.9521310636,0.0015188576,0.0014028425
6006,10.1002/adma.201004200,80,1(a),147,Na0.0035Pb0.9965Se1,Na0.0035Pb0.9965Se1,727,0.008788,0.000031328,0.00021807,1.0822,0.92824,31920.3268641471,0.001517956,0.0014026575
6006,10.1002/adma.201004200,80,1(a),147,Na0.0035Pb0.9965Se1,Na0.0035Pb0.9965Se1,727.5,0.0087638,0.000031404,0.00021826,1.0818,0.92924,31843.0773149917,0.0015169223,0.0014022206
6006,10.1002/adma.201004200,80,1(a),147,Na0.0035Pb0.9965Se1,Na0.0035Pb0.9965Se1,728,0.0087397,0.000031481,0.00021845,1.0814,0.93023,31765.1917029319,0.0015158477,0.0014017456
6006,10.1002/adma.201004200,80,1(a),147,Na0.0035Pb0.9965Se1,Na0.0035Pb0.9965Se1,728.5,0.0087155,0.000031557,0.00021865,1.081,0.93123,31688.6903064296,0.0015149673,0.0014014498
6006,10.1002/adma.201004200,80,1(a),147,Na0.0035Pb0.9965Se1,Na0.0035Pb0.9965Se1,729,0.0086913,0.000031634,0.00021884,1.0806,0.93223,31611.5571853069,0.0015139074,0.0014009878
6006,10.1002/adma.201004200,80,1(a),147,Na0.0035Pb0.9965Se1,Na0.0035Pb0.9965Se1,729.5,0.0086671,0.000031711,0.00021904,1.0802,0.93322,31534.7986503106,0.001512993,0.0014006601
6006,10.1002/adma.201004200,80,1(a),147,Na0.0035Pb0.9965Se1,Na0.0035Pb0.9965Se1,730,0.008643,0.000031788,0.00021923,1.0799,0.93422,31458.4119793633,0.0015119477,0.0014000812
6006,10.1002/adma.201004200,80,1(a),147,Na0.0035Pb0.9965Se1,Na0.0035Pb0.9965Se1,730.5,0.0086188,0.000031866,0.00021942,1.0795,0.93521,31381.4096529216,0.0015108622,0.0013995945
6006,10.1002/adma.201004200,80,1(a),147,Na0.0035Pb0.9965Se1,Na0.0035Pb0.9965Se1,731,0.0085946,0.000031943,0.00021961,1.0791,0.93621,31305.7633910403,0.0015098316,0.0013991582
6006,10.1002/adma.201004200,80,1(a),147,Na0.0035Pb0.9965Se1,Na0.0035Pb0.9965Se1,731.5,0.0085704,0.000032021,0.00021981,1.0787,0.93721,31229.5056369258,0.0015088984,0.0013988119
6006,10.1002/adma.201004200,80,1(a),147,Na0.0035Pb0.9965Se1,Na0.0035Pb0.9965Se1,732,0.0085463,0.000032099,0.00022,1.0783,0.9382,31153.6184927879,0.0015078351,0.0013983447
6006,10.1002/adma.201004200,80,1(a),147,Na0.0035Pb0.9965Se1,Na0.0035Pb0.9965Se1,732.5,0.0085221,0.000032177,0.00022019,1.078,0.9392,31078.099263449,0.0015067793,0.0013977544
6006,10.1002/adma.201004200,80,1(a),147,Na0.0035Pb0.9965Se1,Na0.0035Pb0.9965Se1,733,0.0084979,0.000032255,0.00022038,1.0776,0.94019,31002.9452798016,0.0015057307,0.0013973002
6006,10.1002/adma.201004200,80,1(a),147,Na0.0035Pb0.9965Se1,Na0.0035Pb0.9965Se1,733.5,0.0084737,0.000032334,0.00022057,1.0772,0.94119,30927.1973773737,0.0015046429,0.0013968093
6006,10.1002/adma.201004200,80,1(a),147,Na0.0035Pb0.9965Se1,Na0.0035Pb0.9965Se1,734,0.0084495,0.000032412,0.00022077,1.0769,0.94219,30852.770578798,0.0015037453,0.0013963649
6006,10.1002/adma.201004200,80,1(a),147,Na0.0035Pb0.9965Se1,Na0.0035Pb0.9965Se1,734.5,0.0084254,0.000032491,0.00022096,1.0765,0.94318,30777.7538395248,0.0015026722,0.0013958868
6006,10.1002/adma.201004200,80,1(a),147,Na0.0035Pb0.9965Se1,Na0.0035Pb0.9965Se1,735,0.0084012,0.00003257,0.00022115,1.0762,0.94418,30703.1010132023,0.0015016065,0.0013952857
6006,10.1002/adma.201004200,80,1(a),147,Na0.0035Pb0.9965Se1,Na0.0035Pb0.9965Se1,735.5,0.008377,0.000032649,0.00022134,1.0758,0.94518,30628.8094581764,0.0015005481,0.0013948207
6006,10.1002/adma.201004200,80,1(a),147,Na0.0035Pb0.9965Se1,Na0.0035Pb0.9965Se1,736,0.0083528,0.000032729,0.00022153,1.0755,0.94617,30553.9429863424,0.0014994513,0.0013941899
6006,10.1002/adma.201004200,80,1(a),147,Na0.0035Pb0.9965Se1,Na0.0035Pb0.9965Se1,736.5,0.0083287,0.000032808,0.00022172,1.0751,0.94717,30480.370641307,0.0014984077,0.0013937379
6006,10.1002/adma.201004200,80,1(a),147,Na0.0035Pb0.9965Se1,Na0.0035Pb0.9965Se1,737,0.0083045,0.000032888,0.00022191,1.0748,0.94816,30406.2271953296,0.0014973257,0.0013931203
6006,10.1002/adma.201004200,80,1(a),147,Na0.0035Pb0.9965Se1,Na0.0035Pb0.9965Se1,737.5,0.0082803,0.000032968,0.0002221,1.0744,0.94916,30332.4435816549,0.0014962512,0.0013926389
6006,10.1002/adma.201004200,80,1(a),147,Na0.0035Pb0.9965Se1,Na0.0035Pb0.9965Se1,738,0.0082561,0.000033048,0.00022229,1.0741,0.95016,30259.0171871218,0.0014951841,0.0013920344
6006,10.1002/adma.201004200,80,1(a),147,Na0.0035Pb0.9965Se1,Na0.0035Pb0.9965Se1,738.5,0.008232,0.000033129,0.00022247,1.0738,0.95115,30185.0342600139,0.0014939449,0.0013912692
6006,10.1002/adma.201004200,80,1(a),147,Na0.0035Pb0.9965Se1,Na0.0035Pb0.9965Se1,739,0.0082078,0.000033209,0.00022266,1.0734,0.95215,30112.3189496823,0.0014928928,0.0013908075
6006,10.1002/adma.201004200,80,1(a),147,Na0.0035Pb0.9965Se1,Na0.0035Pb0.9965Se1,739.5,0.0081836,0.00003329,0.00022285,1.0731,0.95314,30039.0507659958,0.001491803,0.0013901808
6006,10.1002/adma.201004200,80,1(a),147,Na0.0035Pb0.9965Se1,Na0.0035Pb0.9965Se1,740,0.0081594,0.000033371,0.00022304,1.0728,0.95414,29966.1382637619,0.0014907207,0.0013895607
6006,10.1002/adma.201004200,80,1(a),147,Na0.0035Pb0.9965Se1,Na0.0035Pb0.9965Se1,740.5,0.0081352,0.000033452,0.00022323,1.0725,0.95514,29893.578859261,0.0014896458,0.0013889472
6006,10.1002/adma.201004200,80,1(a),147,Na0.0035Pb0.9965Se1,Na0.0035Pb0.9965Se1,741,0.0081111,0.000033533,0.00022341,1.0722,0.95613,29821.3699937375,0.0014884451,0.0013882159
6006,10.1002/adma.201004200,80,1(a),147,Na0.0035Pb0.9965Se1,Na0.0035Pb0.9965Se1,741.5,0.0080869,0.000033614,0.0002236,1.0719,0.95713,29749.5091330993,0.001487385,0.0013876155
6006,10.1002/adma.201004200,80,1(a),147,Na0.0035Pb0.9965Se1,Na0.0035Pb0.9965Se1,742,0.0080627,0.000033696,0.00022379,1.0716,0.95813,29677.1130104463,0.0014862881,0.0013869803
6006,10.1002/adma.201004200,80,1(a),147,Na0.0035Pb0.9965Se1,Na0.0035Pb0.9965Se1,742.5,0.0080385,0.000033778,0.00022397,1.0712,0.95912,29605.068387708,0.001485066,0.0013863574
6006,10.1002/adma.201004200,80,1(a),147,Na0.0035Pb0.9965Se1,Na0.0035Pb0.9965Se1,743,0.0080144,0.00003386,0.00022416,1.0709,0.96012,29533.3727111636,0.0014839842,0.0013857356
6006,10.1002/adma.201004200,80,1(a),147,Na0.0035Pb0.9965Se1,Na0.0035Pb0.9965Se1,743.5,0.0079902,0.000033942,0.00022434,1.0707,0.96111,29462.0234517707,0.0014827775,0.0013848674
6006,10.1002/adma.201004200,80,1(a),147,Na0.0035Pb0.9965Se1,Na0.0035Pb0.9965Se1,744,0.007966,0.000034024,0.00022453,1.0704,0.96211,29391.0181048672,0.0014817106,0.0013842588
6006,10.1002/adma.201004200,80,1(a),147,Na0.0035Pb0.9965Se1,Na0.0035Pb0.9965Se1,744.5,0.0079418,0.000034107,0.00022472,1.0701,0.96311,29319.4945319143,0.0014806075,0.001383616
6006,10.1002/adma.201004200,80,1(a),147,Na0.0035Pb0.9965Se1,Na0.0035Pb0.9965Se1,745,0.0079177,0.00003419,0.0002249,1.0698,0.9641,29248.3182217023,0.0014793802,0.0013828568
6006,10.1002/adma.201004200,80,1(a),147,Na0.0035Pb0.9965Se1,Na0.0035Pb0.9965Se1,745.5,0.0078935,0.000034273,0.00022508,1.0695,0.9651,29177.4866512999,0.0014781608,0.0013821046
6006,10.1002/adma.201004200,80,1(a),147,Na0.0035Pb0.9965Se1,Na0.0035Pb0.9965Se1,746,0.0078693,0.000034356,0.00022527,1.0692,0.96609,29106.9973221562,0.0014770804,0.0013814818
6006,10.1002/adma.201004200,80,1(a),147,Na0.0035Pb0.9965Se1,Na0.0035Pb0.9965Se1,746.5,0.0078451,0.000034439,0.00022545,1.0689,0.96709,29036.8477598072,0.0014758763,0.0013807431
6006,10.1002/adma.201004200,80,1(a),147,Na0.0035Pb0.9965Se1,Na0.0035Pb0.9965Se1,747,0.007821,0.000034523,0.00022563,1.0687,0.96809,28966.1964487443,0.0014746371,0.001379842
6006,10.1002/adma.201004200,80,1(a),147,Na0.0035Pb0.9965Se1,Na0.0035Pb0.9965Se1,747.5,0.0077968,0.000034606,0.00022582,1.0684,0.96908,28896.7231115991,0.0014735789,0.001379239
6006,10.1002/adma.201004200,80,1(a),147,Na0.0035Pb0.9965Se1,Na0.0035Pb0.9965Se1,748,0.0077726,0.00003469,0.000226,1.0681,0.97008,28826.7512251369,0.0014723551,0.0013784806
6006,10.1002/adma.201004200,80,1(a),147,Na0.0035Pb0.9965Se1,Na0.0035Pb0.9965Se1,748.5,0.0077484,0.000034774,0.00022618,1.0679,0.97107,28757.1173865532,0.0014711391,0.0013776001
6006,10.1002/adma.201004200,80,1(a),147,Na0.0035Pb0.9965Se1,Na0.0035Pb0.9965Se1,749,0.0077242,0.000034859,0.00022636,1.0676,0.97207,28686.9961846295,0.0014698887,0.0013768159
6006,10.1002/adma.201004200,80,1(a),147,Na0.0035Pb0.9965Se1,Na0.0035Pb0.9965Se1,749.5,0.0077001,0.000034943,0.00022654,1.0674,0.97307,28618.035085711,0.0014686882,0.0013759492
6006,10.1002/adma.201004200,80,1(a),147,Na0.0035Pb0.9965Se1,Na0.0035Pb0.9965Se1,750,0.0076759,0.000035028,0.00022673,1.0671,0.97406,28548.5896996688,0.0014675829,0.0013753002
6006,10.1002/adma.201004200,80,1(a),147,Na0.0035Pb0.9965Se1,Na0.0035Pb0.9965Se1,750.5,0.0076517,0.000035113,0.00022691,1.0669,0.97506,28479.4805342751,0.0014663557,0.0013744078
6006,10.1002/adma.201004200,80,1(a),147,Na0.0035Pb0.9965Se1,Na0.0035Pb0.9965Se1,751,0.0076275,0.000035198,0.00022709,1.0666,0.97606,28410.7051537019,0.0014651363,0.0013736512
6006,10.1002/adma.201004200,80,1(a),147,Na0.0035Pb0.9965Se1,Na0.0035Pb0.9965Se1,751.5,0.0076034,0.000035283,0.00022727,1.0664,0.97705,28342.2611455942,0.0014639246,0.0013727725
6006,10.1002/adma.201004200,80,1(a),147,Na0.0035Pb0.9965Se1,Na0.0035Pb0.9965Se1,752,0.0075792,0.000035368,0.00022744,1.0661,0.97805,28274.1461207872,0.001462592,0.0013719088
6006,10.1002/adma.201004200,80,1(a),147,Na0.0035Pb0.9965Se1,Na0.0035Pb0.9965Se1,752.5,0.007555,0.000035454,0.00022762,1.0659,0.97904,28205.5621368534,0.0014613546,0.0013710053
6006,10.1002/adma.201004200,80,1(a),147,Na0.0035Pb0.9965Se1,Na0.0035Pb0.9965Se1,753,0.0075308,0.00003554,0.0002278,1.0657,0.98004,28137.310073157,0.0014601249,0.0013701088
6006,10.1002/adma.201004200,80,1(a),147,Na0.0035Pb0.9965Se1,Na0.0035Pb0.9965Se1,753.5,0.0075067,0.000035626,0.00022798,1.0654,0.98104,28069.3875259642,0.0014589031,0.0013693477
6006,10.1002/adma.201004200,80,1(a),147,Na0.0035Pb0.9965Se1,Na0.0035Pb0.9965Se1,754,0.0074825,0.000035712,0.00022816,1.0652,0.98203,28001.7921146953,0.0014576889,0.001368465
6006,10.1002/adma.201004200,80,1(a),147,Na0.0035Pb0.9965Se1,Na0.0035Pb0.9965Se1,754.5,0.0074583,0.000035798,0.00022833,1.065,0.98303,27934.521481647,0.0014563548,0.0013674693
6006,10.1002/adma.201004200,80,1(a),147,Na0.0035Pb0.9965Se1,Na0.0035Pb0.9965Se1,755,0.0074341,0.000035885,0.00022851,1.0648,0.98402,27866.796711718,0.0014551155,0.0013665623
6006,10.1002/adma.201004200,80,1(a),147,Na0.0035Pb0.9965Se1,Na0.0035Pb0.9965Se1,755.5,0.0074099,0.000035971,0.00022869,1.0645,0.98502,27800.1723610686,0.0014539244,0.0013658285
6006,10.1002/adma.201004200,80,1(a),147,Na0.0035Pb0.9965Se1,Na0.0035Pb0.9965Se1,756,0.0073858,0.000036058,0.00022886,1.0643,0.98602,27733.096677575,0.0014525736,0.001364816
6006,10.1002/adma.201004200,80,1(a),147,Na0.0035Pb0.9965Se1,Na0.0035Pb0.9965Se1,756.5,0.0073616,0.000036146,0.00022904,1.0641,0.98701,27665.5784872462,0.0014513175,0.001363892
6006,10.1002/adma.201004200,80,1(a),147,Na0.0035Pb0.9965Se1,Na0.0035Pb0.9965Se1,757,0.0073374,0.000036233,0.00022921,1.0639,0.98801,27599.1499461817,0.0014499827,0.0013628938
6006,10.1002/adma.201004200,80,1(a),147,Na0.0035Pb0.9965Se1,Na0.0035Pb0.9965Se1,757.5,0.0073132,0.00003632,0.00022939,1.0637,0.989,27533.0396475771,0.0014487823,0.0013620215
6006,10.1002/adma.201004200,80,1(a),147,Na0.0035Pb0.9965Se1,Na0.0035Pb0.9965Se1,758,0.0072891,0.000036408,0.00022956,1.0635,0.99,27466.490881125,0.0014474235,0.001361
6006,10.1002/adma.201004200,80,1(a),147,Na0.0035Pb0.9965Se1,Na0.0035Pb0.9965Se1,758.5,0.0072649,0.000036496,0.00022973,1.0633,0.991,27400.2630425252,0.0014460728,0.0013599857
6006,10.1002/adma.201004200,80,1(a),147,Na0.0035Pb0.9965Se1,Na0.0035Pb0.9965Se1,759,0.0072407,0.000036584,0.00022991,1.0631,0.99199,27334.3538158758,0.0014448559,0.0013590969
6006,10.1002/adma.201004200,80,1(a),147,Na0.0035Pb0.9965Se1,Na0.0035Pb0.9965Se1,759.5,0.0072165,0.000036672,0.00023008,1.0629,0.99299,27268.7609075044,0.0014435211,0.0013580968
6006,10.1002/adma.201004200,80,1(a),147,Na0.0035Pb0.9965Se1,Na0.0035Pb0.9965Se1,760,0.0071924,0.000036761,0.00023025,1.0627,0.99399,27202.7420363973,0.0014421551,0.001357067
6006,10.1002/adma.201004200,80,1(a),147,Na0.0035Pb0.9965Se1,Na0.0035Pb0.9965Se1,760.5,0.0071682,0.00003685,0.00023042,1.0625,0.99498,27137.0420624152,0.0014407972,0.0013560444
6006,10.1002/adma.201004200,80,1(a),147,Na0.0035Pb0.9965Se1,Na0.0035Pb0.9965Se1,761,0.007144,0.000036938,0.00023059,1.0624,0.99598,27072.3915750717,0.0014394864,0.0013549382
6006,10.1002/adma.201004200,80,1(a),147,Na0.0035Pb0.9965Se1,Na0.0035Pb0.9965Se1,761.5,0.0071198,0.000037027,0.00023076,1.0622,0.99697,27007.3189834445,0.0014381445,0.0013539301
6006,10.1002/adma.201004200,80,1(a),147,Na0.0035Pb0.9965Se1,Na0.0035Pb0.9965Se1,762,0.0070956,0.000037117,0.00023093,1.062,0.99797,26941.8325834523,0.001436772,0.0013528926
6006,10.1002/adma.201004200,80,1(a),147,Na0.0035Pb0.9965Se1,Na0.0035Pb0.9965Se1,762.5,0.0070715,0.000037206,0.0002311,1.0618,0.99897,26877.3853679514,0.0014354462,0.0013518988
6006,10.1002/adma.201004200,80,1(a),147,Na0.0035Pb0.9965Se1,Na0.0035Pb0.9965Se1,763,0.0070473,0.000037296,0.00023127,1.0617,0.99996,26812.5268125268,0.0014340898,0.0013507486
6006,10.1002/adma.201004200,80,1(a),147,Na0.0035Pb0.9965Se1,Na0.0035Pb0.9965Se1,763.5,0.0070231,0.000037386,0.00023144,1.0615,1.001,26747.9805274702,0.0014327415,0.0013497329
6006,10.1002/adma.201004200,80,1(a),147,Na0.0035Pb0.9965Se1,Na0.0035Pb0.9965Se1,764,0.0069989,0.000037476,0.00023161,1.0613,1.002,26683.744262995,0.0014314012,0.0013487244
6006,10.1002/adma.201004200,80,1(a),147,Na0.0035Pb0.9965Se1,Na0.0035Pb0.9965Se1,764.5,0.0069748,0.000037566,0.00023178,1.0612,1.003,26619.8157908747,0.0014300689,0.001347596
6006,10.1002/adma.201004200,80,1(a),147,Na0.0035Pb0.9965Se1,Na0.0035Pb0.9965Se1,765,0.0069506,0.000037656,0.00023194,1.061,1.0039,26556.1929041853,0.0014286213,0.0013464857
6006,10.1002/adma.201004200,80,1(a),147,Na0.0035Pb0.9965Se1,Na0.0035Pb0.9965Se1,765.5,0.0069264,0.000037747,0.00023211,1.0609,1.0049,26492.171563303,0.0014272671,0.0013453362
6006,10.1002/adma.201004200,80,1(a),147,Na0.0035Pb0.9965Se1,Na0.0035Pb0.9965Se1,766,0.0069022,0.000037838,0.00023227,1.0607,1.0059,26428.4581637507,0.0014257982,0.001344205
6006,10.1002/adma.201004200,80,1(a),147,Na0.0035Pb0.9965Se1,Na0.0035Pb0.9965Se1,766.5,0.0068781,0.000037929,0.00023244,1.0606,1.0069,26365.0504890717,0.0014244603,0.0013430702
6006,10.1002/adma.201004200,80,1(a),147,Na0.0035Pb0.9965Se1,Na0.0035Pb0.9965Se1,767,0.0068539,0.00003802,0.0002326,1.0604,1.0079,26301.9463440295,0.0014230079,0.0013419539