sid,DOI,figureid,fignum,sampleid,samplename,composition,Temperature,Carrier mobility,Electrical resistivity,Seebeck coefficient,Thermal conductivity,ZT,Electrical conductivity,Power factor,Figure of merit Z
6006,10.1002/adma.201004200,80,1(a),124,Na0.0125Pb0.9875Se1,Na0.0125Pb0.9875Se1,702.5,0.0050017,0.00001141,0.00012242,1.5662,0.63578,87642.4189307625,0.0013134668,0.0008386329
6006,10.1002/adma.201004200,80,1(a),124,Na0.0125Pb0.9875Se1,Na0.0125Pb0.9875Se1,703,0.0049938,0.00001143,0.0001226,1.5646,0.63689,87489.0638670166,0.0013150271,0.0008404877
6006,10.1002/adma.201004200,80,1(a),124,Na0.0125Pb0.9875Se1,Na0.0125Pb0.9875Se1,703.5,0.0049859,0.00001145,0.00012278,1.563,0.638,87336.2445414847,0.0013165876,0.0008423465
6006,10.1002/adma.201004200,80,1(a),124,Na0.0125Pb0.9875Se1,Na0.0125Pb0.9875Se1,704,0.004978,0.00001147,0.00012296,1.5614,0.6391,87183.9581517001,0.0013181484,0.0008442093
6006,10.1002/adma.201004200,80,1(a),124,Na0.0125Pb0.9875Se1,Na0.0125Pb0.9875Se1,704.5,0.0049701,0.00001149,0.00012314,1.5598,0.64021,87032.2019147084,0.0013197093,0.000846076
6006,10.1002/adma.201004200,80,1(a),124,Na0.0125Pb0.9875Se1,Na0.0125Pb0.9875Se1,705,0.0049622,0.000011511,0.00012332,1.5582,0.64132,86873.4254191643,0.0013211556,0.0008478729
6006,10.1002/adma.201004200,80,1(a),124,Na0.0125Pb0.9875Se1,Na0.0125Pb0.9875Se1,705.5,0.0049542,0.000011531,0.0001235,1.5566,0.64243,86722.7473766369,0.001322717,0.0008497475
6006,10.1002/adma.201004200,80,1(a),124,Na0.0125Pb0.9875Se1,Na0.0125Pb0.9875Se1,706,0.0049463,0.000011551,0.00012368,1.555,0.64353,86572.5911176521,0.0013242786,0.0008516261
6006,10.1002/adma.201004200,80,1(a),124,Na0.0125Pb0.9875Se1,Na0.0125Pb0.9875Se1,706.5,0.0049384,0.000011572,0.00012386,1.5534,0.64464,86415.4856550294,0.0013257259,0.000853435
6006,10.1002/adma.201004200,80,1(a),124,Na0.0125Pb0.9875Se1,Na0.0125Pb0.9875Se1,707,0.0049305,0.000011592,0.00012404,1.5518,0.64575,86266.3906142167,0.0013272879,0.0008553215
6006,10.1002/adma.201004200,80,1(a),124,Na0.0125Pb0.9875Se1,Na0.0125Pb0.9875Se1,707.5,0.0049226,0.000011613,0.00012422,1.5502,0.64686,86110.3935244984,0.0013287358,0.0008571383
6006,10.1002/adma.201004200,80,1(a),124,Na0.0125Pb0.9875Se1,Na0.0125Pb0.9875Se1,708,0.0049147,0.000011633,0.0001244,1.5486,0.64797,85962.3484913608,0.0013302983,0.0008590329
6006,10.1002/adma.201004200,80,1(a),124,Na0.0125Pb0.9875Se1,Na0.0125Pb0.9875Se1,708.5,0.0049068,0.000011654,0.00012458,1.5471,0.64907,85807.4480864939,0.0013317467,0.000860802
6006,10.1002/adma.201004200,80,1(a),124,Na0.0125Pb0.9875Se1,Na0.0125Pb0.9875Se1,709,0.0048988,0.000011674,0.00012476,1.5455,0.65018,85660.4420078808,0.0013333097,0.0008627044
6006,10.1002/adma.201004200,80,1(a),124,Na0.0125Pb0.9875Se1,Na0.0125Pb0.9875Se1,709.5,0.0048909,0.000011695,0.00012494,1.5439,0.65129,85506.6267635742,0.0013347588,0.0008645371
6006,10.1002/adma.201004200,80,1(a),124,Na0.0125Pb0.9875Se1,Na0.0125Pb0.9875Se1,710,0.004883,0.000011716,0.00012512,1.5423,0.6524,85353.3629224991,0.0013362081,0.0008663737
6006,10.1002/adma.201004200,80,1(a),124,Na0.0125Pb0.9875Se1,Na0.0125Pb0.9875Se1,710.5,0.0048751,0.000011737,0.0001253,1.5408,0.6535,85200.6475249212,0.0013376578,0.000868158
6006,10.1002/adma.201004200,80,1(a),124,Na0.0125Pb0.9875Se1,Na0.0125Pb0.9875Se1,711,0.0048672,0.000011757,0.00012549,1.5392,0.65461,85055.7114910266,0.0013394352,0.0008702152
6006,10.1002/adma.201004200,80,1(a),124,Na0.0125Pb0.9875Se1,Na0.0125Pb0.9875Se1,711.5,0.0048593,0.000011778,0.00012567,1.5377,0.65572,84904.0584139922,0.0013408855,0.0008720072
6006,10.1002/adma.201004200,80,1(a),124,Na0.0125Pb0.9875Se1,Na0.0125Pb0.9875Se1,712,0.0048514,0.000011799,0.00012585,1.5361,0.65683,84752.9451648445,0.001342336,0.0008738598
6006,10.1002/adma.201004200,80,1(a),124,Na0.0125Pb0.9875Se1,Na0.0125Pb0.9875Se1,712.5,0.0048434,0.00001182,0.00012603,1.5345,0.65793,84602.3688663283,0.0013437869,0.0008757164
6006,10.1002/adma.201004200,80,1(a),124,Na0.0125Pb0.9875Se1,Na0.0125Pb0.9875Se1,713,0.0048355,0.000011841,0.00012621,1.533,0.65904,84452.3266615995,0.0013452381,0.0008775199
6006,10.1002/adma.201004200,80,1(a),124,Na0.0125Pb0.9875Se1,Na0.0125Pb0.9875Se1,713.5,0.0048276,0.000011862,0.0001264,1.5314,0.66015,84302.8157140449,0.0013469027,0.0008795238
6006,10.1002/adma.201004200,80,1(a),124,Na0.0125Pb0.9875Se1,Na0.0125Pb0.9875Se1,714,0.0048197,0.000011883,0.00012658,1.5299,0.66126,84153.8332071026,0.0013483545,0.000881335
6006,10.1002/adma.201004200,80,1(a),124,Na0.0125Pb0.9875Se1,Na0.0125Pb0.9875Se1,714.5,0.0048118,0.000011904,0.00012676,1.5284,0.66236,84005.376344086,0.0013498066,0.0008831501
6006,10.1002/adma.201004200,80,1(a),124,Na0.0125Pb0.9875Se1,Na0.0125Pb0.9875Se1,715,0.0048039,0.000011925,0.00012695,1.5268,0.66347,83857.4423480084,0.0013514719,0.0008851663
6006,10.1002/adma.201004200,80,1(a),124,Na0.0125Pb0.9875Se1,Na0.0125Pb0.9875Se1,715.5,0.004796,0.000011946,0.00012713,1.5253,0.66458,83710.0284614097,0.0013529246,0.0008869892
6006,10.1002/adma.201004200,80,1(a),124,Na0.0125Pb0.9875Se1,Na0.0125Pb0.9875Se1,716,0.004788,0.000011967,0.00012731,1.5237,0.66569,83563.1319461853,0.0013543775,0.0008888742
6006,10.1002/adma.201004200,80,1(a),124,Na0.0125Pb0.9875Se1,Na0.0125Pb0.9875Se1,716.5,0.0047801,0.000011988,0.0001275,1.5222,0.66679,83416.7500834168,0.0013560435,0.0008908445
6006,10.1002/adma.201004200,80,1(a),124,Na0.0125Pb0.9875Se1,Na0.0125Pb0.9875Se1,717,0.0047722,0.000012009,0.00012768,1.5207,0.6679,83270.8801732034,0.0013574971,0.0008926791
6006,10.1002/adma.201004200,80,1(a),124,Na0.0125Pb0.9875Se1,Na0.0125Pb0.9875Se1,717.5,0.0047643,0.000012031,0.00012786,1.5192,0.66901,83118.6102568365,0.001358838,0.0008944431
6006,10.1002/adma.201004200,80,1(a),124,Na0.0125Pb0.9875Se1,Na0.0125Pb0.9875Se1,718,0.0047564,0.000012052,0.00012805,1.5176,0.67012,82973.7802854298,0.0013605047,0.0008964844
6006,10.1002/adma.201004200,80,1(a),124,Na0.0125Pb0.9875Se1,Na0.0125Pb0.9875Se1,718.5,0.0047485,0.000012073,0.00012823,1.5161,0.67123,82829.4541538971,0.0013619592,0.0008983307
6006,10.1002/adma.201004200,80,1(a),124,Na0.0125Pb0.9875Se1,Na0.0125Pb0.9875Se1,719,0.0047406,0.000012095,0.00012842,1.5146,0.67233,82678.7928896238,0.0013635136,0.0009002466
6006,10.1002/adma.201004200,80,1(a),124,Na0.0125Pb0.9875Se1,Na0.0125Pb0.9875Se1,719.5,0.0047326,0.000012116,0.0001286,1.5131,0.67344,82535.4902608121,0.0013649686,0.0009021007
6006,10.1002/adma.201004200,80,1(a),124,Na0.0125Pb0.9875Se1,Na0.0125Pb0.9875Se1,720,0.0047247,0.000012137,0.00012879,1.5116,0.67455,82392.6835297026,0.0013666362,0.0009040991
6006,10.1002/adma.201004200,80,1(a),124,Na0.0125Pb0.9875Se1,Na0.0125Pb0.9875Se1,720.5,0.0047168,0.000012159,0.00012897,1.5101,0.67566,82243.6055596677,0.0013679793,0.0009058866
6006,10.1002/adma.201004200,80,1(a),124,Na0.0125Pb0.9875Se1,Na0.0125Pb0.9875Se1,721,0.0047089,0.000012181,0.00012916,1.5086,0.67676,82095.0660865282,0.001369535,0.0009078185
6006,10.1002/adma.201004200,80,1(a),124,Na0.0125Pb0.9875Se1,Na0.0125Pb0.9875Se1,721.5,0.004701,0.000012202,0.00012934,1.5071,0.67787,81953.778069169,0.0013709913,0.0009096883
6006,10.1002/adma.201004200,80,1(a),124,Na0.0125Pb0.9875Se1,Na0.0125Pb0.9875Se1,722,0.0046931,0.000012224,0.00012953,1.5056,0.67898,81806.2827225131,0.0013725475,0.0009116283
6006,10.1002/adma.201004200,80,1(a),124,Na0.0125Pb0.9875Se1,Na0.0125Pb0.9875Se1,722.5,0.0046852,0.000012245,0.00012972,1.5041,0.68009,81665.9861167824,0.0013742163,0.0009136469
6006,10.1002/adma.201004200,80,1(a),124,Na0.0125Pb0.9875Se1,Na0.0125Pb0.9875Se1,723,0.0046772,0.000012267,0.0001299,1.5026,0.68119,81519.5239259803,0.0013755613,0.0009154541
6006,10.1002/adma.201004200,80,1(a),124,Na0.0125Pb0.9875Se1,Na0.0125Pb0.9875Se1,723.5,0.0046693,0.000012289,0.00013009,1.5011,0.6823,81373.5861339409,0.0013771184,0.0009174062
6006,10.1002/adma.201004200,80,1(a),124,Na0.0125Pb0.9875Se1,Na0.0125Pb0.9875Se1,724,0.0046614,0.00001231,0.00013027,1.4996,0.68341,81234.7684809098,0.0013785762,0.0009192959
6006,10.1002/adma.201004200,80,1(a),124,Na0.0125Pb0.9875Se1,Na0.0125Pb0.9875Se1,724.5,0.0046535,0.000012332,0.00013046,1.4981,0.68452,81089.8475510866,0.0013801339,0.0009212562
6006,10.1002/adma.201004200,80,1(a),124,Na0.0125Pb0.9875Se1,Na0.0125Pb0.9875Se1,725,0.0046456,0.000012354,0.00013065,1.4966,0.68562,80945.442771572,0.001381692,0.0009232206
6006,10.1002/adma.201004200,80,1(a),124,Na0.0125Pb0.9875Se1,Na0.0125Pb0.9875Se1,725.5,0.0046377,0.000012376,0.00013084,1.4951,0.68673,80801.5513897867,0.0013832503,0.0009251891
6006,10.1002/adma.201004200,80,1(a),124,Na0.0125Pb0.9875Se1,Na0.0125Pb0.9875Se1,726,0.0046298,0.000012398,0.00013102,1.4937,0.68784,80658.1706726891,0.0013845975,0.0009269583
6006,10.1002/adma.201004200,80,1(a),124,Na0.0125Pb0.9875Se1,Na0.0125Pb0.9875Se1,726.5,0.0046218,0.00001242,0.00013121,1.4922,0.68895,80515.2979066023,0.0013861565,0.0009289348
6006,10.1002/adma.201004200,80,1(a),124,Na0.0125Pb0.9875Se1,Na0.0125Pb0.9875Se1,727,0.0046139,0.000012442,0.0001314,1.4907,0.69006,80372.9303970423,0.0013877158,0.0009309155
6006,10.1002/adma.201004200,80,1(a),124,Na0.0125Pb0.9875Se1,Na0.0125Pb0.9875Se1,727.5,0.004606,0.000012464,0.00013158,1.4892,0.69116,80231.0654685494,0.0013890642,0.0009327587
6006,10.1002/adma.201004200,80,1(a),124,Na0.0125Pb0.9875Se1,Na0.0125Pb0.9875Se1,728,0.0045981,0.000012486,0.00013177,1.4878,0.69227,80089.7004645203,0.0013906241,0.0009346849
6006,10.1002/adma.201004200,80,1(a),124,Na0.0125Pb0.9875Se1,Na0.0125Pb0.9875Se1,728.5,0.0045902,0.000012508,0.00013196,1.4863,0.69338,79948.8327470419,0.0013921843,0.0009366779
6006,10.1002/adma.201004200,80,1(a),124,Na0.0125Pb0.9875Se1,Na0.0125Pb0.9875Se1,729,0.0045823,0.00001253,0.00013215,1.4849,0.69449,79808.4596967278,0.0013937448,0.0009386119
6006,10.1002/adma.201004200,80,1(a),124,Na0.0125Pb0.9875Se1,Na0.0125Pb0.9875Se1,729.5,0.0045744,0.000012552,0.00013234,1.4834,0.69559,79668.5787125558,0.0013953056,0.0009406132
6006,10.1002/adma.201004200,80,1(a),124,Na0.0125Pb0.9875Se1,Na0.0125Pb0.9875Se1,730,0.0045664,0.000012575,0.00013252,1.4819,0.6967,79522.8628230616,0.0013965448,0.0009424015
6006,10.1002/adma.201004200,80,1(a),124,Na0.0125Pb0.9875Se1,Na0.0125Pb0.9875Se1,730.5,0.0045585,0.000012597,0.00013271,1.4805,0.69781,79383.9803127729,0.0013981062,0.0009443473
6006,10.1002/adma.201004200,80,1(a),124,Na0.0125Pb0.9875Se1,Na0.0125Pb0.9875Se1,731,0.0045506,0.000012619,0.0001329,1.479,0.69892,79245.5820588002,0.001399668,0.000946361
6006,10.1002/adma.201004200,80,1(a),124,Na0.0125Pb0.9875Se1,Na0.0125Pb0.9875Se1,731.5,0.0045427,0.000012641,0.00013309,1.4776,0.70002,79107.6655327901,0.00140123,0.0009483148
6006,10.1002/adma.201004200,80,1(a),124,Na0.0125Pb0.9875Se1,Na0.0125Pb0.9875Se1,732,0.0045348,0.000012664,0.00013328,1.4762,0.70113,78963.9924194567,0.0014026815,0.0009501975
6006,10.1002/adma.201004200,80,1(a),124,Na0.0125Pb0.9875Se1,Na0.0125Pb0.9875Se1,732.5,0.0045269,0.000012686,0.00013347,1.4747,0.70224,78827.0534447422,0.0014042441,0.0009522236
6006,10.1002/adma.201004200,80,1(a),124,Na0.0125Pb0.9875Se1,Na0.0125Pb0.9875Se1,733,0.004519,0.000012709,0.00013366,1.4733,0.70335,78684.3968840979,0.0014056964,0.0009541142
6006,10.1002/adma.201004200,80,1(a),124,Na0.0125Pb0.9875Se1,Na0.0125Pb0.9875Se1,733.5,0.004511,0.000012731,0.00013385,1.4719,0.70445,78548.4251040767,0.0014072596,0.0009560837
6006,10.1002/adma.201004200,80,1(a),124,Na0.0125Pb0.9875Se1,Na0.0125Pb0.9875Se1,734,0.0045031,0.000012754,0.00013404,1.4704,0.70556,78406.7743453034,0.0014087127,0.0009580473
6006,10.1002/adma.201004200,80,1(a),124,Na0.0125Pb0.9875Se1,Na0.0125Pb0.9875Se1,734.5,0.0044952,0.000012776,0.00013423,1.469,0.70667,78271.7595491547,0.0014102765,0.0009600249
6006,10.1002/adma.201004200,80,1(a),124,Na0.0125Pb0.9875Se1,Na0.0125Pb0.9875Se1,735,0.0044873,0.000012799,0.00013442,1.4676,0.70778,78131.1039924994,0.0014117303,0.0009619313
6006,10.1002/adma.201004200,80,1(a),124,Na0.0125Pb0.9875Se1,Na0.0125Pb0.9875Se1,735.5,0.0044794,0.000012821,0.00013461,1.4661,0.70888,77997.0361126277,0.0014132948,0.0009639825
6006,10.1002/adma.201004200,80,1(a),124,Na0.0125Pb0.9875Se1,Na0.0125Pb0.9875Se1,736,0.0044715,0.000012844,0.0001348,1.4647,0.70999,77857.365306758,0.0014147493,0.000965897
6006,10.1002/adma.201004200,80,1(a),124,Na0.0125Pb0.9875Se1,Na0.0125Pb0.9875Se1,736.5,0.0044636,0.000012867,0.00013499,1.4633,0.7111,77718.1938291754,0.0014162043,0.0009678154
6006,10.1002/adma.201004200,80,1(a),124,Na0.0125Pb0.9875Se1,Na0.0125Pb0.9875Se1,737,0.0044556,0.00001289,0.00013518,1.4619,0.71221,77579.5190069822,0.0014176596,0.0009697377
6006,10.1002/adma.201004200,80,1(a),124,Na0.0125Pb0.9875Se1,Na0.0125Pb0.9875Se1,737.5,0.0044477,0.000012912,0.00013537,1.4605,0.71332,77447.3358116481,0.0014192253,0.0009717393
6006,10.1002/adma.201004200,80,1(a),124,Na0.0125Pb0.9875Se1,Na0.0125Pb0.9875Se1,738,0.0044398,0.000012935,0.00013556,1.4591,0.71442,77309.6250483185,0.0014206814,0.0009736696
6006,10.1002/adma.201004200,80,1(a),124,Na0.0125Pb0.9875Se1,Na0.0125Pb0.9875Se1,738.5,0.0044319,0.000012958,0.00013575,1.4577,0.71553,77172.4031486341,0.0014221379,0.0009756039
6006,10.1002/adma.201004200,80,1(a),124,Na0.0125Pb0.9875Se1,Na0.0125Pb0.9875Se1,739,0.004424,0.000012981,0.00013594,1.4563,0.71664,77035.667514059,0.0014235948,0.0009775422
6006,10.1002/adma.201004200,80,1(a),124,Na0.0125Pb0.9875Se1,Na0.0125Pb0.9875Se1,739.5,0.0044161,0.000013004,0.00013613,1.4549,0.71775,76899.4155644417,0.0014250521,0.0009794845
6006,10.1002/adma.201004200,80,1(a),124,Na0.0125Pb0.9875Se1,Na0.0125Pb0.9875Se1,740,0.0044082,0.000013027,0.00013632,1.4535,0.71885,76763.6447378522,0.0014265097,0.0009814309
6006,10.1002/adma.201004200,80,1(a),124,Na0.0125Pb0.9875Se1,Na0.0125Pb0.9875Se1,740.5,0.0044002,0.00001305,0.00013651,1.4521,0.71996,76628.3524904215,0.0014279678,0.0009833812
6006,10.1002/adma.201004200,80,1(a),124,Na0.0125Pb0.9875Se1,Na0.0125Pb0.9875Se1,741,0.0043923,0.000013073,0.00013671,1.4507,0.72107,76493.536296183,0.0014296354,0.0009854797
6006,10.1002/adma.201004200,80,1(a),124,Na0.0125Pb0.9875Se1,Na0.0125Pb0.9875Se1,741.5,0.0043844,0.000013096,0.0001369,1.4493,0.72218,76359.1936469151,0.0014310942,0.0009874382
6006,10.1002/adma.201004200,80,1(a),124,Na0.0125Pb0.9875Se1,Na0.0125Pb0.9875Se1,742,0.0043765,0.000013119,0.00013709,1.4479,0.72328,76225.3220519857,0.0014325534,0.0009894008
6006,10.1002/adma.201004200,80,1(a),124,Na0.0125Pb0.9875Se1,Na0.0125Pb0.9875Se1,742.5,0.0043686,0.000013142,0.00013728,1.4465,0.72439,76091.9190381981,0.001434013,0.0009913674
6006,10.1002/adma.201004200,80,1(a),124,Na0.0125Pb0.9875Se1,Na0.0125Pb0.9875Se1,743,0.0043607,0.000013166,0.00013747,1.4451,0.7255,75953.2128209023,0.0014353639,0.0009932627
6006,10.1002/adma.201004200,80,1(a),124,Na0.0125Pb0.9875Se1,Na0.0125Pb0.9875Se1,743.5,0.0043528,0.000013189,0.00013766,1.4438,0.72661,75820.7597240124,0.0014368243,0.0009951685
6006,10.1002/adma.201004200,80,1(a),124,Na0.0125Pb0.9875Se1,Na0.0125Pb0.9875Se1,744,0.0043448,0.000013212,0.00013786,1.4424,0.72771,75688.7677868604,0.0014384938,0.0009972918
6006,10.1002/adma.201004200,80,1(a),124,Na0.0125Pb0.9875Se1,Na0.0125Pb0.9875Se1,744.5,0.0043369,0.000013235,0.00013805,1.441,0.72882,75557.2346052135,0.0014399549,0.0009992747
6006,10.1002/adma.201004200,80,1(a),124,Na0.0125Pb0.9875Se1,Na0.0125Pb0.9875Se1,745,0.004329,0.000013259,0.00013824,1.4397,0.72993,75420.4691153179,0.0014413076,0.0010011166
6006,10.1002/adma.201004200,80,1(a),124,Na0.0125Pb0.9875Se1,Na0.0125Pb0.9875Se1,745.5,0.0043211,0.000013282,0.00013843,1.4383,0.73104,75289.8659840386,0.0014427695,0.0010031075
6006,10.1002/adma.201004200,80,1(a),124,Na0.0125Pb0.9875Se1,Na0.0125Pb0.9875Se1,746,0.0043132,0.000013306,0.00013863,1.4369,0.73214,75154.0658349617,0.0014443316,0.001005172
6006,10.1002/adma.201004200,80,1(a),124,Na0.0125Pb0.9875Se1,Na0.0125Pb0.9875Se1,746.5,0.0043053,0.000013329,0.00013882,1.4356,0.73325,75024.3829244504,0.0014457943,0.0010071011
6006,10.1002/adma.201004200,80,1(a),124,Na0.0125Pb0.9875Se1,Na0.0125Pb0.9875Se1,747,0.0042974,0.000013353,0.00013901,1.4342,0.73436,74889.537931551,0.001447149,0.0010090287
6006,10.1002/adma.201004200,80,1(a),124,Na0.0125Pb0.9875Se1,Na0.0125Pb0.9875Se1,747.5,0.0042894,0.000013376,0.0001392,1.4329,0.73547,74760.7655502392,0.0014486124,0.0010109655
6006,10.1002/adma.201004200,80,1(a),124,Na0.0125Pb0.9875Se1,Na0.0125Pb0.9875Se1,748,0.0042815,0.0000134,0.0001394,1.4315,0.73658,74626.8656716418,0.0014501761,0.0010130465
6006,10.1002/adma.201004200,80,1(a),124,Na0.0125Pb0.9875Se1,Na0.0125Pb0.9875Se1,748.5,0.0042736,0.000013423,0.00013959,1.4301,0.73768,74498.9942635774,0.0014516403,0.0010150621
6006,10.1002/adma.201004200,80,1(a),124,Na0.0125Pb0.9875Se1,Na0.0125Pb0.9875Se1,749,0.0042657,0.000013447,0.00013978,1.4288,0.73879,74366.0295976798,0.0014529968,0.0010169351
6006,10.1002/adma.201004200,80,1(a),124,Na0.0125Pb0.9875Se1,Na0.0125Pb0.9875Se1,749.5,0.0042578,0.000013471,0.00013998,1.4275,0.7399,74233.5387127904,0.0014545617,0.0010189574
6006,10.1002/adma.201004200,80,1(a),124,Na0.0125Pb0.9875Se1,Na0.0125Pb0.9875Se1,750,0.0042499,0.000013494,0.00014017,1.4261,0.74101,74107.0105231955,0.001456027,0.0010209852
6006,10.1002/adma.201004200,80,1(a),124,Na0.0125Pb0.9875Se1,Na0.0125Pb0.9875Se1,750.5,0.004242,0.000013518,0.00014036,1.4248,0.74211,73975.4401538689,0.0014573849,0.0010228698
6006,10.1002/adma.201004200,80,1(a),124,Na0.0125Pb0.9875Se1,Na0.0125Pb0.9875Se1,751,0.004234,0.000013542,0.00014056,1.4234,0.74322,73844.3361394181,0.0014589509,0.0010249761
6006,10.1002/adma.201004200,80,1(a),124,Na0.0125Pb0.9875Se1,Na0.0125Pb0.9875Se1,751.5,0.0042261,0.000013566,0.00014075,1.4221,0.74433,73713.6960047177,0.0014603098,0.0010268686
6006,10.1002/adma.201004200,80,1(a),124,Na0.0125Pb0.9875Se1,Na0.0125Pb0.9875Se1,752,0.0042182,0.00001359,0.00014094,1.4208,0.74544,73583.5172921266,0.0014616691,0.0010287649
6006,10.1002/adma.201004200,80,1(a),124,Na0.0125Pb0.9875Se1,Na0.0125Pb0.9875Se1,752.5,0.0042103,0.000013614,0.00014114,1.4194,0.74654,73453.7975613339,0.0014632363,0.0010308837
6006,10.1002/adma.201004200,80,1(a),124,Na0.0125Pb0.9875Se1,Na0.0125Pb0.9875Se1,753,0.0042024,0.000013638,0.00014133,1.4181,0.74765,73324.5343892066,0.0014645966,0.001032788
6006,10.1002/adma.201004200,80,1(a),124,Na0.0125Pb0.9875Se1,Na0.0125Pb0.9875Se1,753.5,0.0041945,0.000013662,0.00014152,1.4168,0.74876,73195.7253696384,0.0014659574,0.0010346961
6006,10.1002/adma.201004200,80,1(a),124,Na0.0125Pb0.9875Se1,Na0.0125Pb0.9875Se1,754,0.0041866,0.000013686,0.00014172,1.4155,0.74987,73067.3681134005,0.0014675258,0.0010367544
6006,10.1002/adma.201004200,80,1(a),124,Na0.0125Pb0.9875Se1,Na0.0125Pb0.9875Se1,754.5,0.0041786,0.00001371,0.00014191,1.4142,0.75097,72939.4602479942,0.0014688875,0.0010386703
6006,10.1002/adma.201004200,80,1(a),124,Na0.0125Pb0.9875Se1,Na0.0125Pb0.9875Se1,755,0.0041707,0.000013734,0.00014211,1.4128,0.75208,72811.999417504,0.0014704567,0.0010408102
6006,10.1002/adma.201004200,80,1(a),124,Na0.0125Pb0.9875Se1,Na0.0125Pb0.9875Se1,755.5,0.0041628,0.000013758,0.0001423,1.4115,0.75319,72684.9832824538,0.0014718193,0.0010427342
6006,10.1002/adma.201004200,80,1(a),124,Na0.0125Pb0.9875Se1,Na0.0125Pb0.9875Se1,756,0.0041549,0.000013782,0.00014249,1.4102,0.7543,72558.4095196633,0.0014731824,0.001044662
6006,10.1002/adma.201004200,80,1(a),124,Na0.0125Pb0.9875Se1,Na0.0125Pb0.9875Se1,756.5,0.004147,0.000013806,0.00014269,1.4089,0.7554,72432.2758221063,0.0014747527,0.0010467405
6006,10.1002/adma.201004200,80,1(a),124,Na0.0125Pb0.9875Se1,Na0.0125Pb0.9875Se1,757,0.0041391,0.000013831,0.00014288,1.4076,0.75651,72301.3520352831,0.00147601,0.0010486005
6006,10.1002/adma.201004200,80,1(a),124,Na0.0125Pb0.9875Se1,Na0.0125Pb0.9875Se1,757.5,0.0041312,0.000013855,0.00014308,1.4063,0.75762,72176.1097076868,0.0014775811,0.001050687
6006,10.1002/adma.201004200,80,1(a),124,Na0.0125Pb0.9875Se1,Na0.0125Pb0.9875Se1,758,0.0041232,0.000013879,0.00014327,1.405,0.75873,72051.3005259745,0.0014789461,0.0010526307
6006,10.1002/adma.201004200,80,1(a),124,Na0.0125Pb0.9875Se1,Na0.0125Pb0.9875Se1,758.5,0.0041153,0.000013904,0.00014347,1.4037,0.75984,71921.749136939,0.0014804115,0.0010546495