sid,DOI,figureid,fignum,sampleid,samplename,composition,Temperature,Carrier mobility,Electrical resistivity,Seebeck coefficient,Thermal conductivity,ZT,Electrical conductivity,Power factor,Figure of merit Z
6006,10.1002/adma.201004200,80,1(a),147,Na0.0035Pb0.9965Se1,Na0.0035Pb0.9965Se1,485,0.02049,0.000010668,0.00012321,1.6627,0.44612,93738.2827146607,0.0014230131,0.0008558448
6006,10.1002/adma.201004200,80,1(a),147,Na0.0035Pb0.9965Se1,Na0.0035Pb0.9965Se1,485.5,0.020465,0.000010688,0.00012341,1.6607,0.44712,93562.874251497,0.0014249652,0.0008580509
6006,10.1002/adma.201004200,80,1(a),147,Na0.0035Pb0.9965Se1,Na0.0035Pb0.9965Se1,486,0.020441,0.000010709,0.00012361,1.6587,0.44811,93379.4005042488,0.0014267842,0.0008601822
6006,10.1002/adma.201004200,80,1(a),147,Na0.0035Pb0.9965Se1,Na0.0035Pb0.9965Se1,486.5,0.020417,0.00001073,0.00012381,1.6567,0.44911,93196.6449207828,0.0014286036,0.0008623188
6006,10.1002/adma.201004200,80,1(a),147,Na0.0035Pb0.9965Se1,Na0.0035Pb0.9965Se1,487,0.020393,0.000010751,0.000124,1.6547,0.4501,93014.603292717,0.0014301925,0.0008643214
6006,10.1002/adma.201004200,80,1(a),147,Na0.0035Pb0.9965Se1,Na0.0035Pb0.9965Se1,487.5,0.020369,0.000010772,0.0001242,1.6528,0.4511,92833.2714444857,0.0014320126,0.0008664162
6006,10.1002/adma.201004200,80,1(a),147,Na0.0035Pb0.9965Se1,Na0.0035Pb0.9965Se1,488,0.020345,0.000010793,0.0001244,1.6508,0.4521,92652.6452330214,0.001433833,0.0008685686
6006,10.1002/adma.201004200,80,1(a),147,Na0.0035Pb0.9965Se1,Na0.0035Pb0.9965Se1,488.5,0.02032,0.000010814,0.00012459,1.6488,0.45309,92472.7205474385,0.0014354233,0.0008705867
6006,10.1002/adma.201004200,80,1(a),147,Na0.0035Pb0.9965Se1,Na0.0035Pb0.9965Se1,489,0.020296,0.000010835,0.00012479,1.6469,0.45409,92293.4933087217,0.0014372445,0.0008726969
6006,10.1002/adma.201004200,80,1(a),147,Na0.0035Pb0.9965Se1,Na0.0035Pb0.9965Se1,489.5,0.020272,0.000010856,0.00012499,1.6449,0.45509,92114.9594694178,0.001439066,0.0008748653
6006,10.1002/adma.201004200,80,1(a),147,Na0.0035Pb0.9965Se1,Na0.0035Pb0.9965Se1,490,0.020248,0.000010877,0.00012519,1.6429,0.45608,91937.1150133309,0.0014408878,0.0008770392
6006,10.1002/adma.201004200,80,1(a),147,Na0.0035Pb0.9965Se1,Na0.0035Pb0.9965Se1,490.5,0.020224,0.000010898,0.00012538,1.641,0.45708,91759.9559552211,0.0014424798,0.0008790248
6006,10.1002/adma.201004200,80,1(a),147,Na0.0035Pb0.9965Se1,Na0.0035Pb0.9965Se1,491,0.020199,0.00001092,0.00012558,1.639,0.45807,91575.0915750916,0.00144417,0.0008811287
6006,10.1002/adma.201004200,80,1(a),147,Na0.0035Pb0.9965Se1,Na0.0035Pb0.9965Se1,491.5,0.020175,0.000010941,0.00012578,1.6371,0.45907,91399.323645005,0.0014459929,0.0008832649
6006,10.1002/adma.201004200,80,1(a),147,Na0.0035Pb0.9965Se1,Na0.0035Pb0.9965Se1,492,0.020151,0.000010963,0.00012598,1.6352,0.46007,91215.9080543647,0.0014476841,0.0008853254
6006,10.1002/adma.201004200,80,1(a),147,Na0.0035Pb0.9965Se1,Na0.0035Pb0.9965Se1,492.5,0.020127,0.000010984,0.00012617,1.6332,0.46106,91041.5149308085,0.0014492779,0.0008873855
6006,10.1002/adma.201004200,80,1(a),147,Na0.0035Pb0.9965Se1,Na0.0035Pb0.9965Se1,493,0.020103,0.000011005,0.00012637,1.6313,0.46206,90867.7873693775,0.0014511019,0.0008895371
6006,10.1002/adma.201004200,80,1(a),147,Na0.0035Pb0.9965Se1,Na0.0035Pb0.9965Se1,493.5,0.020079,0.000011027,0.00012657,1.6294,0.46305,90686.4967806294,0.0014527945,0.0008916132
6006,10.1002/adma.201004200,80,1(a),147,Na0.0035Pb0.9965Se1,Na0.0035Pb0.9965Se1,494,0.020054,0.000011049,0.00012676,1.6274,0.46405,90505.928138293,0.0014542581,0.0008936083
6006,10.1002/adma.201004200,80,1(a),147,Na0.0035Pb0.9965Se1,Na0.0035Pb0.9965Se1,494.5,0.02003,0.00001107,0.00012696,1.6255,0.46505,90334.2366757001,0.0014560833,0.0008957756
6006,10.1002/adma.201004200,80,1(a),147,Na0.0035Pb0.9965Se1,Na0.0035Pb0.9965Se1,495,0.020006,0.000011092,0.00012716,1.6236,0.46604,90155.0667147494,0.0014577773,0.0008978673
6006,10.1002/adma.201004200,80,1(a),147,Na0.0035Pb0.9965Se1,Na0.0035Pb0.9965Se1,495.5,0.019982,0.000011114,0.00012735,1.6217,0.46704,89976.6060824186,0.0014592426,0.0008998228
6006,10.1002/adma.201004200,80,1(a),147,Na0.0035Pb0.9965Se1,Na0.0035Pb0.9965Se1,496,0.019958,0.000011135,0.00012755,1.6198,0.46804,89806.9151324652,0.0014610689,0.0009020058
6006,10.1002/adma.201004200,80,1(a),147,Na0.0035Pb0.9965Se1,Na0.0035Pb0.9965Se1,496.5,0.019934,0.000011157,0.00012775,1.6179,0.46903,89629.828807027,0.0014627644,0.000904113
6006,10.1002/adma.201004200,80,1(a),147,Na0.0035Pb0.9965Se1,Na0.0035Pb0.9965Se1,497,0.019909,0.000011179,0.00012794,1.616,0.47003,89453.4394847482,0.0014642315,0.0009060838
6006,10.1002/adma.201004200,80,1(a),147,Na0.0035Pb0.9965Se1,Na0.0035Pb0.9965Se1,497.5,0.019885,0.000011201,0.00012814,1.6141,0.47102,89277.7430586555,0.001465928,0.0009082015
6006,10.1002/adma.201004200,80,1(a),147,Na0.0035Pb0.9965Se1,Na0.0035Pb0.9965Se1,498,0.019861,0.000011223,0.00012834,1.6122,0.47202,89102.7354539784,0.001467625,0.0009103244
6006,10.1002/adma.201004200,80,1(a),147,Na0.0035Pb0.9965Se1,Na0.0035Pb0.9965Se1,498.5,0.019837,0.000011245,0.00012853,1.6104,0.47302,88928.4126278346,0.0014690939,0.000912254
6006,10.1002/adma.201004200,80,1(a),147,Na0.0035Pb0.9965Se1,Na0.0035Pb0.9965Se1,499,0.019813,0.000011267,0.00012873,1.6085,0.47401,88754.7705689181,0.0014707919,0.0009143873
6006,10.1002/adma.201004200,80,1(a),147,Na0.0035Pb0.9965Se1,Na0.0035Pb0.9965Se1,499.5,0.019788,0.00001129,0.00012893,1.6066,0.47501,88573.9592559787,0.00147236,0.0009164447
6006,10.1002/adma.201004200,80,1(a),147,Na0.0035Pb0.9965Se1,Na0.0035Pb0.9965Se1,500,0.019764,0.000011312,0.00012912,1.6047,0.476,88401.6973125884,0.0014738308,0.0009184463
6006,10.1002/adma.201004200,80,1(a),147,Na0.0035Pb0.9965Se1,Na0.0035Pb0.9965Se1,500.5,0.01974,0.000011334,0.00012932,1.6029,0.477,88230.1041115228,0.0014755305,0.0009205381
6006,10.1002/adma.201004200,80,1(a),147,Na0.0035Pb0.9965Se1,Na0.0035Pb0.9965Se1,501,0.019716,0.000011356,0.00012952,1.601,0.478,88059.1757661148,0.0014772306,0.0009226924
6006,10.1002/adma.201004200,80,1(a),147,Na0.0035Pb0.9965Se1,Na0.0035Pb0.9965Se1,501.5,0.019692,0.000011379,0.00012971,1.5992,0.47899,87881.1846383689,0.0014785732,0.0009245705
6006,10.1002/adma.201004200,80,1(a),147,Na0.0035Pb0.9965Se1,Na0.0035Pb0.9965Se1,502,0.019668,0.000011401,0.00012991,1.5973,0.47999,87711.6042452416,0.0014802744,0.0009267353
6006,10.1002/adma.201004200,80,1(a),147,Na0.0035Pb0.9965Se1,Na0.0035Pb0.9965Se1,502.5,0.019643,0.000011424,0.00013011,1.5955,0.48098,87535.0140056023,0.0014818463,0.0009287661
6006,10.1002/adma.201004200,80,1(a),147,Na0.0035Pb0.9965Se1,Na0.0035Pb0.9965Se1,503,0.019619,0.000011446,0.0001303,1.5936,0.48198,87366.7656823344,0.0014833208,0.0009307987
6006,10.1002/adma.201004200,80,1(a),147,Na0.0035Pb0.9965Se1,Na0.0035Pb0.9965Se1,503.5,0.019595,0.000011469,0.0001305,1.5918,0.48298,87191.5598570059,0.0014848941,0.0009328396
6006,10.1002/adma.201004200,80,1(a),147,Na0.0035Pb0.9965Se1,Na0.0035Pb0.9965Se1,504,0.019571,0.000011492,0.00013069,1.5899,0.48397,87017.0553428472,0.0014862405,0.0009348013
6006,10.1002/adma.201004200,80,1(a),147,Na0.0035Pb0.9965Se1,Na0.0035Pb0.9965Se1,504.5,0.019547,0.000011514,0.00013089,1.5881,0.48497,86850.7903421921,0.0014879444,0.0009369337
6006,10.1002/adma.201004200,80,1(a),147,Na0.0035Pb0.9965Se1,Na0.0035Pb0.9965Se1,505,0.019523,0.000011537,0.00013109,1.5863,0.48597,86677.6458351391,0.0014895196,0.0009389899
6006,10.1002/adma.201004200,80,1(a),147,Na0.0035Pb0.9965Se1,Na0.0035Pb0.9965Se1,505.5,0.019498,0.00001156,0.00013128,1.5844,0.48696,86505.1903114187,0.0014908684,0.0009409672
6006,10.1002/adma.201004200,80,1(a),147,Na0.0035Pb0.9965Se1,Na0.0035Pb0.9965Se1,506,0.019474,0.000011583,0.00013148,1.5826,0.48796,86333.419666753,0.001492445,0.0009430336
6006,10.1002/adma.201004200,80,1(a),147,Na0.0035Pb0.9965Se1,Na0.0035Pb0.9965Se1,506.5,0.01945,0.000011606,0.00013167,1.5808,0.48895,86162.3298293986,0.0014937954,0.0009449616
6006,10.1002/adma.201004200,80,1(a),147,Na0.0035Pb0.9965Se1,Na0.0035Pb0.9965Se1,507,0.019426,0.000011629,0.00013187,1.579,0.48995,85991.9167598246,0.0014953734,0.0009470382
6006,10.1002/adma.201004200,80,1(a),147,Na0.0035Pb0.9965Se1,Na0.0035Pb0.9965Se1,507.5,0.019402,0.000011652,0.00013206,1.5772,0.49095,85822.1764503948,0.0014967253,0.0009489762
6006,10.1002/adma.201004200,80,1(a),147,Na0.0035Pb0.9965Se1,Na0.0035Pb0.9965Se1,508,0.019377,0.000011675,0.00013226,1.5754,0.49194,85653.1049250535,0.0014983047,0.000951063
6006,10.1002/adma.201004200,80,1(a),147,Na0.0035Pb0.9965Se1,Na0.0035Pb0.9965Se1,508.5,0.019353,0.000011698,0.00013246,1.5736,0.49294,85484.6982390152,0.0014998847,0.000953155
6006,10.1002/adma.201004200,80,1(a),147,Na0.0035Pb0.9965Se1,Na0.0035Pb0.9965Se1,509,0.019329,0.000011721,0.00013265,1.5718,0.49393,85316.9524784575,0.001501239,0.0009551082
6006,10.1002/adma.201004200,80,1(a),147,Na0.0035Pb0.9965Se1,Na0.0035Pb0.9965Se1,509.5,0.019305,0.000011745,0.00013285,1.57,0.49493,85142.6138782461,0.0015026924,0.0009571289
6006,10.1002/adma.201004200,80,1(a),147,Na0.0035Pb0.9965Se1,Na0.0035Pb0.9965Se1,510,0.019281,0.000011768,0.00013304,1.5682,0.49593,84976.2066621346,0.0015040484,0.0009590922
6006,10.1002/adma.201004200,80,1(a),147,Na0.0035Pb0.9965Se1,Na0.0035Pb0.9965Se1,510.5,0.019257,0.000011791,0.00013324,1.5664,0.49692,84810.4486472734,0.0015056312,0.0009612048
6006,10.1002/adma.201004200,80,1(a),147,Na0.0035Pb0.9965Se1,Na0.0035Pb0.9965Se1,511,0.019232,0.000011815,0.00013343,1.5646,0.49792,84638.1718154888,0.0015068612,0.0009630968
6006,10.1002/adma.201004200,80,1(a),147,Na0.0035Pb0.9965Se1,Na0.0035Pb0.9965Se1,511.5,0.019208,0.000011838,0.00013363,1.5629,0.49891,84473.7286703835,0.0015084454,0.000965158
6006,10.1002/adma.201004200,80,1(a),147,Na0.0035Pb0.9965Se1,Na0.0035Pb0.9965Se1,512,0.019184,0.000011862,0.00013382,1.5611,0.49991,84302.8157140449,0.0015096773,0.00096706
6006,10.1002/adma.201004200,80,1(a),147,Na0.0035Pb0.9965Se1,Na0.0035Pb0.9965Se1,512.5,0.01916,0.000011886,0.00013402,1.5593,0.50091,84132.5929665152,0.0015111358,0.0009691117
6006,10.1002/adma.201004200,80,1(a),147,Na0.0035Pb0.9965Se1,Na0.0035Pb0.9965Se1,513,0.019136,0.000011909,0.00013421,1.5575,0.5019,83970.1066420354,0.0015124968,0.0009711055
6006,10.1002/adma.201004200,80,1(a),147,Na0.0035Pb0.9965Se1,Na0.0035Pb0.9965Se1,513.5,0.019112,0.000011933,0.00013441,1.5558,0.5029,83801.2234978631,0.0015139569,0.0009731051
6006,10.1002/adma.201004200,80,1(a),147,Na0.0035Pb0.9965Se1,Na0.0035Pb0.9965Se1,514,0.019087,0.000011957,0.0001346,1.554,0.5039,83633.018315631,0.0015151928,0.0009750275
6006,10.1002/adma.201004200,80,1(a),147,Na0.0035Pb0.9965Se1,Na0.0035Pb0.9965Se1,514.5,0.019063,0.000011981,0.0001348,1.5523,0.50489,83465.4870211168,0.0015166547,0.0009770371
6006,10.1002/adma.201004200,80,1(a),147,Na0.0035Pb0.9965Se1,Na0.0035Pb0.9965Se1,515,0.019039,0.000012005,0.00013499,1.5505,0.50589,83298.6255726781,0.0015178926,0.0009789697
6006,10.1002/adma.201004200,80,1(a),147,Na0.0035Pb0.9965Se1,Na0.0035Pb0.9965Se1,515.5,0.019015,0.000012029,0.00013519,1.5488,0.50688,83132.4299609278,0.0015193562,0.0009809893
6006,10.1002/adma.201004200,80,1(a),147,Na0.0035Pb0.9965Se1,Na0.0035Pb0.9965Se1,516,0.018991,0.000012053,0.00013538,1.547,0.50788,82966.8962084128,0.0015205961,0.0009829322
6006,10.1002/adma.201004200,80,1(a),147,Na0.0035Pb0.9965Se1,Na0.0035Pb0.9965Se1,516.5,0.018966,0.000012077,0.00013558,1.5453,0.50888,82802.020369297,0.0015220615,0.0009849618
6006,10.1002/adma.201004200,80,1(a),147,Na0.0035Pb0.9965Se1,Na0.0035Pb0.9965Se1,517,0.018942,0.000012101,0.00013577,1.5435,0.50987,82637.7985290472,0.0015233033,0.000986915
6006,10.1002/adma.201004200,80,1(a),147,Na0.0035Pb0.9965Se1,Na0.0035Pb0.9965Se1,517.5,0.018918,0.000012126,0.00013597,1.5418,0.51087,82467.42536698,0.0015246446,0.0009888732
6006,10.1002/adma.201004200,80,1(a),147,Na0.0035Pb0.9965Se1,Na0.0035Pb0.9965Se1,518,0.018894,0.00001215,0.00013616,1.5401,0.51186,82304.5267489712,0.0015258885,0.0009907724
6006,10.1002/adma.201004200,80,1(a),147,Na0.0035Pb0.9965Se1,Na0.0035Pb0.9965Se1,518.5,0.01887,0.000012174,0.00013636,1.5383,0.51286,82142.2704123542,0.0015273575,0.0009928866
6006,10.1002/adma.201004200,80,1(a),147,Na0.0035Pb0.9965Se1,Na0.0035Pb0.9965Se1,519,0.018846,0.000012199,0.00013655,1.5366,0.51386,81973.9322895319,0.0015284779,0.0009947143
6006,10.1002/adma.201004200,80,1(a),147,Na0.0035Pb0.9965Se1,Na0.0035Pb0.9965Se1,519.5,0.018821,0.000012223,0.00013675,1.5349,0.51485,81812.9755379203,0.0015299487,0.0009967742
6006,10.1002/adma.201004200,80,1(a),147,Na0.0035Pb0.9965Se1,Na0.0035Pb0.9965Se1,520,0.018797,0.000012248,0.00013694,1.5332,0.51585,81645.9830176355,0.0015310715,0.0009986117
6006,10.1002/adma.201004200,80,1(a),147,Na0.0035Pb0.9965Se1,Na0.0035Pb0.9965Se1,520.5,0.018773,0.000012272,0.00013713,1.5315,0.51684,81486.3102998696,0.0015323205,0.0010005357
6006,10.1002/adma.201004200,80,1(a),147,Na0.0035Pb0.9965Se1,Na0.0035Pb0.9965Se1,521,0.018749,0.000012297,0.00013733,1.5297,0.51784,81320.6473123526,0.0015336691,0.0010025947
6006,10.1002/adma.201004200,80,1(a),147,Na0.0035Pb0.9965Se1,Na0.0035Pb0.9965Se1,521.5,0.018725,0.000012322,0.00013752,1.528,0.51884,81155.6565492615,0.0015347955,0.0010044473
6006,10.1002/adma.201004200,80,1(a),147,Na0.0035Pb0.9965Se1,Na0.0035Pb0.9965Se1,522,0.018701,0.000012347,0.00013772,1.5263,0.51983,80991.3339272698,0.0015361463,0.0010064511
6006,10.1002/adma.201004200,80,1(a),147,Na0.0035Pb0.9965Se1,Na0.0035Pb0.9965Se1,522.5,0.018676,0.000012372,0.00013791,1.5246,0.52083,80827.6753960556,0.0015372751,0.0010083138
6006,10.1002/adma.201004200,80,1(a),147,Na0.0035Pb0.9965Se1,Na0.0035Pb0.9965Se1,523,0.018652,0.000012396,0.0001381,1.5229,0.52183,80671.1842529848,0.0015385294,0.0010102629
6006,10.1002/adma.201004200,80,1(a),147,Na0.0035Pb0.9965Se1,Na0.0035Pb0.9965Se1,523.5,0.018628,0.000012422,0.0001383,1.5212,0.52282,80502.3345677025,0.0015397593,0.0010122004
6006,10.1002/adma.201004200,80,1(a),147,Na0.0035Pb0.9965Se1,Na0.0035Pb0.9965Se1,524,0.018604,0.000012447,0.00013849,1.5196,0.52382,80340.6443319675,0.0015408918,0.0010140114
6006,10.1002/adma.201004200,80,1(a),147,Na0.0035Pb0.9965Se1,Na0.0035Pb0.9965Se1,524.5,0.01858,0.000012472,0.00013869,1.5179,0.52481,80179.6023091726,0.0015422479,0.0010160405
6006,10.1002/adma.201004200,80,1(a),147,Na0.0035Pb0.9965Se1,Na0.0035Pb0.9965Se1,525,0.018555,0.000012497,0.00013888,1.5162,0.52581,80019.2046091062,0.0015433828,0.0010179282
6006,10.1002/adma.201004200,80,1(a),147,Na0.0035Pb0.9965Se1,Na0.0035Pb0.9965Se1,525.5,0.018531,0.000012522,0.00013907,1.5145,0.52681,79859.4473726242,0.0015445188,0.001019821
6006,10.1002/adma.201004200,80,1(a),147,Na0.0035Pb0.9965Se1,Na0.0035Pb0.9965Se1,526,0.018507,0.000012548,0.00013927,1.5128,0.5278,79693.9751354797,0.0015457549,0.0010217841
6006,10.1002/adma.201004200,80,1(a),147,Na0.0035Pb0.9965Se1,Na0.0035Pb0.9965Se1,526.5,0.018483,0.000012573,0.00013946,1.5112,0.5288,79535.5126063787,0.0015468935,0.0010236193
6006,10.1002/adma.201004200,80,1(a),147,Na0.0035Pb0.9965Se1,Na0.0035Pb0.9965Se1,527,0.018459,0.000012598,0.00013966,1.5095,0.52979,79377.6789966661,0.0015482549,0.001025674
6006,10.1002/adma.201004200,80,1(a),147,Na0.0035Pb0.9965Se1,Na0.0035Pb0.9965Se1,527.5,0.018435,0.000012624,0.00013985,1.5078,0.53079,79214.1951837769,0.001549273,0.0010275056
6006,10.1002/adma.201004200,80,1(a),147,Na0.0035Pb0.9965Se1,Na0.0035Pb0.9965Se1,528,0.01841,0.00001265,0.00014004,1.5062,0.53179,79051.3833992095,0.0015502926,0.0010292741
6006,10.1002/adma.201004200,80,1(a),147,Na0.0035Pb0.9965Se1,Na0.0035Pb0.9965Se1,528.5,0.018386,0.000012675,0.00014024,1.5045,0.53278,78895.4635108481,0.0015516574,0.0010313442
6006,10.1002/adma.201004200,80,1(a),147,Na0.0035Pb0.9965Se1,Na0.0035Pb0.9965Se1,529,0.018362,0.000012701,0.00014043,1.5028,0.53378,78733.9579560665,0.0015526797,0.0010331912
6006,10.1002/adma.201004200,80,1(a),147,Na0.0035Pb0.9965Se1,Na0.0035Pb0.9965Se1,529.5,0.018338,0.000012727,0.00014062,1.5012,0.53477,78573.1122809775,0.0015537035,0.0010349744
6006,10.1002/adma.201004200,80,1(a),147,Na0.0035Pb0.9965Se1,Na0.0035Pb0.9965Se1,530,0.018314,0.000012753,0.00014082,1.4995,0.53577,78412.9224496197,0.0015549496,0.0010369787
6006,10.1002/adma.201004200,80,1(a),147,Na0.0035Pb0.9965Se1,Na0.0035Pb0.9965Se1,530.5,0.018289,0.000012779,0.00014101,1.4979,0.53677,78253.3844588778,0.0015559762,0.0010387718
6006,10.1002/adma.201004200,80,1(a),147,Na0.0035Pb0.9965Se1,Na0.0035Pb0.9965Se1,531,0.018265,0.000012805,0.0001412,1.4962,0.53776,78094.4943381492,0.0015570043,0.0010406391
6006,10.1002/adma.201004200,80,1(a),147,Na0.0035Pb0.9965Se1,Na0.0035Pb0.9965Se1,531.5,0.018241,0.000012831,0.0001414,1.4946,0.53876,77936.2481490141,0.0015582542,0.0010425895
6006,10.1002/adma.201004200,80,1(a),147,Na0.0035Pb0.9965Se1,Na0.0035Pb0.9965Se1,532,0.018217,0.000012857,0.00014159,1.493,0.53976,77778.6419849109,0.0015592851,0.0010443972
6006,10.1002/adma.201004200,80,1(a),147,Na0.0035Pb0.9965Se1,Na0.0035Pb0.9965Se1,532.5,0.018193,0.000012883,0.00014178,1.4913,0.54075,77621.6719708142,0.0015603173,0.00104628
6006,10.1002/adma.201004200,80,1(a),147,Na0.0035Pb0.9965Se1,Na0.0035Pb0.9965Se1,533,0.018169,0.000012909,0.00014198,1.4897,0.54175,77465.3342629173,0.001561571,0.0010482453
6006,10.1002/adma.201004200,80,1(a),147,Na0.0035Pb0.9965Se1,Na0.0035Pb0.9965Se1,533.5,0.018144,0.000012936,0.00014217,1.4881,0.54274,77303.6487322202,0.0015624852,0.0010499867
6006,10.1002/adma.201004200,80,1(a),147,Na0.0035Pb0.9965Se1,Na0.0035Pb0.9965Se1,534,0.01812,0.000012962,0.00014236,1.4864,0.54374,77148.5881808363,0.0015635218,0.001051885
6006,10.1002/adma.201004200,80,1(a),147,Na0.0035Pb0.9965Se1,Na0.0035Pb0.9965Se1,534.5,0.018096,0.000012989,0.00014256,1.4848,0.54474,76988.2208022173,0.0015646588,0.0010537842
6006,10.1002/adma.201004200,80,1(a),147,Na0.0035Pb0.9965Se1,Na0.0035Pb0.9965Se1,535,0.018072,0.000013015,0.00014275,1.4832,0.54573,76834.4218209758,0.0015656982,0.0010556218
6006,10.1002/adma.201004200,80,1(a),147,Na0.0035Pb0.9965Se1,Na0.0035Pb0.9965Se1,535.5,0.018048,0.000013042,0.00014294,1.4816,0.54673,76675.3565404079,0.0015666189,0.0010573832
6006,10.1002/adma.201004200,80,1(a),147,Na0.0035Pb0.9965Se1,Na0.0035Pb0.9965Se1,536,0.018024,0.000013069,0.00014313,1.48,0.54772,76516.9485040937,0.0015675413,0.0010591495
6006,10.1002/adma.201004200,80,1(a),147,Na0.0035Pb0.9965Se1,Na0.0035Pb0.9965Se1,536.5,0.017999,0.000013096,0.00014333,1.4784,0.54872,76359.1936469151,0.0015686842,0.0010610689
6006,10.1002/adma.201004200,80,1(a),147,Na0.0035Pb0.9965Se1,Na0.0035Pb0.9965Se1,537,0.017975,0.000013122,0.00014352,1.4768,0.54972,76207.8951379363,0.0015697295,0.0010629263
6006,10.1002/adma.201004200,80,1(a),147,Na0.0035Pb0.9965Se1,Na0.0035Pb0.9965Se1,537.5,0.017951,0.000013149,0.00014371,1.4752,0.55071,76051.4107536695,0.0015706566,0.0010647076
6006,10.1002/adma.201004200,80,1(a),147,Na0.0035Pb0.9965Se1,Na0.0035Pb0.9965Se1,538,0.017927,0.000013176,0.00014391,1.4736,0.55171,75895.5676988464,0.0015718039,0.0010666422
6006,10.1002/adma.201004200,80,1(a),147,Na0.0035Pb0.9965Se1,Na0.0035Pb0.9965Se1,538.5,0.017903,0.000013203,0.0001441,1.472,0.55271,75740.3620389305,0.0015727342,0.0010684336
6006,10.1002/adma.201004200,80,1(a),147,Na0.0035Pb0.9965Se1,Na0.0035Pb0.9965Se1,539,0.017878,0.000013231,0.00014429,1.4704,0.5537,75580.0770916786,0.0015735473,0.0010701491
6006,10.1002/adma.201004200,80,1(a),147,Na0.0035Pb0.9965Se1,Na0.0035Pb0.9965Se1,539.5,0.017854,0.000013258,0.00014448,1.4688,0.5547,75426.1577915221,0.0015744811,0.0010719506
6006,10.1002/adma.201004200,80,1(a),147,Na0.0035Pb0.9965Se1,Na0.0035Pb0.9965Se1,540,0.01783,0.000013285,0.00014468,1.4672,0.55569,75272.8641324802,0.0015756344,0.0010739056
6006,10.1002/adma.201004200,80,1(a),147,Na0.0035Pb0.9965Se1,Na0.0035Pb0.9965Se1,540.5,0.017806,0.000013312,0.00014487,1.4656,0.55669,75120.1923076923,0.0015765713,0.0010757173
6006,10.1002/adma.201004200,80,1(a),147,Na0.0035Pb0.9965Se1,Na0.0035Pb0.9965Se1,541,0.017782,0.00001334,0.00014506,1.464,0.55769,74962.5187406297,0.0015773916,0.0010774533