sid,DOI,figureid,fignum,sampleid,samplename,composition,Temperature,Carrier mobility,Electrical resistivity,Seebeck coefficient,Thermal conductivity,ZT,Electrical conductivity,Power factor,Figure of merit Z
6006,10.1002/adma.201004200,80,1(a),124,Na0.0125Pb0.9875Se1,Na0.0125Pb0.9875Se1,370,0.010265,0.0000038257,0.000026492,3.2294,-0.10079,261390.0724050501,0.0001834504,0.0000568063
6006,10.1002/adma.201004200,80,1(a),124,Na0.0125Pb0.9875Se1,Na0.0125Pb0.9875Se1,370.5,0.010257,0.0000038316,0.000026576,3.2253,-0.099679,260987.5769913352,0.0001843313,0.0000571517
6006,10.1002/adma.201004200,80,1(a),124,Na0.0125Pb0.9875Se1,Na0.0125Pb0.9875Se1,371,0.010249,0.0000038376,0.00002666,3.2212,-0.098572,260579.5288722118,0.0001852084,0.0000574967
6006,10.1002/adma.201004200,80,1(a),124,Na0.0125Pb0.9875Se1,Na0.0125Pb0.9875Se1,371.5,0.010241,0.0000038436,0.000026746,3.2172,-0.097464,260172.7547091269,0.0001861142,0.0000578497
6006,10.1002/adma.201004200,80,1(a),124,Na0.0125Pb0.9875Se1,Na0.0125Pb0.9875Se1,372,0.010233,0.0000038496,0.000026833,3.2131,-0.096356,259767.2485453034,0.000187035,0.0000582101
6006,10.1002/adma.201004200,80,1(a),124,Na0.0125Pb0.9875Se1,Na0.0125Pb0.9875Se1,372.5,0.010225,0.0000038556,0.00002692,3.209,-0.095249,259363.0044610437,0.0001879568,0.0000585718
6006,10.1002/adma.201004200,80,1(a),124,Na0.0125Pb0.9875Se1,Na0.0125Pb0.9875Se1,373,0.010217,0.0000038617,0.000027008,3.205,-0.094141,258953.3107180776,0.0001888888,0.0000589357
6006,10.1002/adma.201004200,80,1(a),124,Na0.0125Pb0.9875Se1,Na0.0125Pb0.9875Se1,373.5,0.010209,0.0000038677,0.000027097,3.2009,-0.093033,258551.5939705768,0.0001898408,0.0000593086
6006,10.1002/adma.201004200,80,1(a),124,Na0.0125Pb0.9875Se1,Na0.0125Pb0.9875Se1,374,0.010201,0.0000038738,0.000027186,3.1969,-0.091926,258144.4576384945,0.000190789,0.0000596794
6006,10.1002/adma.201004200,80,1(a),124,Na0.0125Pb0.9875Se1,Na0.0125Pb0.9875Se1,374.5,0.010194,0.0000038799,0.000027277,3.1929,-0.090818,257738.6015103482,0.0001917665,0.0000600603
6006,10.1002/adma.201004200,80,1(a),124,Na0.0125Pb0.9875Se1,Na0.0125Pb0.9875Se1,375,0.010186,0.000003886,0.000027368,3.1889,-0.089711,257334.0195573855,0.0001927451,0.0000604425
6006,10.1002/adma.201004200,80,1(a),124,Na0.0125Pb0.9875Se1,Na0.0125Pb0.9875Se1,375.5,0.010178,0.0000038921,0.00002746,3.1849,-0.088603,256930.7057886488,0.000193739,0.0000608305
6006,10.1002/adma.201004200,80,1(a),124,Na0.0125Pb0.9875Se1,Na0.0125Pb0.9875Se1,376,0.01017,0.0000038983,0.000027552,3.1809,-0.087495,256522.073724444,0.0001947292,0.0000612183
6006,10.1002/adma.201004200,80,1(a),124,Na0.0125Pb0.9875Se1,Na0.0125Pb0.9875Se1,376.5,0.010162,0.0000039044,0.000027646,3.1769,-0.086388,256121.2990472288,0.0001957538,0.0000616179
6006,10.1002/adma.201004200,80,1(a),124,Na0.0125Pb0.9875Se1,Na0.0125Pb0.9875Se1,377,0.010154,0.0000039106,0.00002774,3.1729,-0.08528,255715.2355137319,0.0001967748,0.0000620173
6006,10.1002/adma.201004200,80,1(a),124,Na0.0125Pb0.9875Se1,Na0.0125Pb0.9875Se1,377.5,0.010146,0.0000039168,0.000027835,3.169,-0.084172,255310.4575163398,0.0001978113,0.0000624207
6006,10.1002/adma.201004200,80,1(a),124,Na0.0125Pb0.9875Se1,Na0.0125Pb0.9875Se1,378,0.010138,0.000003923,0.00002793,3.165,-0.083065,254906.9589599796,0.0001988491,0.0000628275
6006,10.1002/adma.201004200,80,1(a),124,Na0.0125Pb0.9875Se1,Na0.0125Pb0.9875Se1,378.5,0.01013,0.0000039293,0.000028026,3.1611,-0.081957,254498.2566869417,0.0001998974,0.0000632366
6006,10.1002/adma.201004200,80,1(a),124,Na0.0125Pb0.9875Se1,Na0.0125Pb0.9875Se1,379,0.010122,0.0000039355,0.000028123,3.1572,-0.08085,254097.3192732817,0.0002009664,0.0000636534
6006,10.1002/adma.201004200,80,1(a),124,Na0.0125Pb0.9875Se1,Na0.0125Pb0.9875Se1,379.5,0.010114,0.0000039418,0.000028221,3.1533,-0.079742,253691.2070627632,0.000202046,0.0000640745
6006,10.1002/adma.201004200,80,1(a),124,Na0.0125Pb0.9875Se1,Na0.0125Pb0.9875Se1,380,0.010106,0.000003948,0.000028319,3.1494,-0.078634,253292.8064842958,0.0002031322,0.0000644987
6006,10.1002/adma.201004200,80,1(a),124,Na0.0125Pb0.9875Se1,Na0.0125Pb0.9875Se1,380.5,0.010099,0.0000039543,0.000028418,3.1455,-0.077527,252889.2597931366,0.000204229,0.0000649274
6006,10.1002/adma.201004200,80,1(a),124,Na0.0125Pb0.9875Se1,Na0.0125Pb0.9875Se1,381,0.010091,0.0000039606,0.000028518,3.1416,-0.076419,252486.9969196586,0.0002053417,0.0000653621
6006,10.1002/adma.201004200,80,1(a),124,Na0.0125Pb0.9875Se1,Na0.0125Pb0.9875Se1,381.5,0.010083,0.000003967,0.000028618,3.1377,-0.075311,252079.6571716662,0.0002064507,0.0000657968
6006,10.1002/adma.201004200,80,1(a),124,Na0.0125Pb0.9875Se1,Na0.0125Pb0.9875Se1,382,0.010075,0.0000039733,0.000028719,3.1339,-0.074204,251679.9637580852,0.0002075808,0.0000662372
6006,10.1002/adma.201004200,80,1(a),124,Na0.0125Pb0.9875Se1,Na0.0125Pb0.9875Se1,382.5,0.010067,0.0000039797,0.000028821,3.13,-0.073096,251275.2217503832,0.0002087218,0.0000666843
6006,10.1002/adma.201004200,80,1(a),124,Na0.0125Pb0.9875Se1,Na0.0125Pb0.9875Se1,383,0.010059,0.000003986,0.000028923,3.1262,-0.071989,250878.0732563974,0.0002098695,0.0000671325
6006,10.1002/adma.201004200,80,1(a),124,Na0.0125Pb0.9875Se1,Na0.0125Pb0.9875Se1,383.5,0.010051,0.0000039924,0.000029026,3.1224,-0.070881,250475.9042180142,0.0002110281,0.0000675852
6006,10.1002/adma.201004200,80,1(a),124,Na0.0125Pb0.9875Se1,Na0.0125Pb0.9875Se1,384,0.010043,0.0000039988,0.00002913,3.1186,-0.069773,250075.0225067521,0.0002122029,0.0000680443
6006,10.1002/adma.201004200,80,1(a),124,Na0.0125Pb0.9875Se1,Na0.0125Pb0.9875Se1,384.5,0.010035,0.0000040052,0.000029234,3.1148,-0.068666,249675.4219514631,0.0002133793,0.000068505
6006,10.1002/adma.201004200,80,1(a),124,Na0.0125Pb0.9875Se1,Na0.0125Pb0.9875Se1,385,0.010027,0.0000040117,0.000029339,3.111,-0.067558,249270.8826681955,0.0002145666,0.0000689703
6006,10.1002/adma.201004200,80,1(a),124,Na0.0125Pb0.9875Se1,Na0.0125Pb0.9875Se1,385.5,0.010019,0.0000040181,0.000029445,3.1072,-0.066451,248873.8458475399,0.0002157756,0.0000694438
6006,10.1002/adma.201004200,80,1(a),124,Na0.0125Pb0.9875Se1,Na0.0125Pb0.9875Se1,386,0.010011,0.0000040246,0.000029551,3.1034,-0.065343,248471.8978283556,0.000216981,0.0000699172
6006,10.1002/adma.201004200,80,1(a),124,Na0.0125Pb0.9875Se1,Na0.0125Pb0.9875Se1,386.5,0.010004,0.0000040311,0.000029658,3.0996,-0.064235,248071.246061869,0.0002182027,0.0000703971
6006,10.1002/adma.201004200,80,1(a),124,Na0.0125Pb0.9875Se1,Na0.0125Pb0.9875Se1,387,0.0099957,0.0000040375,0.000029765,3.0959,-0.063128,247678.0185758514,0.0002194316,0.0000708781
6006,10.1002/adma.201004200,80,1(a),124,Na0.0125Pb0.9875Se1,Na0.0125Pb0.9875Se1,387.5,0.0099877,0.0000040441,0.000029873,3.0921,-0.06202,247273.8062857001,0.0002206662,0.0000713645
6006,10.1002/adma.201004200,80,1(a),124,Na0.0125Pb0.9875Se1,Na0.0125Pb0.9875Se1,388,0.0099798,0.0000040506,0.000029982,3.0884,-0.060912,246877.0058756727,0.0002219228,0.0000718569
6006,10.1002/adma.201004200,80,1(a),124,Na0.0125Pb0.9875Se1,Na0.0125Pb0.9875Se1,388.5,0.0099719,0.0000040571,0.000030091,3.0846,-0.059805,246481.4769170097,0.0002231812,0.0000723534
6006,10.1002/adma.201004200,80,1(a),124,Na0.0125Pb0.9875Se1,Na0.0125Pb0.9875Se1,389,0.009964,0.0000040637,0.0000302,3.0809,-0.058697,246081.1575657652,0.0002244359,0.0000728475
6006,10.1002/adma.201004200,80,1(a),124,Na0.0125Pb0.9875Se1,Na0.0125Pb0.9875Se1,389.5,0.0099561,0.0000040702,0.000030311,3.0772,-0.05759,245688.1725713724,0.0002257277,0.0000733549
6006,10.1002/adma.201004200,80,1(a),124,Na0.0125Pb0.9875Se1,Na0.0125Pb0.9875Se1,390,0.0099482,0.0000040768,0.000030422,3.0735,-0.056482,245290.4238618524,0.0002270158,0.0000738623
6006,10.1002/adma.201004200,80,1(a),124,Na0.0125Pb0.9875Se1,Na0.0125Pb0.9875Se1,390.5,0.0099403,0.0000040834,0.000030533,3.0698,-0.055374,244893.9609149239,0.0002283058,0.0000743716
6006,10.1002/adma.201004200,80,1(a),124,Na0.0125Pb0.9875Se1,Na0.0125Pb0.9875Se1,391,0.0099323,0.00000409,0.000030645,3.0661,-0.054267,244498.7775061125,0.0002296127,0.0000748876
6006,10.1002/adma.201004200,80,1(a),124,Na0.0125Pb0.9875Se1,Na0.0125Pb0.9875Se1,391.5,0.0099244,0.0000040966,0.000030758,3.0625,-0.053159,244104.867451057,0.0002309365,0.0000754078
6006,10.1002/adma.201004200,80,1(a),124,Na0.0125Pb0.9875Se1,Na0.0125Pb0.9875Se1,392,0.0099165,0.0000041033,0.000030871,3.0588,-0.052051,243706.2851850949,0.0002322566,0.0000759306
6006,10.1002/adma.201004200,80,1(a),124,Na0.0125Pb0.9875Se1,Na0.0125Pb0.9875Se1,392.5,0.0099086,0.0000041099,0.000030984,3.0552,-0.050944,243314.9225041972,0.0002335843,0.0000764547
6006,10.1002/adma.201004200,80,1(a),124,Na0.0125Pb0.9875Se1,Na0.0125Pb0.9875Se1,393,0.0099007,0.0000041166,0.000031098,3.0515,-0.049836,242918.9136666181,0.0002349234,0.0000769862
6006,10.1002/adma.201004200,80,1(a),124,Na0.0125Pb0.9875Se1,Na0.0125Pb0.9875Se1,393.5,0.0098928,0.0000041233,0.000031213,3.0479,-0.048729,242524.1917881309,0.0002362795,0.0000775221
6006,10.1002/adma.201004200,80,1(a),124,Na0.0125Pb0.9875Se1,Na0.0125Pb0.9875Se1,394,0.0098849,0.00000413,0.000031328,3.0442,-0.047621,242130.7506053269,0.0002376377,0.0000780624
6006,10.1002/adma.201004200,80,1(a),124,Na0.0125Pb0.9875Se1,Na0.0125Pb0.9875Se1,394.5,0.0098769,0.0000041367,0.000031444,3.0406,-0.046513,241738.5838953755,0.000239013,0.0000786072
6006,10.1002/adma.201004200,80,1(a),124,Na0.0125Pb0.9875Se1,Na0.0125Pb0.9875Se1,395,0.009869,0.0000041434,0.00003156,3.037,-0.045406,241347.6854756963,0.0002403904,0.0000791539
6006,10.1002/adma.201004200,80,1(a),124,Na0.0125Pb0.9875Se1,Na0.0125Pb0.9875Se1,395.5,0.0098611,0.0000041501,0.000031677,3.0334,-0.044298,240958.0492036336,0.0002417851,0.0000797076
6006,10.1002/adma.201004200,80,1(a),124,Na0.0125Pb0.9875Se1,Na0.0125Pb0.9875Se1,396,0.0098532,0.0000041569,0.000031794,3.0298,-0.04319,240563.8817387958,0.000243176,0.0000802614
6006,10.1002/adma.201004200,80,1(a),124,Na0.0125Pb0.9875Se1,Na0.0125Pb0.9875Se1,396.5,0.0098453,0.0000041637,0.000031912,3.0262,-0.042083,240171.0017532483,0.0002445843,0.0000808223
6006,10.1002/adma.201004200,80,1(a),124,Na0.0125Pb0.9875Se1,Na0.0125Pb0.9875Se1,397,0.0098374,0.0000041704,0.00003203,3.0227,-0.040975,239785.152503357,0.0002460006,0.0000813844
6006,10.1002/adma.201004200,80,1(a),124,Na0.0125Pb0.9875Se1,Na0.0125Pb0.9875Se1,397.5,0.0098295,0.0000041772,0.000032149,3.0191,-0.039868,239394.809920521,0.0002474285,0.0000819544
6006,10.1002/adma.201004200,80,1(a),124,Na0.0125Pb0.9875Se1,Na0.0125Pb0.9875Se1,398,0.0098215,0.000004184,0.000032268,3.0155,-0.03876,239005.7361376673,0.0002488585,0.0000825264
6006,10.1002/adma.201004200,80,1(a),124,Na0.0125Pb0.9875Se1,Na0.0125Pb0.9875Se1,398.5,0.0098136,0.0000041909,0.000032388,3.012,-0.037652,238612.2312629745,0.0002503001,0.000083101
6006,10.1002/adma.201004200,80,1(a),124,Na0.0125Pb0.9875Se1,Na0.0125Pb0.9875Se1,399,0.0098057,0.0000041977,0.000032508,3.0085,-0.036545,238225.6950234653,0.0002517498,0.0000836795
6006,10.1002/adma.201004200,80,1(a),124,Na0.0125Pb0.9875Se1,Na0.0125Pb0.9875Se1,399.5,0.0097978,0.0000042045,0.000032629,3.0049,-0.035437,237840.4090855036,0.0002532172,0.0000842681
6006,10.1002/adma.201004200,80,1(a),124,Na0.0125Pb0.9875Se1,Na0.0125Pb0.9875Se1,400,0.0097899,0.0000042114,0.00003275,3.0014,-0.034329,237450.7289737379,0.0002546807,0.000084854
6006,10.1002/adma.201004200,80,1(a),124,Na0.0125Pb0.9875Se1,Na0.0125Pb0.9875Se1,400.5,0.009782,0.0000042183,0.000032871,2.9979,-0.033222,237062.3236848967,0.0002561465,0.000085442
6006,10.1002/adma.201004200,80,1(a),124,Na0.0125Pb0.9875Se1,Na0.0125Pb0.9875Se1,401,0.0097741,0.0000042252,0.000032993,2.9944,-0.032114,236675.1869733977,0.0002576299,0.0000860373
6006,10.1002/adma.201004200,80,1(a),124,Na0.0125Pb0.9875Se1,Na0.0125Pb0.9875Se1,401.5,0.0097661,0.0000042321,0.000033116,2.9909,-0.031007,236289.3126343896,0.0002591313,0.0000866399
6006,10.1002/adma.201004200,80,1(a),124,Na0.0125Pb0.9875Se1,Na0.0125Pb0.9875Se1,402,0.0097582,0.000004239,0.000033239,2.9874,-0.029899,235904.6945034206,0.0002606348,0.0000872447
6006,10.1002/adma.201004200,80,1(a),124,Na0.0125Pb0.9875Se1,Na0.0125Pb0.9875Se1,402.5,0.0097503,0.0000042459,0.000033362,2.9839,-0.028791,235521.3264561106,0.0002621407,0.0000878517
6006,10.1002/adma.201004200,80,1(a),124,Na0.0125Pb0.9875Se1,Na0.0125Pb0.9875Se1,403,0.0097424,0.0000042528,0.000033486,2.9804,-0.027684,235139.2024078254,0.0002636645,0.0000884661
6006,10.1002/adma.201004200,80,1(a),124,Na0.0125Pb0.9875Se1,Na0.0125Pb0.9875Se1,403.5,0.0097345,0.0000042598,0.00003361,2.977,-0.026576,234752.8052960233,0.0002651843,0.0000890777
6006,10.1002/adma.201004200,80,1(a),124,Na0.0125Pb0.9875Se1,Na0.0125Pb0.9875Se1,404,0.0097266,0.0000042667,0.000033735,2.9735,-0.025469,234373.1689596175,0.0002667284,0.0000897018
6006,10.1002/adma.201004200,80,1(a),124,Na0.0125Pb0.9875Se1,Na0.0125Pb0.9875Se1,404.5,0.0097187,0.0000042737,0.00003386,2.9701,-0.024361,233989.2832908253,0.0002682686,0.0000903231
6006,10.1002/adma.201004200,80,1(a),124,Na0.0125Pb0.9875Se1,Na0.0125Pb0.9875Se1,405,0.0097107,0.0000042807,0.000033985,2.9666,-0.023253,233606.6531174808,0.0002698111,0.0000909496
6006,10.1002/adma.201004200,80,1(a),124,Na0.0125Pb0.9875Se1,Na0.0125Pb0.9875Se1,405.5,0.0097028,0.0000042877,0.000034111,2.9632,-0.022146,233225.2722905054,0.0002713717,0.0000915806
6006,10.1002/adma.201004200,80,1(a),124,Na0.0125Pb0.9875Se1,Na0.0125Pb0.9875Se1,406,0.0096949,0.0000042947,0.000034237,2.9598,-0.021038,232845.1347009105,0.0002729346,0.0000922139
6006,10.1002/adma.201004200,80,1(a),124,Na0.0125Pb0.9875Se1,Na0.0125Pb0.9875Se1,406.5,0.009687,0.0000043018,0.000034364,2.9564,-0.01993,232460.830350086,0.0002745094,0.0000928526
6006,10.1002/adma.201004200,80,1(a),124,Na0.0125Pb0.9875Se1,Na0.0125Pb0.9875Se1,407,0.0096791,0.0000043088,0.000034491,2.9529,-0.018823,232083.1786112142,0.0002760929,0.0000934989
6006,10.1002/adma.201004200,80,1(a),124,Na0.0125Pb0.9875Se1,Na0.0125Pb0.9875Se1,407.5,0.0096712,0.0000043158,0.000034618,2.9495,-0.017715,231706.7519347514,0.0002776787,0.0000941443
6006,10.1002/adma.201004200,80,1(a),124,Na0.0125Pb0.9875Se1,Na0.0125Pb0.9875Se1,408,0.0096633,0.0000043229,0.000034746,2.9461,-0.016608,231326.1930648407,0.0002792765,0.0000947953
6006,10.1002/adma.201004200,80,1(a),124,Na0.0125Pb0.9875Se1,Na0.0125Pb0.9875Se1,408.5,0.0096553,0.00000433,0.000034874,2.9428,-0.0155,230946.8822170901,0.0002808766,0.0000954454
6006,10.1002/adma.201004200,80,1(a),124,Na0.0125Pb0.9875Se1,Na0.0125Pb0.9875Se1,409,0.0096474,0.0000043371,0.000035003,2.9394,-0.014392,230568.8132623181,0.0002824952,0.0000961064
6006,10.1002/adma.201004200,80,1(a),124,Na0.0125Pb0.9875Se1,Na0.0125Pb0.9875Se1,409.5,0.0096395,0.0000043442,0.000035132,2.936,-0.013285,230191.9801114129,0.0002841162,0.0000967698
6006,10.1002/adma.201004200,80,1(a),124,Na0.0125Pb0.9875Se1,Na0.0125Pb0.9875Se1,410,0.0096316,0.0000043513,0.000035261,2.9326,-0.012177,229816.3767150047,0.0002857395,0.0000974355
6006,10.1002/adma.201004200,80,1(a),124,Na0.0125Pb0.9875Se1,Na0.0125Pb0.9875Se1,410.5,0.0096237,0.0000043584,0.000035391,2.9293,-0.011069,229441.9970631425,0.0002873814,0.0000981058
6006,10.1002/adma.201004200,80,1(a),124,Na0.0125Pb0.9875Se1,Na0.0125Pb0.9875Se1,411,0.0096158,0.0000043656,0.000035521,2.9259,-0.0099618,229063.5880520432,0.000289019,0.0000987795
6006,10.1002/adma.201004200,80,1(a),124,Na0.0125Pb0.9875Se1,Na0.0125Pb0.9875Se1,411.5,0.0096079,0.0000043727,0.000035651,2.9226,-0.0088542,228691.6550415076,0.0002906657,0.0000994545
6006,10.1002/adma.201004200,80,1(a),124,Na0.0125Pb0.9875Se1,Na0.0125Pb0.9875Se1,412,0.0095999,0.0000043799,0.000035782,2.9193,-0.0077466,228315.7149706614,0.0002923244,0.0001001351
6006,10.1002/adma.201004200,80,1(a),124,Na0.0125Pb0.9875Se1,Na0.0125Pb0.9875Se1,412.5,0.009592,0.0000043871,0.000035913,2.9159,-0.006639,227941.0088669053,0.0002939855,0.0001008215
6006,10.1002/adma.201004200,80,1(a),124,Na0.0125Pb0.9875Se1,Na0.0125Pb0.9875Se1,413,0.0095841,0.0000043942,0.000036044,2.9126,-0.0055313,227572.7094806791,0.0002956556,0.0001015092
6006,10.1002/adma.201004200,80,1(a),124,Na0.0125Pb0.9875Se1,Na0.0125Pb0.9875Se1,413.5,0.0095762,0.0000044014,0.000036176,2.9093,-0.0044237,227200.4362248376,0.0002973379,0.0001022026
6006,10.1002/adma.201004200,80,1(a),124,Na0.0125Pb0.9875Se1,Na0.0125Pb0.9875Se1,414,0.0095683,0.0000044087,0.000036308,2.906,-0.0033161,226824.23390115,0.0002990158,0.000102896
6006,10.1002/adma.201004200,80,1(a),124,Na0.0125Pb0.9875Se1,Na0.0125Pb0.9875Se1,414.5,0.0095604,0.0000044159,0.00003644,2.9027,-0.0022085,226454.4034058742,0.0003007028,0.0001035942
6006,10.1002/adma.201004200,80,1(a),124,Na0.0125Pb0.9875Se1,Na0.0125Pb0.9875Se1,415,0.0095525,0.0000044231,0.000036573,2.8994,-0.0011008,226085.7769437725,0.0003024088,0.0001043005
6006,10.1002/adma.201004200,80,1(a),124,Na0.0125Pb0.9875Se1,Na0.0125Pb0.9875Se1,415.5,0.0095445,0.0000044304,0.000036706,2.8961,0.0000067736,225713.253882268,0.0003041103,0.0001050068
6006,10.1002/adma.201004200,80,1(a),124,Na0.0125Pb0.9875Se1,Na0.0125Pb0.9875Se1,416,0.0095366,0.0000044376,0.000036839,2.8929,0.0011144,225347.0344330269,0.0003058211,0.0001057144
6006,10.1002/adma.201004200,80,1(a),124,Na0.0125Pb0.9875Se1,Na0.0125Pb0.9875Se1,416.5,0.0095287,0.0000044449,0.000036973,2.8896,0.002222,224976.939863664,0.0003075441,0.0001064314
6006,10.1002/adma.201004200,80,1(a),124,Na0.0125Pb0.9875Se1,Na0.0125Pb0.9875Se1,417,0.0095208,0.0000044522,0.000037107,2.8863,0.0033296,224608.0589371547,0.0003092695,0.0001071508
6006,10.1002/adma.201004200,80,1(a),124,Na0.0125Pb0.9875Se1,Na0.0125Pb0.9875Se1,417.5,0.0095129,0.0000044595,0.000037241,2.8831,0.0044373,224240.3856934634,0.0003109972,0.000107869
6006,10.1002/adma.201004200,80,1(a),124,Na0.0125Pb0.9875Se1,Na0.0125Pb0.9875Se1,418,0.009505,0.0000044668,0.000037375,2.8798,0.0055449,223873.9142115161,0.0003127274,0.0001085934
6006,10.1002/adma.201004200,80,1(a),124,Na0.0125Pb0.9875Se1,Na0.0125Pb0.9875Se1,418.5,0.0094971,0.0000044741,0.00003751,2.8766,0.0066525,223508.6386088822,0.0003144767,0.0001093224
6006,10.1002/adma.201004200,80,1(a),124,Na0.0125Pb0.9875Se1,Na0.0125Pb0.9875Se1,419,0.0094891,0.0000044814,0.000037645,2.8733,0.0077601,223144.5530414603,0.0003162284,0.0001100576
6006,10.1002/adma.201004200,80,1(a),124,Na0.0125Pb0.9875Se1,Na0.0125Pb0.9875Se1,419.5,0.0094812,0.0000044888,0.000037781,2.8701,0.0088677,222776.6886472999,0.0003179923,0.0001107949
6006,10.1002/adma.201004200,80,1(a),124,Na0.0125Pb0.9875Se1,Na0.0125Pb0.9875Se1,420,0.0094733,0.0000044961,0.000037916,2.8669,0.0099754,222414.981873179,0.0003197489,0.0001115312
6006,10.1002/adma.201004200,80,1(a),124,Na0.0125Pb0.9875Se1,Na0.0125Pb0.9875Se1,420.5,0.0094654,0.0000045035,0.000038052,2.8637,0.011083,222049.5170423004,0.0003215176,0.0001122735
6006,10.1002/adma.201004200,80,1(a),124,Na0.0125Pb0.9875Se1,Na0.0125Pb0.9875Se1,421,0.0094575,0.0000045109,0.000038188,2.8605,0.012191,221685.2512802323,0.0003232888,0.0001130183
6006,10.1002/adma.201004200,80,1(a),124,Na0.0125Pb0.9875Se1,Na0.0125Pb0.9875Se1,421.5,0.0094496,0.0000045183,0.000038325,2.8573,0.013298,221322.1786955271,0.0003250793,0.0001137715
6006,10.1002/adma.201004200,80,1(a),124,Na0.0125Pb0.9875Se1,Na0.0125Pb0.9875Se1,422,0.0094417,0.0000045257,0.000038462,2.8541,0.014406,220960.2934352697,0.0003268722,0.0001145272
6006,10.1002/adma.201004200,80,1(a),124,Na0.0125Pb0.9875Se1,Na0.0125Pb0.9875Se1,422.5,0.0094337,0.0000045331,0.000038599,2.8509,0.015513,220599.5896847632,0.0003286675,0.0001152855
6006,10.1002/adma.201004200,80,1(a),124,Na0.0125Pb0.9875Se1,Na0.0125Pb0.9875Se1,423,0.0094258,0.0000045405,0.000038736,2.8477,0.016621,220240.0616672173,0.0003304653,0.0001160464
6006,10.1002/adma.201004200,80,1(a),124,Na0.0125Pb0.9875Se1,Na0.0125Pb0.9875Se1,423.5,0.0094179,0.0000045479,0.000038873,2.8445,0.017729,219881.7036434398,0.0003322655,0.0001168098
6006,10.1002/adma.201004200,80,1(a),124,Na0.0125Pb0.9875Se1,Na0.0125Pb0.9875Se1,424,0.00941,0.0000045554,0.000039011,2.8413,0.018836,219519.6909162752,0.0003340778,0.0001175792
6006,10.1002/adma.201004200,80,1(a),124,Na0.0125Pb0.9875Se1,Na0.0125Pb0.9875Se1,424.5,0.0094021,0.0000045628,0.000039149,2.8382,0.019944,219163.6714298238,0.0003358999,0.0001183496