sid,DOI,figureid,fignum,sampleid,samplename,composition,Temperature,Carrier mobility,Electrical resistivity,Seebeck coefficient,Thermal conductivity,ZT,Electrical conductivity,Power factor,Figure of merit Z
6006,10.1002/adma.201004200,80,1(a),102,Na0.025Pb0.975Se1,Na0.025Pb0.975Se1,628,0.0045571,0.0000072637,0.000088554,2.2526,0.4388,137670.8839847461,0.001079589,0.0004792635
6006,10.1002/adma.201004200,80,1(a),102,Na0.025Pb0.975Se1,Na0.025Pb0.975Se1,628.5,0.004553,0.0000072732,0.000088696,2.2503,0.43972,137491.0630808997,0.0010816395,0.0004806646
6006,10.1002/adma.201004200,80,1(a),102,Na0.025Pb0.975Se1,Na0.025Pb0.975Se1,629,0.0045488,0.0000072826,0.000088838,2.2481,0.44064,137313.5967923544,0.001083705,0.0004820537
6006,10.1002/adma.201004200,80,1(a),102,Na0.025Pb0.975Se1,Na0.025Pb0.975Se1,629.5,0.0045447,0.0000072921,0.000088981,2.2458,0.44156,137134.7074231017,0.0010857803,0.0004834715
6006,10.1002/adma.201004200,80,1(a),102,Na0.025Pb0.975Se1,Na0.025Pb0.975Se1,630,0.0045406,0.0000073016,0.000089123,2.2435,0.44248,136956.2835542895,0.0010878313,0.0004848814
6006,10.1002/adma.201004200,80,1(a),102,Na0.025Pb0.975Se1,Na0.025Pb0.975Se1,630.5,0.0045364,0.0000073112,0.000089266,2.2413,0.4434,136776.4525659262,0.0010898921,0.0004862767
6006,10.1002/adma.201004200,80,1(a),102,Na0.025Pb0.975Se1,Na0.025Pb0.975Se1,631,0.0045323,0.0000073207,0.000089409,2.239,0.44432,136598.9591159315,0.0010919679,0.0004877034
6006,10.1002/adma.201004200,80,1(a),102,Na0.025Pb0.975Se1,Na0.025Pb0.975Se1,631.5,0.0045281,0.0000073303,0.000089552,2.2367,0.44524,136420.0646631107,0.001094029,0.0004891264
6006,10.1002/adma.201004200,80,1(a),102,Na0.025Pb0.975Se1,Na0.025Pb0.975Se1,632,0.004524,0.0000073399,0.000089695,2.2345,0.44616,136241.6381694574,0.0010960903,0.0004905304
6006,10.1002/adma.201004200,80,1(a),102,Na0.025Pb0.975Se1,Na0.025Pb0.975Se1,632.5,0.0045199,0.0000073496,0.000089838,2.2322,0.44709,136061.8264939589,0.0010981368,0.0004919527
6006,10.1002/adma.201004200,80,1(a),102,Na0.025Pb0.975Se1,Na0.025Pb0.975Se1,633,0.0045157,0.0000073592,0.000089982,2.23,0.44801,135884.3352538319,0.0011002229,0.0004933735
6006,10.1002/adma.201004200,80,1(a),102,Na0.025Pb0.975Se1,Na0.025Pb0.975Se1,633.5,0.0045116,0.0000073689,0.000090125,2.2277,0.44893,135705.4648590699,0.0011022698,0.0004948017
6006,10.1002/adma.201004200,80,1(a),102,Na0.025Pb0.975Se1,Na0.025Pb0.975Se1,634,0.0045075,0.0000073786,0.000090269,2.2254,0.44985,135527.0647548315,0.0011043413,0.0004962439
6006,10.1002/adma.201004200,80,1(a),102,Na0.025Pb0.975Se1,Na0.025Pb0.975Se1,634.5,0.0045033,0.0000073883,0.000090412,2.2232,0.45077,135349.1330888026,0.0011063884,0.0004976558
6006,10.1002/adma.201004200,80,1(a),102,Na0.025Pb0.975Se1,Na0.025Pb0.975Se1,635,0.0044992,0.0000073981,0.000090556,2.2209,0.45169,135169.8409050973,0.0011084453,0.0004990973
6006,10.1002/adma.201004200,80,1(a),102,Na0.025Pb0.975Se1,Na0.025Pb0.975Se1,635.5,0.0044951,0.0000074078,0.0000907,2.2187,0.45261,134992.8453791949,0.0011105173,0.0005005261
6006,10.1002/adma.201004200,80,1(a),102,Na0.025Pb0.975Se1,Na0.025Pb0.975Se1,636,0.0044909,0.0000074176,0.000090844,2.2165,0.45353,134814.4952545298,0.0011125745,0.000501951
6006,10.1002/adma.201004200,80,1(a),102,Na0.025Pb0.975Se1,Na0.025Pb0.975Se1,636.5,0.0044868,0.0000074274,0.000090988,2.2142,0.45445,134636.6157740259,0.0011146318,0.0005034016
6006,10.1002/adma.201004200,80,1(a),102,Na0.025Pb0.975Se1,Na0.025Pb0.975Se1,637,0.0044827,0.0000074373,0.000091133,2.212,0.45537,134457.3971737055,0.0011166988,0.0005048367
6006,10.1002/adma.201004200,80,1(a),102,Na0.025Pb0.975Se1,Na0.025Pb0.975Se1,637.5,0.0044785,0.0000074471,0.000091277,2.2097,0.45629,134280.4581649232,0.0011187564,0.0005062933
6006,10.1002/adma.201004200,80,1(a),102,Na0.025Pb0.975Se1,Na0.025Pb0.975Se1,638,0.0044744,0.000007457,0.000091422,2.2075,0.45721,134102.1858656296,0.0011208237,0.0005077344
6006,10.1002/adma.201004200,80,1(a),102,Na0.025Pb0.975Se1,Na0.025Pb0.975Se1,638.5,0.0044702,0.000007467,0.000091567,2.2052,0.45814,133922.5927413955,0.0011228761,0.0005091947
6006,10.1002/adma.201004200,80,1(a),102,Na0.025Pb0.975Se1,Na0.025Pb0.975Se1,639,0.0044661,0.0000074769,0.000091711,2.203,0.45906,133745.2687611176,0.0011249191,0.0005106305
6006,10.1002/adma.201004200,80,1(a),102,Na0.025Pb0.975Se1,Na0.025Pb0.975Se1,639.5,0.004462,0.0000074869,0.000091856,2.2008,0.45998,133566.6297132325,0.0011269717,0.0005120737
6006,10.1002/adma.201004200,80,1(a),102,Na0.025Pb0.975Se1,Na0.025Pb0.975Se1,640,0.0044578,0.0000074968,0.000092001,2.1985,0.4609,133390.2465051755,0.0011290396,0.00051355
6006,10.1002/adma.201004200,80,1(a),102,Na0.025Pb0.975Se1,Na0.025Pb0.975Se1,640.5,0.0044537,0.0000075069,0.000092147,2.1963,0.46182,133210.7794162704,0.001131102,0.0005150034
6006,10.1002/adma.201004200,80,1(a),102,Na0.025Pb0.975Se1,Na0.025Pb0.975Se1,641,0.0044496,0.0000075169,0.000092292,2.1941,0.46274,133033.5643682901,0.0011331551,0.0005164555
6006,10.1002/adma.201004200,80,1(a),102,Na0.025Pb0.975Se1,Na0.025Pb0.975Se1,641.5,0.0044454,0.000007527,0.000092438,2.1918,0.46366,132855.0551348479,0.0011352177,0.0005179386
6006,10.1002/adma.201004200,80,1(a),102,Na0.025Pb0.975Se1,Na0.025Pb0.975Se1,642,0.0044413,0.000007537,0.000092583,2.1896,0.46458,132678.7846623325,0.001137271,0.0005193967
6006,10.1002/adma.201004200,80,1(a),102,Na0.025Pb0.975Se1,Na0.025Pb0.975Se1,642.5,0.0044372,0.0000075472,0.000092729,2.1874,0.4655,132499.47000212,0.0011393189,0.0005208553
6006,10.1002/adma.201004200,80,1(a),102,Na0.025Pb0.975Se1,Na0.025Pb0.975Se1,643,0.004433,0.0000075573,0.000092875,2.1852,0.46642,132322.3902716579,0.0011413819,0.0005223238
6006,10.1002/adma.201004200,80,1(a),102,Na0.025Pb0.975Se1,Na0.025Pb0.975Se1,643.5,0.0044289,0.0000075675,0.000093021,2.1829,0.46734,132144.0370003304,0.00114343,0.0005238124
6006,10.1002/adma.201004200,80,1(a),102,Na0.025Pb0.975Se1,Na0.025Pb0.975Se1,644,0.0044248,0.0000075776,0.000093167,2.1807,0.46826,131967.9054054054,0.0011454933,0.000525287
6006,10.1002/adma.201004200,80,1(a),102,Na0.025Pb0.975Se1,Na0.025Pb0.975Se1,644.5,0.0044206,0.0000075879,0.000093313,2.1785,0.46918,131788.7689611091,0.0011475265,0.0005267507
6006,10.1002/adma.201004200,80,1(a),102,Na0.025Pb0.975Se1,Na0.025Pb0.975Se1,645,0.0044165,0.0000075981,0.00009346,2.1763,0.47011,131611.8503310038,0.0011495995,0.0005282357
6006,10.1002/adma.201004200,80,1(a),102,Na0.025Pb0.975Se1,Na0.025Pb0.975Se1,645.5,0.0044124,0.0000076083,0.000093606,2.1741,0.47103,131435.4060696871,0.001151648,0.0005297125
6006,10.1002/adma.201004200,80,1(a),102,Na0.025Pb0.975Se1,Na0.025Pb0.975Se1,646,0.0044082,0.0000076186,0.000093753,2.1719,0.47195,131257.7113905442,0.0011537061,0.0005311967
6006,10.1002/adma.201004200,80,1(a),102,Na0.025Pb0.975Se1,Na0.025Pb0.975Se1,646.5,0.0044041,0.0000076289,0.0000939,2.1697,0.47287,131080.4965329209,0.0011557643,0.0005326839
6006,10.1002/adma.201004200,80,1(a),102,Na0.025Pb0.975Se1,Na0.025Pb0.975Se1,647,0.0043999,0.0000076393,0.000094047,2.1674,0.47379,130902.045998979,0.0011578074,0.0005341919
6006,10.1002/adma.201004200,80,1(a),102,Na0.025Pb0.975Se1,Na0.025Pb0.975Se1,647.5,0.0043958,0.0000076496,0.000094194,2.1652,0.47471,130725.7895837691,0.0011598658,0.0005356853
6006,10.1002/adma.201004200,80,1(a),102,Na0.025Pb0.975Se1,Na0.025Pb0.975Se1,648,0.0043917,0.00000766,0.000094341,2.163,0.47563,130548.3028720627,0.0011619092,0.0005371748
6006,10.1002/adma.201004200,80,1(a),102,Na0.025Pb0.975Se1,Na0.025Pb0.975Se1,648.5,0.0043875,0.0000076704,0.000094488,2.1608,0.47655,130371.2974551523,0.0011639526,0.0005386674
6006,10.1002/adma.201004200,80,1(a),102,Na0.025Pb0.975Se1,Na0.025Pb0.975Se1,649,0.0043834,0.0000076809,0.000094636,2.1586,0.47747,130193.0763322007,0.0011660056,0.0005401675
6006,10.1002/adma.201004200,80,1(a),102,Na0.025Pb0.975Se1,Na0.025Pb0.975Se1,649.5,0.0043793,0.0000076913,0.000094784,2.1564,0.47839,130017.0322312223,0.0011680739,0.0005416777
6006,10.1002/adma.201004200,80,1(a),102,Na0.025Pb0.975Se1,Na0.025Pb0.975Se1,650,0.0043751,0.0000077018,0.000094931,2.1542,0.47931,129839.7777143006,0.0011701024,0.0005431726
6006,10.1002/adma.201004200,80,1(a),102,Na0.025Pb0.975Se1,Na0.025Pb0.975Se1,650.5,0.004371,0.0000077123,0.000095079,2.152,0.48023,129663.0058478016,0.0011721557,0.000544682
6006,10.1002/adma.201004200,80,1(a),102,Na0.025Pb0.975Se1,Na0.025Pb0.975Se1,651,0.0043669,0.0000077229,0.000095228,2.1498,0.48115,129485.0380038586,0.0011742185,0.0005461989
6006,10.1002/adma.201004200,80,1(a),102,Na0.025Pb0.975Se1,Na0.025Pb0.975Se1,651.5,0.0043627,0.0000077334,0.000095376,2.1476,0.48208,129309.230092844,0.0011762719,0.0005477146
6006,10.1002/adma.201004200,80,1(a),102,Na0.025Pb0.975Se1,Na0.025Pb0.975Se1,652,0.0043586,0.000007744,0.000095524,2.1455,0.483,129132.2314049587,0.0011783102,0.0005492008
6006,10.1002/adma.201004200,80,1(a),102,Na0.025Pb0.975Se1,Na0.025Pb0.975Se1,652.5,0.0043545,0.0000077546,0.000095673,2.1433,0.48392,128955.7166069172,0.0011803733,0.0005507271
6006,10.1002/adma.201004200,80,1(a),102,Na0.025Pb0.975Se1,Na0.025Pb0.975Se1,653,0.0043503,0.0000077653,0.000095821,2.1411,0.48484,128778.0253177598,0.0011823966,0.0005522379
6006,10.1002/adma.201004200,80,1(a),102,Na0.025Pb0.975Se1,Na0.025Pb0.975Se1,653.5,0.0043462,0.0000077759,0.00009597,2.1389,0.48576,128602.4768837048,0.0011844598,0.0005537705
6006,10.1002/adma.201004200,80,1(a),102,Na0.025Pb0.975Se1,Na0.025Pb0.975Se1,654,0.004342,0.0000077866,0.000096119,2.1367,0.48668,128425.7570698379,0.0011865079,0.0005552992
6006,10.1002/adma.201004200,80,1(a),102,Na0.025Pb0.975Se1,Na0.025Pb0.975Se1,654.5,0.0043379,0.0000077973,0.000096268,2.1345,0.4876,128249.5222705295,0.001188556,0.0005568311
6006,10.1002/adma.201004200,80,1(a),102,Na0.025Pb0.975Se1,Na0.025Pb0.975Se1,655,0.0043338,0.0000078081,0.000096417,2.1323,0.48852,128072.130223742,0.001190589,0.000558359
6006,10.1002/adma.201004200,80,1(a),102,Na0.025Pb0.975Se1,Na0.025Pb0.975Se1,655.5,0.0043296,0.0000078188,0.000096567,2.1302,0.48944,127896.8639688955,0.001192662,0.0005598826
6006,10.1002/adma.201004200,80,1(a),102,Na0.025Pb0.975Se1,Na0.025Pb0.975Se1,656,0.0043255,0.0000078296,0.000096716,2.128,0.49036,127720.4454889139,0.0011946951,0.0005614169
6006,10.1002/adma.201004200,80,1(a),102,Na0.025Pb0.975Se1,Na0.025Pb0.975Se1,656.5,0.0043214,0.0000078404,0.000096866,2.1258,0.49128,127544.5130350492,0.001196753,0.0005629659
6006,10.1002/adma.201004200,80,1(a),102,Na0.025Pb0.975Se1,Na0.025Pb0.975Se1,657,0.0043172,0.0000078513,0.000097016,2.1236,0.4922,127367.4423343905,0.0011987956,0.000564511
6006,10.1002/adma.201004200,80,1(a),102,Na0.025Pb0.975Se1,Na0.025Pb0.975Se1,657.5,0.0043131,0.0000078622,0.000097166,2.1215,0.49312,127190.8626084302,0.0012008384,0.0005660327
6006,10.1002/adma.201004200,80,1(a),102,Na0.025Pb0.975Se1,Na0.025Pb0.975Se1,658,0.004309,0.0000078731,0.000097316,2.1193,0.49405,127014.7718179624,0.0012028812,0.0005675842
6006,10.1002/adma.201004200,80,1(a),102,Na0.025Pb0.975Se1,Na0.025Pb0.975Se1,658.5,0.0043048,0.000007884,0.000097466,2.1171,0.49497,126839.1679350584,0.001204924,0.0005691389
6006,10.1002/adma.201004200,80,1(a),102,Na0.025Pb0.975Se1,Na0.025Pb0.975Se1,659,0.0043007,0.0000078949,0.000097617,2.115,0.49589,126664.0489429885,0.0012069917,0.0005706816
6006,10.1002/adma.201004200,80,1(a),102,Na0.025Pb0.975Se1,Na0.025Pb0.975Se1,659.5,0.0042966,0.0000079059,0.000097767,2.1128,0.49681,126487.8128992272,0.0012090194,0.0005722356
6006,10.1002/adma.201004200,80,1(a),102,Na0.025Pb0.975Se1,Na0.025Pb0.975Se1,660,0.0042924,0.0000079169,0.000097918,2.1107,0.49773,126312.0665917215,0.0012110718,0.0005737773
6006,10.1002/adma.201004200,80,1(a),102,Na0.025Pb0.975Se1,Na0.025Pb0.975Se1,660.5,0.0042883,0.0000079279,0.000098069,2.1085,0.49865,126136.8079819372,0.0012131244,0.0005753495
6006,10.1002/adma.201004200,80,1(a),102,Na0.025Pb0.975Se1,Na0.025Pb0.975Se1,661,0.0042841,0.000007939,0.00009822,2.1063,0.49957,125960.4484191964,0.0012151617,0.0005769177
6006,10.1002/adma.201004200,80,1(a),102,Na0.025Pb0.975Se1,Na0.025Pb0.975Se1,661.5,0.00428,0.0000079501,0.000098371,2.1042,0.50049,125784.5813260211,0.001217199,0.0005784616
6006,10.1002/adma.201004200,80,1(a),102,Na0.025Pb0.975Se1,Na0.025Pb0.975Se1,662,0.0042759,0.0000079612,0.000098523,2.102,0.50141,125609.2046425162,0.0012192611,0.0005800481
6006,10.1002/adma.201004200,80,1(a),102,Na0.025Pb0.975Se1,Na0.025Pb0.975Se1,662.5,0.0042717,0.0000079723,0.000098674,2.0999,0.50233,125434.3163202589,0.0012212985,0.0005815984
6006,10.1002/adma.201004200,80,1(a),102,Na0.025Pb0.975Se1,Na0.025Pb0.975Se1,663,0.0042676,0.0000079835,0.000098826,2.0977,0.50325,125258.3453372581,0.0012233454,0.0005831842
6006,10.1002/adma.201004200,80,1(a),102,Na0.025Pb0.975Se1,Na0.025Pb0.975Se1,663.5,0.0042635,0.0000079947,0.000098977,2.0956,0.50417,125082.8673996523,0.0012253676,0.0005847335
6006,10.1002/adma.201004200,80,1(a),102,Na0.025Pb0.975Se1,Na0.025Pb0.975Se1,664,0.0042593,0.0000080059,0.000099129,2.0934,0.5051,124907.8804381768,0.0012274146,0.0005863259
6006,10.1002/adma.201004200,80,1(a),102,Na0.025Pb0.975Se1,Na0.025Pb0.975Se1,664.5,0.0042552,0.0000080171,0.000099281,2.0913,0.50602,124733.3823951304,0.0012294616,0.0005878935
6006,10.1002/adma.201004200,80,1(a),102,Na0.025Pb0.975Se1,Na0.025Pb0.975Se1,665,0.0042511,0.0000080284,0.000099434,2.0891,0.50694,124557.8197399233,0.0012315182,0.000589497
6006,10.1002/adma.201004200,80,1(a),102,Na0.025Pb0.975Se1,Na0.025Pb0.975Se1,665.5,0.0042469,0.0000080397,0.000099586,2.087,0.50786,124382.7506001468,0.0012335499,0.0005910637
6006,10.1002/adma.201004200,80,1(a),102,Na0.025Pb0.975Se1,Na0.025Pb0.975Se1,666,0.0042428,0.000008051,0.000099739,2.0849,0.50878,124208.1728977767,0.0012356065,0.0005926455
6006,10.1002/adma.201004200,80,1(a),102,Na0.025Pb0.975Se1,Na0.025Pb0.975Se1,666.5,0.0042387,0.0000080623,0.000099891,2.0827,0.5097,124034.0845664388,0.0012376384,0.0005942471
6006,10.1002/adma.201004200,80,1(a),102,Na0.025Pb0.975Se1,Na0.025Pb0.975Se1,667,0.0042345,0.0000080737,0.00010004,2.0806,0.51062,123858.9494283909,0.0012395806,0.0005957803
6006,10.1002/adma.201004200,80,1(a),102,Na0.025Pb0.975Se1,Na0.025Pb0.975Se1,667.5,0.0042304,0.0000080851,0.0001002,2.0785,0.51154,123684.3081718222,0.0012417954,0.0005974479
6006,10.1002/adma.201004200,80,1(a),102,Na0.025Pb0.975Se1,Na0.025Pb0.975Se1,668,0.0042262,0.0000080965,0.00010035,2.0763,0.51246,123510.158710554,0.0012437624,0.0005990283
6006,10.1002/adma.201004200,80,1(a),102,Na0.025Pb0.975Se1,Na0.025Pb0.975Se1,668.5,0.0042221,0.000008108,0.0001005,2.0742,0.51338,123334.977799704,0.0012457141,0.0006005757
6006,10.1002/adma.201004200,80,1(a),102,Na0.025Pb0.975Se1,Na0.025Pb0.975Se1,669,0.004218,0.0000081194,0.00010066,2.0721,0.5143,123161.8099859595,0.0012479291,0.0006022533
6006,10.1002/adma.201004200,80,1(a),102,Na0.025Pb0.975Se1,Na0.025Pb0.975Se1,669.5,0.0042138,0.000008131,0.00010081,2.07,0.51522,122986.1025704095,0.0012498655,0.0006037997
6006,10.1002/adma.201004200,80,1(a),102,Na0.025Pb0.975Se1,Na0.025Pb0.975Se1,670,0.0042097,0.0000081425,0.00010096,2.0678,0.51614,122812.4040528093,0.0012518172,0.000605386
6006,10.1002/adma.201004200,80,1(a),102,Na0.025Pb0.975Se1,Na0.025Pb0.975Se1,670.5,0.0042056,0.000008154,0.00010112,2.0657,0.51707,122639.1954868776,0.001254017,0.0006070664
6006,10.1002/adma.201004200,80,1(a),102,Na0.025Pb0.975Se1,Na0.025Pb0.975Se1,671,0.0042014,0.0000081656,0.00010127,2.0636,0.51799,122464.9750171451,0.0012559534,0.0006086225
6006,10.1002/adma.201004200,80,1(a),102,Na0.025Pb0.975Se1,Na0.025Pb0.975Se1,671.5,0.0041973,0.0000081772,0.00010143,2.0615,0.51891,122291.2488382331,0.0012581379,0.0006103021
6006,10.1002/adma.201004200,80,1(a),102,Na0.025Pb0.975Se1,Na0.025Pb0.975Se1,672,0.0041932,0.0000081889,0.00010158,2.0594,0.51983,122116.5235868065,0.0012600589,0.0006118573
6006,10.1002/adma.201004200,80,1(a),102,Na0.025Pb0.975Se1,Na0.025Pb0.975Se1,672.5,0.004189,0.0000082006,0.00010174,2.0573,0.52075,121942.2969051045,0.0012622281,0.0006135362
6006,10.1002/adma.201004200,80,1(a),102,Na0.025Pb0.975Se1,Na0.025Pb0.975Se1,673,0.0041849,0.0000082123,0.00010189,2.0551,0.52167,121768.5666622018,0.0012641492,0.0006151278
6006,10.1002/adma.201004200,80,1(a),102,Na0.025Pb0.975Se1,Na0.025Pb0.975Se1,673.5,0.0041808,0.000008224,0.00010205,2.053,0.52259,121595.3307392996,0.0012663184,0.0006168136
6006,10.1002/adma.201004200,80,1(a),102,Na0.025Pb0.975Se1,Na0.025Pb0.975Se1,674,0.0041766,0.0000082357,0.0001022,2.0509,0.52351,121422.5870296393,0.0012682395,0.0006183819
6006,10.1002/adma.201004200,80,1(a),102,Na0.025Pb0.975Se1,Na0.025Pb0.975Se1,674.5,0.0041725,0.0000082475,0.00010236,2.0488,0.52443,121248.8632919066,0.0012703934,0.0006200671
6006,10.1002/adma.201004200,80,1(a),102,Na0.025Pb0.975Se1,Na0.025Pb0.975Se1,675,0.0041683,0.0000082593,0.00010251,2.0467,0.52535,121075.6359497778,0.0012722991,0.0006216344
6006,10.1002/adma.201004200,80,1(a),102,Na0.025Pb0.975Se1,Na0.025Pb0.975Se1,675.5,0.0041642,0.0000082711,0.00010267,2.0446,0.52627,120902.9028786981,0.0012744531,0.0006233264
6006,10.1002/adma.201004200,80,1(a),102,Na0.025Pb0.975Se1,Na0.025Pb0.975Se1,676,0.0041601,0.000008283,0.00010282,2.0425,0.52719,120729.204394543,0.0012763434,0.0006248927
6006,10.1002/adma.201004200,80,1(a),102,Na0.025Pb0.975Se1,Na0.025Pb0.975Se1,676.5,0.0041559,0.0000082949,0.00010298,2.0404,0.52811,120556.0042917937,0.001278482,0.000626584
6006,10.1002/adma.201004200,80,1(a),102,Na0.025Pb0.975Se1,Na0.025Pb0.975Se1,677,0.0041518,0.0000083068,0.00010313,2.0383,0.52904,120383.3004285646,0.0012803723,0.000628157
6006,10.1002/adma.201004200,80,1(a),102,Na0.025Pb0.975Se1,Na0.025Pb0.975Se1,677.5,0.0041477,0.0000083187,0.00010329,2.0363,0.52996,120211.0906752257,0.001282511,0.0006298242
6006,10.1002/adma.201004200,80,1(a),102,Na0.025Pb0.975Se1,Na0.025Pb0.975Se1,678,0.0041435,0.0000083307,0.00010345,2.0342,0.53088,120037.9319865077,0.0012846342,0.0006315182
6006,10.1002/adma.201004200,80,1(a),102,Na0.025Pb0.975Se1,Na0.025Pb0.975Se1,678.5,0.0041394,0.0000083427,0.0001036,2.0321,0.5318,119865.2714349072,0.0012865092,0.0006330934
6006,10.1002/adma.201004200,80,1(a),102,Na0.025Pb0.975Se1,Na0.025Pb0.975Se1,679,0.0041353,0.0000083547,0.00010376,2.03,0.53272,119693.1068739751,0.0012886325,0.0006347943
6006,10.1002/adma.201004200,80,1(a),102,Na0.025Pb0.975Se1,Na0.025Pb0.975Se1,679.5,0.0041311,0.0000083668,0.00010392,2.0279,0.53364,119520.0076492805,0.0012907404,0.0006364911
6006,10.1002/adma.201004200,80,1(a),102,Na0.025Pb0.975Se1,Na0.025Pb0.975Se1,680,0.004127,0.0000083789,0.00010407,2.0258,0.53456,119347.4083710272,0.0012925999,0.0006380688
6006,10.1002/adma.201004200,80,1(a),102,Na0.025Pb0.975Se1,Na0.025Pb0.975Se1,680.5,0.0041229,0.000008391,0.00010423,2.0237,0.53548,119175.3068764152,0.0012947078,0.0006397726
6006,10.1002/adma.201004200,80,1(a),102,Na0.025Pb0.975Se1,Na0.025Pb0.975Se1,681,0.0041187,0.0000084031,0.00010439,2.0217,0.5364,119003.7010151016,0.0012968157,0.0006414481
6006,10.1002/adma.201004200,80,1(a),102,Na0.025Pb0.975Se1,Na0.025Pb0.975Se1,681.5,0.0041146,0.0000084153,0.00010455,2.0196,0.53732,118831.176547479,0.0012989082,0.0006431512
6006,10.1002/adma.201004200,80,1(a),102,Na0.025Pb0.975Se1,Na0.025Pb0.975Se1,682,0.0041104,0.0000084274,0.0001047,2.0175,0.53824,118660.5596031991,0.0013007677,0.0006447424
6006,10.1002/adma.201004200,80,1(a),102,Na0.025Pb0.975Se1,Na0.025Pb0.975Se1,682.5,0.0041063,0.0000084397,0.00010486,2.0155,0.53916,118487.6239676766,0.0013028448,0.0006464127
6006,10.1002/adma.201004200,80,1(a),102,Na0.025Pb0.975Se1,Na0.025Pb0.975Se1,683,0.0041022,0.0000084519,0.00010502,2.0134,0.54009,118316.591535631,0.0013049374,0.0006481263
6006,10.1002/adma.201004200,80,1(a),102,Na0.025Pb0.975Se1,Na0.025Pb0.975Se1,683.5,0.004098,0.0000084642,0.00010518,2.0113,0.54101,118144.6563171948,0.0013070145,0.0006498357
6006,10.1002/adma.201004200,80,1(a),102,Na0.025Pb0.975Se1,Na0.025Pb0.975Se1,684,0.0040939,0.0000084765,0.00010534,2.0093,0.54193,117973.2200790421,0.0013090917,0.0006515163