sid,DOI,figureid,fignum,sampleid,samplename,composition,Temperature,Carrier mobility,Electrical resistivity,Seebeck coefficient,Thermal conductivity,ZT,Electrical conductivity,Power factor,Figure of merit Z
6006,10.1002/adma.201004200,80,1(a),124,Na0.0125Pb0.9875Se1,Na0.0125Pb0.9875Se1,591,0.0067666,0.000007791,0.000087259,1.9904,0.38878,128353.2280836863,0.0009772986,0.0004910061
6006,10.1002/adma.201004200,80,1(a),124,Na0.0125Pb0.9875Se1,Na0.0125Pb0.9875Se1,591.5,0.0067587,0.0000078038,0.000087402,1.9883,0.38989,128142.6997103975,0.0009788961,0.0004923282
6006,10.1002/adma.201004200,80,1(a),124,Na0.0125Pb0.9875Se1,Na0.0125Pb0.9875Se1,592,0.0067508,0.0000078166,0.000087546,1.9861,0.391,127932.860834634,0.0009805161,0.0004936892
6006,10.1002/adma.201004200,80,1(a),124,Na0.0125Pb0.9875Se1,Na0.0125Pb0.9875Se1,592.5,0.0067429,0.0000078295,0.000087689,1.984,0.3921,127722.0767609681,0.0009821011,0.0004950106
6006,10.1002/adma.201004200,80,1(a),124,Na0.0125Pb0.9875Se1,Na0.0125Pb0.9875Se1,593,0.006735,0.0000078423,0.000087832,1.9818,0.39321,127513.6120780893,0.0009836987,0.0004963663
6006,10.1002/adma.201004200,80,1(a),124,Na0.0125Pb0.9875Se1,Na0.0125Pb0.9875Se1,593.5,0.0067271,0.0000078552,0.000087975,1.9797,0.39432,127304.2061309706,0.0009852837,0.0004976934
6006,10.1002/adma.201004200,80,1(a),124,Na0.0125Pb0.9875Se1,Na0.0125Pb0.9875Se1,594,0.0067191,0.0000078682,0.000088119,1.9775,0.39543,127093.8715335147,0.0009868786,0.0004990537
6006,10.1002/adma.201004200,80,1(a),124,Na0.0125Pb0.9875Se1,Na0.0125Pb0.9875Se1,594.5,0.0067112,0.0000078811,0.000088262,1.9754,0.39654,126885.8408090241,0.0009884636,0.0005003866
6006,10.1002/adma.201004200,80,1(a),124,Na0.0125Pb0.9875Se1,Na0.0125Pb0.9875Se1,595,0.0067033,0.0000078941,0.000088406,1.9732,0.39764,126676.885268745,0.0009900585,0.0005017527
6006,10.1002/adma.201004200,80,1(a),124,Na0.0125Pb0.9875Se1,Na0.0125Pb0.9875Se1,595.5,0.0066954,0.0000079071,0.000088549,1.9711,0.39875,126468.6168127379,0.000991631,0.0005030851
6006,10.1002/adma.201004200,80,1(a),124,Na0.0125Pb0.9875Se1,Na0.0125Pb0.9875Se1,596,0.0066875,0.0000079202,0.000088693,1.969,0.39986,126259.4378929825,0.0009932133,0.0005044253
6006,10.1002/adma.201004200,80,1(a),124,Na0.0125Pb0.9875Se1,Na0.0125Pb0.9875Se1,596.5,0.0066796,0.0000079332,0.000088837,1.9668,0.40097,126052.5386981294,0.0009948082,0.0005058004
6006,10.1002/adma.201004200,80,1(a),124,Na0.0125Pb0.9875Se1,Na0.0125Pb0.9875Se1,597,0.0066717,0.0000079463,0.000088981,1.9647,0.40207,125844.73276871,0.0009963906,0.0005071464
6006,10.1002/adma.201004200,80,1(a),124,Na0.0125Pb0.9875Se1,Na0.0125Pb0.9875Se1,597.5,0.0066637,0.0000079594,0.000089124,1.9626,0.40318,125637.6108751916,0.0009979505,0.0005084839
6006,10.1002/adma.201004200,80,1(a),124,Na0.0125Pb0.9875Se1,Na0.0125Pb0.9875Se1,598,0.0066558,0.0000079726,0.000089268,1.9604,0.40429,125429.5963675589,0.0009995203,0.0005098553
6006,10.1002/adma.201004200,80,1(a),124,Na0.0125Pb0.9875Se1,Na0.0125Pb0.9875Se1,598.5,0.0066479,0.0000079858,0.000089412,1.9583,0.4054,125222.2695284129,0.0010010902,0.0005112037
6006,10.1002/adma.201004200,80,1(a),124,Na0.0125Pb0.9875Se1,Na0.0125Pb0.9875Se1,599,0.00664,0.000007999,0.000089556,1.9562,0.4065,125015.6269533692,0.00100266,0.0005125549
6006,10.1002/adma.201004200,80,1(a),124,Na0.0125Pb0.9875Se1,Na0.0125Pb0.9875Se1,599.5,0.0066321,0.0000080122,0.000089701,1.954,0.40761,124809.6652604778,0.0010042522,0.0005139469
6006,10.1002/adma.201004200,80,1(a),124,Na0.0125Pb0.9875Se1,Na0.0125Pb0.9875Se1,600,0.0066242,0.0000080254,0.000089845,1.9519,0.40872,124604.3810900391,0.001005822,0.0005153041
6006,10.1002/adma.201004200,80,1(a),124,Na0.0125Pb0.9875Se1,Na0.0125Pb0.9875Se1,600.5,0.0066163,0.0000080387,0.000089989,1.9498,0.40983,124398.2235933671,0.0010073793,0.0005166578
6006,10.1002/adma.201004200,80,1(a),124,Na0.0125Pb0.9875Se1,Na0.0125Pb0.9875Se1,601,0.0066083,0.000008052,0.000090134,1.9477,0.41093,124192.7471435668,0.001008959,0.0005180259
6006,10.1002/adma.201004200,80,1(a),124,Na0.0125Pb0.9875Se1,Na0.0125Pb0.9875Se1,601.5,0.0066004,0.0000080654,0.000090278,1.9456,0.41204,123986.4110893446,0.0010105038,0.000519379
6006,10.1002/adma.201004200,80,1(a),124,Na0.0125Pb0.9875Se1,Na0.0125Pb0.9875Se1,602,0.0065925,0.0000080787,0.000090423,1.9435,0.41315,123782.2917053486,0.0010120835,0.000520753
6006,10.1002/adma.201004200,80,1(a),124,Na0.0125Pb0.9875Se1,Na0.0125Pb0.9875Se1,602.5,0.0065846,0.0000080921,0.000090567,1.9413,0.41426,123577.3161478479,0.0010136283,0.0005221389
6006,10.1002/adma.201004200,80,1(a),124,Na0.0125Pb0.9875Se1,Na0.0125Pb0.9875Se1,603,0.0065767,0.0000081055,0.000090712,1.9392,0.41536,123373.0183208932,0.0010151955,0.0005235125
6006,10.1002/adma.201004200,80,1(a),124,Na0.0125Pb0.9875Se1,Na0.0125Pb0.9875Se1,603.5,0.0065688,0.000008119,0.000090857,1.9371,0.41647,123167.8778174652,0.0010167501,0.0005248826
6006,10.1002/adma.201004200,80,1(a),124,Na0.0125Pb0.9875Se1,Na0.0125Pb0.9875Se1,604,0.0065609,0.0000081324,0.000091001,1.935,0.41758,122964.9304018494,0.001018295,0.0005262506
6006,10.1002/adma.201004200,80,1(a),124,Na0.0125Pb0.9875Se1,Na0.0125Pb0.9875Se1,604.5,0.0065529,0.0000081459,0.000091146,1.9329,0.41869,122761.1436428142,0.0010198497,0.0005276267
6006,10.1002/adma.201004200,80,1(a),124,Na0.0125Pb0.9875Se1,Na0.0125Pb0.9875Se1,605,0.006545,0.0000081595,0.000091291,1.9308,0.4198,122556.5291990931,0.0010213918,0.0005289993
6006,10.1002/adma.201004200,80,1(a),124,Na0.0125Pb0.9875Se1,Na0.0125Pb0.9875Se1,605.5,0.0065371,0.000008173,0.000091436,1.9287,0.4209,122354.0927444023,0.0010229465,0.0005303814
6006,10.1002/adma.201004200,80,1(a),124,Na0.0125Pb0.9875Se1,Na0.0125Pb0.9875Se1,606,0.0065292,0.0000081866,0.000091582,1.9266,0.42201,122150.8318471649,0.0010245111,0.0005317716
6006,10.1002/adma.201004200,80,1(a),124,Na0.0125Pb0.9875Se1,Na0.0125Pb0.9875Se1,606.5,0.0065213,0.0000082002,0.000091727,1.9245,0.42312,121948.2451647521,0.0010260533,0.0005331532
6006,10.1002/adma.201004200,80,1(a),124,Na0.0125Pb0.9875Se1,Na0.0125Pb0.9875Se1,607,0.0065134,0.0000082139,0.000091872,1.9224,0.42423,121744.8471493444,0.001027583,0.0005345313
6006,10.1002/adma.201004200,80,1(a),124,Na0.0125Pb0.9875Se1,Na0.0125Pb0.9875Se1,607.5,0.0065055,0.0000082275,0.000092018,1.9203,0.42533,121543.6037678517,0.0010291477,0.0005359307
6006,10.1002/adma.201004200,80,1(a),124,Na0.0125Pb0.9875Se1,Na0.0125Pb0.9875Se1,608,0.0064975,0.0000082412,0.000092163,1.9183,0.42644,121341.5522011358,0.0010306774,0.0005372869
6006,10.1002/adma.201004200,80,1(a),124,Na0.0125Pb0.9875Se1,Na0.0125Pb0.9875Se1,608.5,0.0064896,0.0000082549,0.000092309,1.9162,0.42755,121140.1712922022,0.0010322295,0.0005386857
6006,10.1002/adma.201004200,80,1(a),124,Na0.0125Pb0.9875Se1,Na0.0125Pb0.9875Se1,609,0.0064817,0.0000082687,0.000092455,1.9141,0.42866,120937.9950899174,0.0010337692,0.0005400811
6006,10.1002/adma.201004200,80,1(a),124,Na0.0125Pb0.9875Se1,Na0.0125Pb0.9875Se1,609.5,0.0064738,0.0000082825,0.000092601,1.912,0.42976,120736.4926048898,0.0010353088,0.0005414795
6006,10.1002/adma.201004200,80,1(a),124,Na0.0125Pb0.9875Se1,Na0.0125Pb0.9875Se1,610,0.0064659,0.0000082963,0.000092747,1.9099,0.43087,120535.6604751516,0.0010368485,0.000542881
6006,10.1002/adma.201004200,80,1(a),124,Na0.0125Pb0.9875Se1,Na0.0125Pb0.9875Se1,610.5,0.006458,0.0000083101,0.000092893,1.9078,0.43198,120335.4953610667,0.0010383882,0.0005442856
6006,10.1002/adma.201004200,80,1(a),124,Na0.0125Pb0.9875Se1,Na0.0125Pb0.9875Se1,611,0.0064501,0.000008324,0.000093039,1.9058,0.43309,120134.5506967804,0.0010399154,0.0005456582
6006,10.1002/adma.201004200,80,1(a),124,Na0.0125Pb0.9875Se1,Na0.0125Pb0.9875Se1,611.5,0.0064421,0.0000083379,0.000093185,1.9037,0.43419,119934.2760167428,0.0010414426,0.0005470624
6006,10.1002/adma.201004200,80,1(a),124,Na0.0125Pb0.9875Se1,Na0.0125Pb0.9875Se1,612,0.0064342,0.0000083518,0.000093331,1.9016,0.4353,119734.6679757657,0.0010429698,0.0005484696
6006,10.1002/adma.201004200,80,1(a),124,Na0.0125Pb0.9875Se1,Na0.0125Pb0.9875Se1,612.5,0.0064263,0.0000083658,0.000093478,1.8996,0.43641,119534.2943890602,0.001044507,0.0005498563
6006,10.1002/adma.201004200,80,1(a),124,Na0.0125Pb0.9875Se1,Na0.0125Pb0.9875Se1,613,0.0064184,0.0000083797,0.000093624,1.8975,0.43752,119336.0144157905,0.0010460343,0.0005512697
6006,10.1002/adma.201004200,80,1(a),124,Na0.0125Pb0.9875Se1,Na0.0125Pb0.9875Se1,613.5,0.0064105,0.0000083938,0.000093771,1.8954,0.43862,119135.5524315566,0.001047559,0.0005526849
6006,10.1002/adma.201004200,80,1(a),124,Na0.0125Pb0.9875Se1,Na0.0125Pb0.9875Se1,614,0.0064026,0.0000084078,0.000093918,1.8934,0.43973,118937.1773829064,0.0010490962,0.0005540806
6006,10.1002/adma.201004200,80,1(a),124,Na0.0125Pb0.9875Se1,Na0.0125Pb0.9875Se1,614.5,0.0063947,0.0000084219,0.000094065,1.8913,0.44084,118738.0519835192,0.0010506209,0.000555502
6006,10.1002/adma.201004200,80,1(a),124,Na0.0125Pb0.9875Se1,Na0.0125Pb0.9875Se1,615,0.0063867,0.000008436,0.000094212,1.8892,0.44195,118539.5922238027,0.0010521457,0.0005569266
6006,10.1002/adma.201004200,80,1(a),124,Na0.0125Pb0.9875Se1,Na0.0125Pb0.9875Se1,615.5,0.0063788,0.0000084501,0.000094359,1.8872,0.44306,118341.7947716595,0.0010536705,0.0005583248
6006,10.1002/adma.201004200,80,1(a),124,Na0.0125Pb0.9875Se1,Na0.0125Pb0.9875Se1,616,0.0063709,0.0000084643,0.000094506,1.8851,0.44416,118143.2605177038,0.0010551828,0.000559749
6006,10.1002/adma.201004200,80,1(a),124,Na0.0125Pb0.9875Se1,Na0.0125Pb0.9875Se1,616.5,0.006363,0.0000084784,0.000094653,1.8831,0.44527,117946.7824117758,0.0010567077,0.0005611532
6006,10.1002/adma.201004200,80,1(a),124,Na0.0125Pb0.9875Se1,Na0.0125Pb0.9875Se1,617,0.0063551,0.0000084927,0.000094801,1.881,0.44638,117748.1837342659,0.00105823,0.000562589
6006,10.1002/adma.201004200,80,1(a),124,Na0.0125Pb0.9875Se1,Na0.0125Pb0.9875Se1,617.5,0.0063472,0.0000085069,0.000094948,1.879,0.44749,117551.6345554785,0.0010597424,0.0005639928
6006,10.1002/adma.201004200,80,1(a),124,Na0.0125Pb0.9875Se1,Na0.0125Pb0.9875Se1,618,0.0063393,0.0000085212,0.000095096,1.8769,0.44859,117354.3632352251,0.0010612648,0.0005654349
6006,10.1002/adma.201004200,80,1(a),124,Na0.0125Pb0.9875Se1,Na0.0125Pb0.9875Se1,618.5,0.0063313,0.0000085355,0.000095243,1.8749,0.4497,117157.7529142991,0.0010627648,0.0005668381
6006,10.1002/adma.201004200,80,1(a),124,Na0.0125Pb0.9875Se1,Na0.0125Pb0.9875Se1,619,0.0063234,0.0000085498,0.000095391,1.8728,0.45081,116961.8002760298,0.0010642872,0.0005682866
6006,10.1002/adma.201004200,80,1(a),124,Na0.0125Pb0.9875Se1,Na0.0125Pb0.9875Se1,619.5,0.0063155,0.0000085642,0.000095539,1.8708,0.45192,116765.1386002195,0.0010657972,0.0005697013
6006,10.1002/adma.201004200,80,1(a),124,Na0.0125Pb0.9875Se1,Na0.0125Pb0.9875Se1,620,0.0063076,0.0000085786,0.000095687,1.8688,0.45302,116569.1371552468,0.0010673072,0.000571119
6006,10.1002/adma.201004200,80,1(a),124,Na0.0125Pb0.9875Se1,Na0.0125Pb0.9875Se1,620.5,0.0062997,0.000008593,0.000095836,1.8667,0.45413,116373.7926219015,0.0010688396,0.0005725824
6006,10.1002/adma.201004200,80,1(a),124,Na0.0125Pb0.9875Se1,Na0.0125Pb0.9875Se1,621,0.0062918,0.0000086075,0.000095984,1.8647,0.45524,116177.7519604996,0.0010703373,0.0005739997
6006,10.1002/adma.201004200,80,1(a),124,Na0.0125Pb0.9875Se1,Na0.0125Pb0.9875Se1,621.5,0.0062839,0.0000086219,0.000096133,1.8627,0.45635,115983.7158862896,0.0010718697,0.0005754387
6006,10.1002/adma.201004200,80,1(a),124,Na0.0125Pb0.9875Se1,Na0.0125Pb0.9875Se1,622,0.0062759,0.0000086365,0.000096281,1.8606,0.45745,115787.6454582296,0.0010733551,0.0005768865
6006,10.1002/adma.201004200,80,1(a),124,Na0.0125Pb0.9875Se1,Na0.0125Pb0.9875Se1,622.5,0.006268,0.000008651,0.00009643,1.8586,0.45856,115593.5729973413,0.0010748751,0.0005783252
6006,10.1002/adma.201004200,80,1(a),124,Na0.0125Pb0.9875Se1,Na0.0125Pb0.9875Se1,623,0.0062601,0.0000086656,0.000096579,1.8566,0.45967,115398.8183161004,0.0010763829,0.0005797602
6006,10.1002/adma.201004200,80,1(a),124,Na0.0125Pb0.9875Se1,Na0.0125Pb0.9875Se1,623.5,0.0062522,0.0000086802,0.000096728,1.8546,0.46078,115204.7187852814,0.0010778906,0.0005811984
6006,10.1002/adma.201004200,80,1(a),124,Na0.0125Pb0.9875Se1,Na0.0125Pb0.9875Se1,624,0.0062443,0.0000086948,0.000096877,1.8525,0.46188,115011.2711045683,0.0010793984,0.0005826712
6006,10.1002/adma.201004200,80,1(a),124,Na0.0125Pb0.9875Se1,Na0.0125Pb0.9875Se1,624.5,0.0062364,0.0000087095,0.000097026,1.8505,0.46299,114817.1536827602,0.0010808938,0.0005841091
6006,10.1002/adma.201004200,80,1(a),124,Na0.0125Pb0.9875Se1,Na0.0125Pb0.9875Se1,625,0.0062285,0.0000087242,0.000097175,1.8485,0.4641,114623.6904243369,0.0010823893,0.0005855501
6006,10.1002/adma.201004200,80,1(a),124,Na0.0125Pb0.9875Se1,Na0.0125Pb0.9875Se1,625.5,0.0062205,0.0000087389,0.000097325,1.8465,0.46521,114430.8780281271,0.0010839071,0.0005870063
6006,10.1002/adma.201004200,80,1(a),124,Na0.0125Pb0.9875Se1,Na0.0125Pb0.9875Se1,626,0.0062126,0.0000087537,0.000097475,1.8445,0.46632,114237.4081816832,0.0010854125,0.0005884589
6006,10.1002/adma.201004200,80,1(a),124,Na0.0125Pb0.9875Se1,Na0.0125Pb0.9875Se1,626.5,0.0062047,0.0000087685,0.000097624,1.8425,0.46742,114044.5914352512,0.0010868957,0.0005899027
6006,10.1002/adma.201004200,80,1(a),124,Na0.0125Pb0.9875Se1,Na0.0125Pb0.9875Se1,627,0.0061968,0.0000087833,0.000097774,1.8405,0.46853,113852.4244873795,0.0010884013,0.0005913617
6006,10.1002/adma.201004200,80,1(a),124,Na0.0125Pb0.9875Se1,Na0.0125Pb0.9875Se1,627.5,0.0061889,0.0000087981,0.000097924,1.8385,0.46964,113660.9040588309,0.0010899069,0.000592824
6006,10.1002/adma.201004200,80,1(a),124,Na0.0125Pb0.9875Se1,Na0.0125Pb0.9875Se1,628,0.006181,0.000008813,0.000098074,1.8365,0.47075,113468.7393623057,0.0010914001,0.0005942827
6006,10.1002/adma.201004200,80,1(a),124,Na0.0125Pb0.9875Se1,Na0.0125Pb0.9875Se1,628.5,0.0061731,0.0000088279,0.000098225,1.8345,0.47185,113277.2233487013,0.0010929157,0.0005957567
6006,10.1002/adma.201004200,80,1(a),124,Na0.0125Pb0.9875Se1,Na0.0125Pb0.9875Se1,629,0.0061651,0.0000088429,0.000098375,1.8325,0.47296,113085.0739010958,0.0010943967,0.0005972151
6006,10.1002/adma.201004200,80,1(a),124,Na0.0125Pb0.9875Se1,Na0.0125Pb0.9875Se1,629.5,0.0061572,0.0000088579,0.000098526,1.8305,0.47407,112893.5752266339,0.0010959,0.0005986889
6006,10.1002/adma.201004200,80,1(a),124,Na0.0125Pb0.9875Se1,Na0.0125Pb0.9875Se1,630,0.0061493,0.0000088729,0.000098676,1.8285,0.47518,112702.7240248397,0.0010973811,0.0006001537
6006,10.1002/adma.201004200,80,1(a),124,Na0.0125Pb0.9875Se1,Na0.0125Pb0.9875Se1,630.5,0.0061414,0.0000088879,0.000098827,1.8265,0.47628,112512.5170175182,0.0010988845,0.000601634
6006,10.1002/adma.201004200,80,1(a),124,Na0.0125Pb0.9875Se1,Na0.0125Pb0.9875Se1,631,0.0061335,0.000008903,0.000098978,1.8245,0.47739,112321.6893182074,0.0011003757,0.0006031108
6006,10.1002/adma.201004200,80,1(a),124,Na0.0125Pb0.9875Se1,Na0.0125Pb0.9875Se1,631.5,0.0061256,0.0000089181,0.00009913,1.8225,0.4785,112131.5078323858,0.0011018891,0.0006046031
6006,10.1002/adma.201004200,80,1(a),124,Na0.0125Pb0.9875Se1,Na0.0125Pb0.9875Se1,632,0.0061177,0.0000089332,0.000099281,1.8205,0.47961,111941.9692831236,0.0011033803,0.0006060864
6006,10.1002/adma.201004200,80,1(a),124,Na0.0125Pb0.9875Se1,Na0.0125Pb0.9875Se1,632.5,0.0061097,0.0000089484,0.000099432,1.8185,0.48071,111751.8215546913,0.0011048593,0.0006075663
6006,10.1002/adma.201004200,80,1(a),124,Na0.0125Pb0.9875Se1,Na0.0125Pb0.9875Se1,633,0.0061018,0.0000089636,0.000099584,1.8166,0.48182,111562.3187112321,0.0011063605,0.0006090281
6006,10.1002/adma.201004200,80,1(a),124,Na0.0125Pb0.9875Se1,Na0.0125Pb0.9875Se1,633.5,0.0060939,0.0000089788,0.000099736,1.8146,0.48293,111373.4574776139,0.0011078618,0.0006105267
6006,10.1002/adma.201004200,80,1(a),124,Na0.0125Pb0.9875Se1,Na0.0125Pb0.9875Se1,634,0.006086,0.0000089941,0.000099887,1.8126,0.48404,111183.9983989504,0.0011093286,0.0006120096
6006,10.1002/adma.201004200,80,1(a),124,Na0.0125Pb0.9875Se1,Na0.0125Pb0.9875Se1,634.5,0.0060781,0.0000090093,0.00010004,1.8106,0.48515,110996.4148158014,0.0011108523,0.0006135272
6006,10.1002/adma.201004200,80,1(a),124,Na0.0125Pb0.9875Se1,Na0.0125Pb0.9875Se1,635,0.0060702,0.0000090247,0.00010019,1.8087,0.48625,110807.0074351502,0.0011122847,0.0006149636
6006,10.1002/adma.201004200,80,1(a),124,Na0.0125Pb0.9875Se1,Na0.0125Pb0.9875Se1,635.5,0.0060623,0.00000904,0.00010034,1.8067,0.48736,110619.4690265487,0.0011137296,0.0006164441
6006,10.1002/adma.201004200,80,1(a),124,Na0.0125Pb0.9875Se1,Na0.0125Pb0.9875Se1,636,0.0060543,0.0000090554,0.0001005,1.8047,0.48847,110431.3448329174,0.0011153842,0.0006180441
6006,10.1002/adma.201004200,80,1(a),124,Na0.0125Pb0.9875Se1,Na0.0125Pb0.9875Se1,636.5,0.0060464,0.0000090708,0.00010065,1.8028,0.48958,110243.8594170305,0.0011168169,0.0006194902
6006,10.1002/adma.201004200,80,1(a),124,Na0.0125Pb0.9875Se1,Na0.0125Pb0.9875Se1,637,0.0060385,0.0000090863,0.0001008,1.8008,0.49068,110055.7982897329,0.0011182373,0.000620967
6006,10.1002/adma.201004200,80,1(a),124,Na0.0125Pb0.9875Se1,Na0.0125Pb0.9875Se1,637.5,0.0060306,0.0000091018,0.00010095,1.7989,0.49179,109868.3776835351,0.0011196579,0.0006224125
6006,10.1002/adma.201004200,80,1(a),124,Na0.0125Pb0.9875Se1,Na0.0125Pb0.9875Se1,638,0.0060227,0.0000091173,0.00010111,1.7969,0.4929,109681.5943316552,0.0011213004,0.0006240194
6006,10.1002/adma.201004200,80,1(a),124,Na0.0125Pb0.9875Se1,Na0.0125Pb0.9875Se1,638.5,0.0060148,0.0000091328,0.00010126,1.7949,0.49401,109495.4449894884,0.0011227211,0.0006255062
6006,10.1002/adma.201004200,80,1(a),124,Na0.0125Pb0.9875Se1,Na0.0125Pb0.9875Se1,639,0.0060069,0.0000091484,0.00010141,1.793,0.49511,109308.7315814787,0.0011241297,0.0006269547
6006,10.1002/adma.201004200,80,1(a),124,Na0.0125Pb0.9875Se1,Na0.0125Pb0.9875Se1,639.5,0.0059989,0.000009164,0.00010157,1.791,0.49622,109122.6538629419,0.00112576,0.0006285651
6006,10.1002/adma.201004200,80,1(a),124,Na0.0125Pb0.9875Se1,Na0.0125Pb0.9875Se1,640,0.005991,0.0000091797,0.00010172,1.7891,0.49733,108936.0218743532,0.0011271565,0.0006300131
6006,10.1002/adma.201004200,80,1(a),124,Na0.0125Pb0.9875Se1,Na0.0125Pb0.9875Se1,640.5,0.0059831,0.0000091954,0.00010188,1.7872,0.49844,108750.0271875068,0.0011287746,0.0006315883
6006,10.1002/adma.201004200,80,1(a),124,Na0.0125Pb0.9875Se1,Na0.0125Pb0.9875Se1,641,0.0059752,0.0000092111,0.00010203,1.7852,0.49954,108564.6665436267,0.0011301713,0.0006330783
6006,10.1002/adma.201004200,80,1(a),124,Na0.0125Pb0.9875Se1,Na0.0125Pb0.9875Se1,641.5,0.0059673,0.0000092268,0.00010218,1.7833,0.50065,108379.936706117,0.0011315681,0.000634536
6006,10.1002/adma.201004200,80,1(a),124,Na0.0125Pb0.9875Se1,Na0.0125Pb0.9875Se1,642,0.0059594,0.0000092426,0.00010234,1.7813,0.50176,108194.6638391795,0.0011331742,0.0006361501
6006,10.1002/adma.201004200,80,1(a),124,Na0.0125Pb0.9875Se1,Na0.0125Pb0.9875Se1,642.5,0.0059515,0.0000092584,0.00010249,1.7794,0.50287,108010.023330165,0.0011345589,0.0006376076
6006,10.1002/adma.201004200,80,1(a),124,Na0.0125Pb0.9875Se1,Na0.0125Pb0.9875Se1,643,0.0059435,0.0000092742,0.00010265,1.7775,0.50397,107826.0119471221,0.0011361651,0.0006391928
6006,10.1002/adma.201004200,80,1(a),124,Na0.0125Pb0.9875Se1,Na0.0125Pb0.9875Se1,643.5,0.0059356,0.0000092901,0.0001028,1.7755,0.50508,107641.4677990549,0.0011375378,0.0006406859
6006,10.1002/adma.201004200,80,1(a),124,Na0.0125Pb0.9875Se1,Na0.0125Pb0.9875Se1,644,0.0059277,0.000009306,0.00010296,1.7736,0.50619,107457.5542660649,0.0011391319,0.000642271
6006,10.1002/adma.201004200,80,1(a),124,Na0.0125Pb0.9875Se1,Na0.0125Pb0.9875Se1,644.5,0.0059198,0.000009322,0.00010311,1.7717,0.5073,107273.1173567904,0.0011404926,0.0006437278
6006,10.1002/adma.201004200,80,1(a),124,Na0.0125Pb0.9875Se1,Na0.0125Pb0.9875Se1,645,0.0059119,0.0000093379,0.00010327,1.7698,0.50841,107090.45931098,0.0011420869,0.0006453197
6006,10.1002/adma.201004200,80,1(a),124,Na0.0125Pb0.9875Se1,Na0.0125Pb0.9875Se1,645.5,0.005904,0.000009354,0.00010342,1.7679,0.50951,106906.1364122301,0.0011434356,0.0006467762
6006,10.1002/adma.201004200,80,1(a),124,Na0.0125Pb0.9875Se1,Na0.0125Pb0.9875Se1,646,0.0058961,0.00000937,0.00010358,1.7659,0.51062,106723.5859124867,0.0011450178,0.0006484046