sid,DOI,figureid,fignum,sampleid,samplename,composition,Temperature,Carrier mobility,Electrical resistivity,Seebeck coefficient,Thermal conductivity,ZT,Electrical conductivity,Power factor,Figure of merit Z
6006,10.1002/adma.201004200,80,1(a),147,Na0.0035Pb0.9965Se1,Na0.0035Pb0.9965Se1,767.5,0.0068297,0.000038111,0.00023277,1.0603,1.0089,26239.1435543544,0.0014216859,0.0013408337
6006,10.1002/adma.201004200,80,1(a),147,Na0.0035Pb0.9965Se1,Na0.0035Pb0.9965Se1,768,0.0068055,0.000038203,0.00023293,1.0601,1.0099,26175.9547679502,0.0014202127,0.0013396969
6006,10.1002/adma.201004200,80,1(a),147,Na0.0035Pb0.9965Se1,Na0.0035Pb0.9965Se1,768.5,0.0067813,0.000038294,0.00023309,1.06,1.0109,26113.7515015407,0.0014187849,0.0013384763
6006,10.1002/adma.201004200,80,1(a),147,Na0.0035Pb0.9965Se1,Na0.0035Pb0.9965Se1,769,0.0067572,0.000038386,0.00023325,1.0599,1.0119,26051.1644870526,0.0014173283,0.0013372283
6006,10.1002/adma.201004200,80,1(a),147,Na0.0035Pb0.9965Se1,Na0.0035Pb0.9965Se1,769.5,0.006733,0.000038479,0.00023341,1.0597,1.0129,25988.2013565841,0.0014158431,0.0013360792
6006,10.1002/adma.201004200,80,1(a),147,Na0.0035Pb0.9965Se1,Na0.0035Pb0.9965Se1,770,0.0067088,0.000038571,0.00023358,1.0596,1.0139,25926.2139949703,0.0014145243,0.0013349606
6006,10.1002/adma.201004200,80,1(a),147,Na0.0035Pb0.9965Se1,Na0.0035Pb0.9965Se1,770.5,0.0066846,0.000038663,0.00023374,1.0595,1.0149,25864.5216356724,0.0014130923,0.0013337351
6006,10.1002/adma.201004200,80,1(a),147,Na0.0035Pb0.9965Se1,Na0.0035Pb0.9965Se1,771,0.0066605,0.000038756,0.00023389,1.0593,1.0159,25802.4563938487,0.0014115113,0.0013324944
6006,10.1002/adma.201004200,80,1(a),147,Na0.0035Pb0.9965Se1,Na0.0035Pb0.9965Se1,771.5,0.0066363,0.000038849,0.00023405,1.0592,1.0169,25740.6883060053,0.0014100595,0.0013312496
6006,10.1002/adma.201004200,80,1(a),147,Na0.0035Pb0.9965Se1,Na0.0035Pb0.9965Se1,772,0.0066121,0.000038942,0.00023421,1.0591,1.0179,25679.2152431822,0.001408616,0.0013300123
6006,10.1002/adma.201004200,80,1(a),147,Na0.0035Pb0.9965Se1,Na0.0035Pb0.9965Se1,772.5,0.0065879,0.000039036,0.00023437,1.059,1.0189,25617.3788297981,0.0014071446,0.0013287484
6006,10.1002/adma.201004200,80,1(a),147,Na0.0035Pb0.9965Se1,Na0.0035Pb0.9965Se1,773,0.0065638,0.000039129,0.00023453,1.0589,1.0199,25556.4926269519,0.0014057175,0.0013275262
6006,10.1002/adma.201004200,80,1(a),147,Na0.0035Pb0.9965Se1,Na0.0035Pb0.9965Se1,773.5,0.0065396,0.000039223,0.00023468,1.0588,1.0209,25495.245136782,0.001404143,0.0013261646
6006,10.1002/adma.201004200,80,1(a),147,Na0.0035Pb0.9965Se1,Na0.0035Pb0.9965Se1,774,0.0065154,0.000039317,0.00023484,1.0587,1.0219,25434.2905104662,0.0014026967,0.0013249237
6006,10.1002/adma.201004200,80,1(a),147,Na0.0035Pb0.9965Se1,Na0.0035Pb0.9965Se1,774.5,0.0064912,0.000039411,0.00023499,1.0586,1.0229,25373.6266524574,0.0014011393,0.0013235776
6006,10.1002/adma.201004200,80,1(a),147,Na0.0035Pb0.9965Se1,Na0.0035Pb0.9965Se1,775,0.0064671,0.000039505,0.00023515,1.0585,1.0239,25313.2514871535,0.0013997095,0.0013223519
6006,10.1002/adma.201004200,80,1(a),147,Na0.0035Pb0.9965Se1,Na0.0035Pb0.9965Se1,775.5,0.0064429,0.0000396,0.0002353,1.0584,1.0249,25252.5252525253,0.0013981336,0.0013209879
6006,10.1002/adma.201004200,80,1(a),147,Na0.0035Pb0.9965Se1,Na0.0035Pb0.9965Se1,776,0.0064187,0.000039694,0.00023545,1.0583,1.0259,25192.7243412103,0.0013966016,0.0013196651
6006,10.1002/adma.201004200,80,1(a),147,Na0.0035Pb0.9965Se1,Na0.0035Pb0.9965Se1,776.5,0.0063945,0.000039789,0.0002356,1.0582,1.0269,25132.5743295886,0.0013950429,0.0013183168
6006,10.1002/adma.201004200,80,1(a),147,Na0.0035Pb0.9965Se1,Na0.0035Pb0.9965Se1,777,0.0063703,0.000039884,0.00023576,1.0581,1.0279,25072.7108614983,0.0013936109,0.0013170881
6006,10.1002/adma.201004200,80,1(a),147,Na0.0035Pb0.9965Se1,Na0.0035Pb0.9965Se1,777.5,0.0063462,0.000039979,0.00023591,1.058,1.0288,25013.1318942445,0.001392069,0.0013157552
6006,10.1002/adma.201004200,80,1(a),147,Na0.0035Pb0.9965Se1,Na0.0035Pb0.9965Se1,778,0.006322,0.000040075,0.00023606,1.0579,1.0298,24953.2127261385,0.0013905009,0.0013143973
6006,10.1002/adma.201004200,80,1(a),147,Na0.0035Pb0.9965Se1,Na0.0035Pb0.9965Se1,778.5,0.0062978,0.000040171,0.00023621,1.0578,1.0308,24893.579945732,0.0013889414,0.0013130472
6006,10.1002/adma.201004200,80,1(a),147,Na0.0035Pb0.9965Se1,Na0.0035Pb0.9965Se1,779,0.0062736,0.000040266,0.00023635,1.0577,1.0318,24834.8482590771,0.0013873075,0.0013116266
6006,10.1002/adma.201004200,80,1(a),147,Na0.0035Pb0.9965Se1,Na0.0035Pb0.9965Se1,779.5,0.0062495,0.000040362,0.0002365,1.0577,1.0328,24775.7791982558,0.0013857651,0.0013101684
6006,10.1002/adma.201004200,80,1(a),147,Na0.0035Pb0.9965Se1,Na0.0035Pb0.9965Se1,780,0.0062253,0.000040459,0.00023665,1.0576,1.0338,24716.3795447243,0.0013841969,0.0013088095
6006,10.1002/adma.201004200,80,1(a),147,Na0.0035Pb0.9965Se1,Na0.0035Pb0.9965Se1,780.5,0.0062011,0.000040555,0.0002368,1.0575,1.0348,24657.8720256442,0.0013826714,0.0013074907
6006,10.1002/adma.201004200,80,1(a),147,Na0.0035Pb0.9965Se1,Na0.0035Pb0.9965Se1,781,0.0061769,0.000040652,0.00023694,1.0574,1.0358,24599.0357177999,0.0013810037,0.0013060372
6006,10.1002/adma.201004200,80,1(a),147,Na0.0035Pb0.9965Se1,Na0.0035Pb0.9965Se1,781.5,0.0061528,0.000040749,0.00023709,1.0574,1.0368,24540.4795209698,0.0013794613,0.0013045785
6006,10.1002/adma.201004200,80,1(a),147,Na0.0035Pb0.9965Se1,Na0.0035Pb0.9965Se1,782,0.0061286,0.000040846,0.00023723,1.0573,1.0378,24482.2014395534,0.0013778111,0.0013031411
6006,10.1002/adma.201004200,80,1(a),147,Na0.0035Pb0.9965Se1,Na0.0035Pb0.9965Se1,782.5,0.0061044,0.000040943,0.00023737,1.0572,1.0388,24424.1994968615,0.0013761697,0.0013017118
6006,10.1002/adma.201004200,80,1(a),147,Na0.0035Pb0.9965Se1,Na0.0035Pb0.9965Se1,783,0.0060802,0.00004104,0.00023751,1.0572,1.0398,24366.4717348928,0.001374537,0.0013001675
6006,10.1002/adma.201004200,80,1(a),147,Na0.0035Pb0.9965Se1,Na0.0035Pb0.9965Se1,783.5,0.006056,0.000041138,0.00023766,1.0571,1.0408,24308.4253002091,0.0013729952,0.0012988319
6006,10.1002/adma.201004200,80,1(a),147,Na0.0035Pb0.9965Se1,Na0.0035Pb0.9965Se1,784,0.0060319,0.000041236,0.0002378,1.0571,1.0418,24250.6547676787,0.0013713464,0.0012972722
6006,10.1002/adma.201004200,80,1(a),147,Na0.0035Pb0.9965Se1,Na0.0035Pb0.9965Se1,784.5,0.0060077,0.000041334,0.00023794,1.057,1.0428,24193.1581748681,0.0013697064,0.0012958433
6006,10.1002/adma.201004200,80,1(a),147,Na0.0035Pb0.9965Se1,Na0.0035Pb0.9965Se1,785,0.0059835,0.000041432,0.00023808,1.057,1.0438,24135.9335779108,0.0013680751,0.0012943
6006,10.1002/adma.201004200,80,1(a),147,Na0.0035Pb0.9965Se1,Na0.0035Pb0.9965Se1,785.5,0.0059593,0.00004153,0.00023821,1.0569,1.0448,24078.9790512882,0.0013663377,0.0012927786
6006,10.1002/adma.201004200,80,1(a),147,Na0.0035Pb0.9965Se1,Na0.0035Pb0.9965Se1,786,0.0059352,0.000041629,0.00023835,1.0569,1.0458,24021.7156309304,0.001364691,0.0012912206
6006,10.1002/adma.201004200,80,1(a),147,Na0.0035Pb0.9965Se1,Na0.0035Pb0.9965Se1,786.5,0.005911,0.000041728,0.00023849,1.0568,1.0468,23964.7239263804,0.0013630531,0.0012897929
6006,10.1002/adma.201004200,80,1(a),147,Na0.0035Pb0.9965Se1,Na0.0035Pb0.9965Se1,787,0.0058868,0.000041827,0.00023862,1.0568,1.0478,23908.0020082722,0.0013613098,0.0012881432
6006,10.1002/adma.201004200,80,1(a),147,Na0.0035Pb0.9965Se1,Na0.0035Pb0.9965Se1,787.5,0.0058626,0.000041926,0.00023876,1.0568,1.0488,23851.547965463,0.0013596894,0.00128661
6006,10.1002/adma.201004200,80,1(a),147,Na0.0035Pb0.9965Se1,Na0.0035Pb0.9965Se1,788,0.0058385,0.000042025,0.00023889,1.0567,1.0498,23795.3599048186,0.0013579639,0.0012850988
6006,10.1002/adma.201004200,80,1(a),147,Na0.0035Pb0.9965Se1,Na0.0035Pb0.9965Se1,788.5,0.0058143,0.000042125,0.00023903,1.0567,1.0508,23738.8724035608,0.0013563286,0.0012835512
6006,10.1002/adma.201004200,80,1(a),147,Na0.0035Pb0.9965Se1,Na0.0035Pb0.9965Se1,789,0.0057901,0.000042225,0.00023916,1.0566,1.0518,23682.6524570752,0.0013545886,0.001282026
6006,10.1002/adma.201004200,80,1(a),147,Na0.0035Pb0.9965Se1,Na0.0035Pb0.9965Se1,789.5,0.0057659,0.000042325,0.00023929,1.0566,1.0528,23626.6981689309,0.0013528577,0.0012803878
6006,10.1002/adma.201004200,80,1(a),147,Na0.0035Pb0.9965Se1,Na0.0035Pb0.9965Se1,790,0.0057417,0.000042425,0.00023942,1.0566,1.0538,23571.0076605775,0.0013511358,0.0012787581
6006,10.1002/adma.201004200,80,1(a),147,Na0.0035Pb0.9965Se1,Na0.0035Pb0.9965Se1,790.5,0.0057176,0.000042525,0.00023955,1.0566,1.0547,23515.5790711346,0.0013494228,0.0012771368
6006,10.1002/adma.201004200,80,1(a),147,Na0.0035Pb0.9965Se1,Na0.0035Pb0.9965Se1,791,0.0056934,0.000042626,0.00023968,1.0565,1.0557,23459.8601792333,0.0013476869,0.0012756147
6006,10.1002/adma.201004200,80,1(a),147,Na0.0035Pb0.9965Se1,Na0.0035Pb0.9965Se1,791.5,0.0056692,0.000042726,0.00023981,1.0565,1.0567,23404.9524879465,0.0013459916,0.00127401
6006,10.1002/adma.201004200,80,1(a),147,Na0.0035Pb0.9965Se1,Na0.0035Pb0.9965Se1,792,0.005645,0.000042827,0.00023993,1.0565,1.0577,23349.7559950499,0.0013441615,0.0012722778
6006,10.1002/adma.201004200,80,1(a),147,Na0.0035Pb0.9965Se1,Na0.0035Pb0.9965Se1,792.5,0.0056209,0.000042928,0.00024006,1.0565,1.0587,23294.8192322028,0.0013424526,0.0012706603
6006,10.1002/adma.201004200,80,1(a),147,Na0.0035Pb0.9965Se1,Na0.0035Pb0.9965Se1,793,0.0055967,0.00004303,0.00024018,1.0565,1.0597,23239.6002788752,0.0013406096,0.0012689159
6006,10.1002/adma.201004200,80,1(a),147,Na0.0035Pb0.9965Se1,Na0.0035Pb0.9965Se1,793.5,0.0055725,0.000043131,0.00024031,1.0565,1.0607,23185.180032923,0.0013389186,0.0012673152
6006,10.1002/adma.201004200,80,1(a),147,Na0.0035Pb0.9965Se1,Na0.0035Pb0.9965Se1,794,0.0055483,0.000043233,0.00024043,1.0564,1.0617,23130.4790322208,0.001337094,0.0012657081
6006,10.1002/adma.201004200,80,1(a),147,Na0.0035Pb0.9965Se1,Na0.0035Pb0.9965Se1,794.5,0.0055242,0.000043335,0.00024055,1.0564,1.0627,23076.0355370947,0.0013352787,0.0012639897
6006,10.1002/adma.201004200,80,1(a),147,Na0.0035Pb0.9965Se1,Na0.0035Pb0.9965Se1,795,0.0055,0.000043437,0.00024067,1.0564,1.0637,23021.8477334991,0.0013334726,0.00126228
6006,10.1002/adma.201004200,80,1(a),147,Na0.0035Pb0.9965Se1,Na0.0035Pb0.9965Se1,795.5,0.0054758,0.000043539,0.00024079,1.0564,1.0647,22967.9138243873,0.0013316756,0.001260579
6006,10.1002/adma.201004200,80,1(a),147,Na0.0035Pb0.9965Se1,Na0.0035Pb0.9965Se1,796,0.0054516,0.000043642,0.00024091,1.0564,1.0657,22913.7069795151,0.0013298572,0.0012588576
6006,10.1002/adma.201004200,80,1(a),147,Na0.0035Pb0.9965Se1,Na0.0035Pb0.9965Se1,796.5,0.0054275,0.000043745,0.00024103,1.0564,1.0667,22859.7554006172,0.001328048,0.001257145
6006,10.1002/adma.201004200,80,1(a),147,Na0.0035Pb0.9965Se1,Na0.0035Pb0.9965Se1,797,0.0054033,0.000043848,0.00024115,1.0564,1.0677,22806.0572888159,0.001326248,0.0012554411
6006,10.1002/adma.201004200,80,1(a),147,Na0.0035Pb0.9965Se1,Na0.0035Pb0.9965Se1,797.5,0.0053791,0.000043951,0.00024126,1.0564,1.0687,22752.6108620964,0.0013243473,0.0012536419
6006,10.1002/adma.201004200,80,1(a),147,Na0.0035Pb0.9965Se1,Na0.0035Pb0.9965Se1,798,0.0053549,0.000044054,0.00024138,1.0564,1.0697,22699.4143551096,0.0013225656,0.0012519553
6006,10.1002/adma.201004200,80,1(a),147,Na0.0035Pb0.9965Se1,Na0.0035Pb0.9965Se1,798.5,0.0053307,0.000044157,0.00024149,1.0564,1.0707,22646.4660189777,0.0013206835,0.0012501737
6006,10.1002/adma.201004200,80,1(a),147,Na0.0035Pb0.9965Se1,Na0.0035Pb0.9965Se1,799,0.0053066,0.000044261,0.0002416,1.0564,1.0717,22593.2536544588,0.0013187809,0.0012483727
6006,10.1002/adma.201004200,80,1(a),147,Na0.0035Pb0.9965Se1,Na0.0035Pb0.9965Se1,799.5,0.0052824,0.000044365,0.00024172,1.0564,1.0727,22540.2907697509,0.0013169967,0.0012466837
6006,10.1002/adma.201004200,80,1(a),147,Na0.0035Pb0.9965Se1,Na0.0035Pb0.9965Se1,800,0.0052582,0.000044469,0.00024183,1.0565,1.0737,22487.575614473,0.0013151128,0.0012447825
6006,10.1002/adma.201004200,80,1(a),147,Na0.0035Pb0.9965Se1,Na0.0035Pb0.9965Se1,800.5,0.005234,0.000044573,0.00024194,1.0565,1.0747,22435.1064545801,0.0013132381,0.0012430082
6006,10.1002/adma.201004200,80,1(a),147,Na0.0035Pb0.9965Se1,Na0.0035Pb0.9965Se1,801,0.0052099,0.000044678,0.00024204,1.0565,1.0757,22382.3805899996,0.0013112351,0.0012411123
6006,10.1002/adma.201004200,80,1(a),147,Na0.0035Pb0.9965Se1,Na0.0035Pb0.9965Se1,801.5,0.0051857,0.000044783,0.00024215,1.0565,1.0767,22329.9019717303,0.00130935,0.001239328
6006,10.1002/adma.201004200,80,1(a),147,Na0.0035Pb0.9965Se1,Na0.0035Pb0.9965Se1,802,0.0051615,0.000044887,0.00024226,1.0565,1.0777,22278.1651703166,0.0013075035,0.0012375802
6006,10.1002/adma.201004200,80,1(a),147,Na0.0035Pb0.9965Se1,Na0.0035Pb0.9965Se1,802.5,0.0051373,0.000044993,0.00024236,1.0565,1.0787,22225.6795501522,0.0013055002,0.001235684
6006,10.1002/adma.201004200,80,1(a),147,Na0.0035Pb0.9965Se1,Na0.0035Pb0.9965Se1,803,0.0051132,0.000045098,0.00024247,1.0566,1.0797,22173.9323251585,0.0013036432,0.0012338096
6006,10.1002/adma.201004200,80,1(a),147,Na0.0035Pb0.9965Se1,Na0.0035Pb0.9965Se1,803.5,0.005089,0.000045203,0.00024257,1.0566,1.0806,22122.4255027321,0.001301688,0.0012319592
6006,10.1002/adma.201004200,80,1(a),147,Na0.0035Pb0.9965Se1,Na0.0035Pb0.9965Se1,804,0.0050648,0.000045309,0.00024267,1.0566,1.0816,22070.6702862566,0.0012997137,0.0012300906
6006,10.1002/adma.201004200,80,1(a),147,Na0.0035Pb0.9965Se1,Na0.0035Pb0.9965Se1,804.5,0.0050406,0.000045415,0.00024277,1.0566,1.0826,22019.1566662997,0.001297749,0.0012282312
6006,10.1002/adma.201004200,80,1(a),147,Na0.0035Pb0.9965Se1,Na0.0035Pb0.9965Se1,805,0.0050164,0.000045521,0.00024287,1.0567,1.0836,21967.8829551196,0.001295794,0.0012262647
6006,10.1002/adma.201004200,80,1(a),147,Na0.0035Pb0.9965Se1,Na0.0035Pb0.9965Se1,805.5,0.0049923,0.000045627,0.00024297,1.0567,1.0846,21916.8474806584,0.0012938484,0.0012244236
6006,10.1002/adma.201004200,80,1(a),147,Na0.0035Pb0.9965Se1,Na0.0035Pb0.9965Se1,806,0.0049681,0.000045734,0.00024307,1.0567,1.0856,21865.5704727336,0.001291884,0.0012225646
6006,10.1002/adma.201004200,80,1(a),147,Na0.0035Pb0.9965Se1,Na0.0035Pb0.9965Se1,806.5,0.0049439,0.00004584,0.00024317,1.0567,1.0866,21815.0087260035,0.0012899574,0.0012207414
6006,10.1002/adma.201004200,80,1(a),147,Na0.0035Pb0.9965Se1,Na0.0035Pb0.9965Se1,807,0.0049197,0.000045947,0.00024326,1.0568,1.0876,21764.2065858489,0.0012879062,0.0012186849
6006,10.1002/adma.201004200,80,1(a),147,Na0.0035Pb0.9965Se1,Na0.0035Pb0.9965Se1,807.5,0.0048956,0.000046054,0.00024335,1.0568,1.0886,21713.6405089677,0.0012858649,0.0012167533
6006,10.1002/adma.201004200,80,1(a),147,Na0.0035Pb0.9965Se1,Na0.0035Pb0.9965Se1,808,0.0048714,0.000046161,0.00024345,1.0568,1.0896,21663.3088537943,0.0012839389,0.0012149308
6006,10.1002/adma.201004200,80,1(a),147,Na0.0035Pb0.9965Se1,Na0.0035Pb0.9965Se1,808.5,0.0048472,0.000046269,0.00024354,1.0569,1.0906,21612.742873198,0.0012818892,0.0012128765
6006,10.1002/adma.201004200,80,1(a),147,Na0.0035Pb0.9965Se1,Na0.0035Pb0.9965Se1,809,0.004823,0.000046376,0.00024363,1.0569,1.0916,21562.8773503536,0.001279877,0.0012109727
6006,10.1002/adma.201004200,80,1(a),147,Na0.0035Pb0.9965Se1,Na0.0035Pb0.9965Se1,809.5,0.0047989,0.000046484,0.00024372,1.057,1.0926,21512.7785904827,0.001277847,0.0012089375
6006,10.1002/adma.201004200,80,1(a),147,Na0.0035Pb0.9965Se1,Na0.0035Pb0.9965Se1,810,0.0047747,0.000046592,0.00024381,1.057,1.0936,21462.9120879121,0.0012758267,0.0012070262
6006,10.1002/adma.201004200,80,1(a),147,Na0.0035Pb0.9965Se1,Na0.0035Pb0.9965Se1,810.5,0.0047505,0.0000467,0.00024389,1.057,1.0946,21413.2762312634,0.0012737116,0.0012050252
6006,10.1002/adma.201004200,80,1(a),147,Na0.0035Pb0.9965Se1,Na0.0035Pb0.9965Se1,811,0.0047263,0.000046809,0.00024398,1.0571,1.0956,21363.4130188639,0.0012716837,0.0012029928
6006,10.1002/adma.201004200,80,1(a),147,Na0.0035Pb0.9965Se1,Na0.0035Pb0.9965Se1,811.5,0.0047021,0.000046917,0.00024406,1.0571,1.0966,21314.2357780762,0.0012695885,0.0012010108
6006,10.1002/adma.201004200,80,1(a),147,Na0.0035Pb0.9965Se1,Na0.0035Pb0.9965Se1,812,0.004678,0.000047026,0.00024414,1.0572,1.0976,21264.8322204738,0.0012674763,0.0011988992
6006,10.1002/adma.201004200,80,1(a),147,Na0.0035Pb0.9965Se1,Na0.0035Pb0.9965Se1,812.5,0.0046538,0.000047135,0.00024422,1.0572,1.0986,21215.6571549804,0.0012653741,0.0011969108
6006,10.1002/adma.201004200,80,1(a),147,Na0.0035Pb0.9965Se1,Na0.0035Pb0.9965Se1,813,0.0046296,0.000047244,0.0002443,1.0573,1.0996,21166.7090000847,0.0012632819,0.0011948188
6006,10.1002/adma.201004200,80,1(a),147,Na0.0035Pb0.9965Se1,Na0.0035Pb0.9965Se1,813.5,0.0046054,0.000047354,0.00024438,1.0573,1.1006,21117.5402289141,0.001261173,0.0011928241
6006,10.1002/adma.201004200,80,1(a),147,Na0.0035Pb0.9965Se1,Na0.0035Pb0.9965Se1,814,0.0045813,0.000047463,0.00024446,1.0574,1.1016,21069.0432547458,0.0012591006,0.0011907515
6006,10.1002/adma.201004200,80,1(a),147,Na0.0035Pb0.9965Se1,Na0.0035Pb0.9965Se1,814.5,0.0045571,0.000047573,0.00024454,1.0574,1.1026,21020.3266558762,0.0012570116,0.0011887758
6006,10.1002/adma.201004200,80,1(a),147,Na0.0035Pb0.9965Se1,Na0.0035Pb0.9965Se1,815,0.0045329,0.000047683,0.00024461,1.0575,1.1036,20971.8348258289,0.0012548299,0.0011866003
6006,10.1002/adma.201004200,80,1(a),147,Na0.0035Pb0.9965Se1,Na0.0035Pb0.9965Se1,815.5,0.0045087,0.000047793,0.00024469,1.0575,1.1046,20923.5662126253,0.0012527608,0.0011846438
6006,10.1002/adma.201004200,80,1(a),147,Na0.0035Pb0.9965Se1,Na0.0035Pb0.9965Se1,816,0.0044846,0.000047903,0.00024476,1.0576,1.1056,20875.5192785421,0.0012505993,0.001182488
6006,10.1002/adma.201004200,80,1(a),147,Na0.0035Pb0.9965Se1,Na0.0035Pb0.9965Se1,816.5,0.0044604,0.000048014,0.00024483,1.0576,1.1065,20827.2587162078,0.0012484219,0.0011804292
6006,10.1002/adma.201004200,80,1(a),147,Na0.0035Pb0.9965Se1,Na0.0035Pb0.9965Se1,817,0.0044362,0.000048125,0.0002449,1.0577,1.1075,20779.2207792208,0.0012462548,0.0011782687
6006,10.1002/adma.201004200,80,1(a),147,Na0.0035Pb0.9965Se1,Na0.0035Pb0.9965Se1,817.5,0.004412,0.000048236,0.00024497,1.0577,1.1085,20731.4039306742,0.0012440978,0.0011762294
6006,10.1002/adma.201004200,80,1(a),147,Na0.0035Pb0.9965Se1,Na0.0035Pb0.9965Se1,818,0.0043878,0.000048347,0.00024503,1.0578,1.1095,20683.8066477755,0.0012418496,0.0011739928
6006,10.1002/adma.201004200,80,1(a),147,Na0.0035Pb0.9965Se1,Na0.0035Pb0.9965Se1,818.5,0.0043637,0.000048458,0.0002451,1.0579,1.1105,20636.4274216848,0.0012397129,0.0011718621
6006,10.1002/adma.201004200,80,1(a),147,Na0.0035Pb0.9965Se1,Na0.0035Pb0.9965Se1,819,0.0043395,0.00004857,0.00024516,1.0579,1.1115,20588.8408482602,0.0012374599,0.0011697324
6006,10.1002/adma.201004200,80,1(a),147,Na0.0035Pb0.9965Se1,Na0.0035Pb0.9965Se1,819.5,0.0043153,0.000048681,0.00024522,1.058,1.1125,20541.8951952507,0.0012352427,0.0011675262
6006,10.1002/adma.201004200,80,1(a),147,Na0.0035Pb0.9965Se1,Na0.0035Pb0.9965Se1,820,0.0042911,0.000048793,0.00024528,1.058,1.1135,20494.7430983953,0.0012330104,0.0011654163
6006,10.1002/adma.201004200,80,1(a),147,Na0.0035Pb0.9965Se1,Na0.0035Pb0.9965Se1,820.5,0.004267,0.000048905,0.00024534,1.0581,1.1145,20447.8069727022,0.0012307886,0.0011632063
6006,10.1002/adma.201004200,80,1(a),147,Na0.0035Pb0.9965Se1,Na0.0035Pb0.9965Se1,821,0.0042428,0.000049018,0.0002454,1.0581,1.1155,20400.6691419479,0.001228552,0.0011610925
6006,10.1002/adma.201004200,80,1(a),147,Na0.0035Pb0.9965Se1,Na0.0035Pb0.9965Se1,821.5,0.0042186,0.00004913,0.00024546,1.0582,1.1165,20354.1624262162,0.0012263507,0.0011589026
6006,10.1002/adma.201004200,80,1(a),147,Na0.0035Pb0.9965Se1,Na0.0035Pb0.9965Se1,822,0.0041944,0.000049243,0.00024551,1.0583,1.1175,20307.4548666816,0.0012240351,0.001156605
6006,10.1002/adma.201004200,80,1(a),147,Na0.0035Pb0.9965Se1,Na0.0035Pb0.9965Se1,822.5,0.0041703,0.000049356,0.00024557,1.0583,1.1185,20260.9611799984,0.0012218297,0.0011545211
6006,10.1002/adma.201004200,80,1(a),147,Na0.0035Pb0.9965Se1,Na0.0035Pb0.9965Se1,823,0.0041461,0.000049469,0.00024562,1.0584,1.1195,20214.6799005438,0.0012195352,0.0011522441
6006,10.1002/adma.201004200,80,1(a),147,Na0.0035Pb0.9965Se1,Na0.0035Pb0.9965Se1,823.5,0.0041219,0.000049582,0.00024567,1.0585,1.1205,20168.6095760558,0.0012172512,0.0011499775