sid,DOI,figureid,fignum,sampleid,samplename,composition,Temperature,Carrier mobility,Electrical resistivity,Seebeck coefficient,Thermal conductivity,ZT,Electrical conductivity,Power factor,Figure of merit Z
6006,10.1002/adma.201004200,80,1(a),124,Na0.0125Pb0.9875Se1,Na0.0125Pb0.9875Se1,314.5,0.011143,0.0000033033,0.000024114,3.7738,0.01467,302727.5754548482,0.0001760315,0.0000466457
6006,10.1002/adma.201004200,80,1(a),124,Na0.0125Pb0.9875Se1,Na0.0125Pb0.9875Se1,315,0.011135,0.0000033065,0.000024055,3.7679,0.01463,302434.5985180705,0.0001750017,0.0000464454
6006,10.1002/adma.201004200,80,1(a),124,Na0.0125Pb0.9875Se1,Na0.0125Pb0.9875Se1,315.5,0.011127,0.0000033097,0.000023998,3.7621,0.014593,302142.1881137263,0.0001740049,0.0000462521
6006,10.1002/adma.201004200,80,1(a),124,Na0.0125Pb0.9875Se1,Na0.0125Pb0.9875Se1,316,0.011119,0.0000033129,0.000023943,3.7563,0.014557,301850.3426001389,0.0001730409,0.0000460669
6006,10.1002/adma.201004200,80,1(a),124,Na0.0125Pb0.9875Se1,Na0.0125Pb0.9875Se1,316.5,0.011112,0.0000033162,0.00002389,3.7506,0.014523,301549.9668295037,0.0001721042,0.0000458871
6006,10.1002/adma.201004200,80,1(a),124,Na0.0125Pb0.9875Se1,Na0.0125Pb0.9875Se1,317,0.011104,0.0000033195,0.000023838,3.7448,0.014491,301250.1882813676,0.0001711855,0.0000457129
6006,10.1002/adma.201004200,80,1(a),124,Na0.0125Pb0.9875Se1,Na0.0125Pb0.9875Se1,317.5,0.011096,0.0000033229,0.000023788,3.7391,0.01446,300941.9482981733,0.0001702937,0.000045544
6006,10.1002/adma.201004200,80,1(a),124,Na0.0125Pb0.9875Se1,Na0.0125Pb0.9875Se1,318,0.011088,0.0000033263,0.00002374,3.7333,0.014432,300634.3384541383,0.0001694338,0.0000453845
6006,10.1002/adma.201004200,80,1(a),124,Na0.0125Pb0.9875Se1,Na0.0125Pb0.9875Se1,318.5,0.01108,0.0000033297,0.000023694,3.7276,0.014406,300327.3568189326,0.0001686055,0.0000452316
6006,10.1002/adma.201004200,80,1(a),124,Na0.0125Pb0.9875Se1,Na0.0125Pb0.9875Se1,319,0.011072,0.0000033331,0.00002365,3.722,-0.21376,300021.0014701029,0.0001678085,0.0000450856
6006,10.1002/adma.201004200,80,1(a),124,Na0.0125Pb0.9875Se1,Na0.0125Pb0.9875Se1,319.5,0.011064,0.0000033366,0.000023607,3.7163,-0.21266,299706.2878379188,0.0001670235,0.0000449435
6006,10.1002/adma.201004200,80,1(a),124,Na0.0125Pb0.9875Se1,Na0.0125Pb0.9875Se1,320,0.011056,0.0000033401,0.000023566,3.7106,-0.21155,299392.2337654561,0.0001662694,0.0000448093
6006,10.1002/adma.201004200,80,1(a),124,Na0.0125Pb0.9875Se1,Na0.0125Pb0.9875Se1,320.5,0.011048,0.0000033437,0.000023527,3.705,-0.21044,299069.8926339085,0.0001655411,0.0000446805
6006,10.1002/adma.201004200,80,1(a),124,Na0.0125Pb0.9875Se1,Na0.0125Pb0.9875Se1,321,0.01104,0.0000033472,0.000023489,3.6994,-0.20933,298757.1701720841,0.0001648342,0.000044557
6006,10.1002/adma.201004200,80,1(a),124,Na0.0125Pb0.9875Se1,Na0.0125Pb0.9875Se1,321.5,0.011032,0.0000033508,0.000023453,3.6938,-0.20823,298436.1943416498,0.0001641528,0.0000444401
6006,10.1002/adma.201004200,80,1(a),124,Na0.0125Pb0.9875Se1,Na0.0125Pb0.9875Se1,322,0.011025,0.0000033545,0.000023419,3.6883,-0.20712,298107.0204203309,0.0001634967,0.0000443285
6006,10.1002/adma.201004200,80,1(a),124,Na0.0125Pb0.9875Se1,Na0.0125Pb0.9875Se1,322.5,0.011017,0.0000033581,0.000023387,3.6827,-0.20601,297787.4393258092,0.0001628754,0.0000442272
6006,10.1002/adma.201004200,80,1(a),124,Na0.0125Pb0.9875Se1,Na0.0125Pb0.9875Se1,323,0.011009,0.0000033618,0.000023356,3.6772,-0.2049,297459.6942114343,0.0001622651,0.0000441273
6006,10.1002/adma.201004200,80,1(a),124,Na0.0125Pb0.9875Se1,Na0.0125Pb0.9875Se1,323.5,0.011001,0.0000033656,0.000023327,3.6717,-0.2038,297123.8412170192,0.0001616796,0.000044034
6006,10.1002/adma.201004200,80,1(a),124,Na0.0125Pb0.9875Se1,Na0.0125Pb0.9875Se1,324,0.010993,0.0000033693,0.000023299,3.6662,-0.20269,296797.5543881519,0.0001611146,0.0000439459
6006,10.1002/adma.201004200,80,1(a),124,Na0.0125Pb0.9875Se1,Na0.0125Pb0.9875Se1,324.5,0.010985,0.0000033731,0.000023273,3.6607,-0.20158,296463.1940944532,0.0001605741,0.0000438643
6006,10.1002/adma.201004200,80,1(a),124,Na0.0125Pb0.9875Se1,Na0.0125Pb0.9875Se1,325,0.010977,0.000003377,0.000023249,3.6553,-0.20047,296120.8172934557,0.000160058,0.0000437879
6006,10.1002/adma.201004200,80,1(a),124,Na0.0125Pb0.9875Se1,Na0.0125Pb0.9875Se1,325.5,0.010969,0.0000033808,0.000023226,3.6498,-0.19937,295787.9791765262,0.000159562,0.000043718
6006,10.1002/adma.201004200,80,1(a),124,Na0.0125Pb0.9875Se1,Na0.0125Pb0.9875Se1,326,0.010961,0.0000033847,0.000023205,3.6444,-0.19826,295447.1592755636,0.00015909,0.0000436533
6006,10.1002/adma.201004200,80,1(a),124,Na0.0125Pb0.9875Se1,Na0.0125Pb0.9875Se1,326.5,0.010953,0.0000033886,0.000023186,3.639,-0.19715,295107.1238859706,0.0001586468,0.0000435963
6006,10.1002/adma.201004200,80,1(a),124,Na0.0125Pb0.9875Se1,Na0.0125Pb0.9875Se1,327,0.010945,0.0000033925,0.000023168,3.6336,-0.19604,294767.870302137,0.0001582185,0.0000435432
6006,10.1002/adma.201004200,80,1(a),124,Na0.0125Pb0.9875Se1,Na0.0125Pb0.9875Se1,327.5,0.010937,0.0000033965,0.000023152,3.6283,-0.19493,294420.7272191962,0.000157814,0.0000434953
6006,10.1002/adma.201004200,80,1(a),124,Na0.0125Pb0.9875Se1,Na0.0125Pb0.9875Se1,328,0.01093,0.0000034005,0.000023137,3.6229,-0.19383,294074.4008234083,0.0001574241,0.0000434525
6006,10.1002/adma.201004200,80,1(a),124,Na0.0125Pb0.9875Se1,Na0.0125Pb0.9875Se1,328.5,0.010922,0.0000034046,0.000023124,3.6176,-0.19272,293720.2608235916,0.0001570579,0.0000434149
6006,10.1002/adma.201004200,80,1(a),124,Na0.0125Pb0.9875Se1,Na0.0125Pb0.9875Se1,329,0.010914,0.0000034086,0.000023112,3.6123,-0.19161,293375.5794167694,0.0001567108,0.0000433826
6006,10.1002/adma.201004200,80,1(a),124,Na0.0125Pb0.9875Se1,Na0.0125Pb0.9875Se1,329.5,0.010906,0.0000034127,0.000023102,3.607,-0.1905,293023.1195241305,0.0001563871,0.0000433566
6006,10.1002/adma.201004200,80,1(a),124,Na0.0125Pb0.9875Se1,Na0.0125Pb0.9875Se1,330,0.010898,0.0000034168,0.000023093,3.6017,-0.1894,292671.5055022243,0.0001560778,0.0000433345
6006,10.1002/adma.201004200,80,1(a),124,Na0.0125Pb0.9875Se1,Na0.0125Pb0.9875Se1,330.5,0.01089,0.000003421,0.000023086,3.5964,-0.18829,292312.1894182988,0.0001557917,0.0000433188
6006,10.1002/adma.201004200,80,1(a),124,Na0.0125Pb0.9875Se1,Na0.0125Pb0.9875Se1,331,0.010882,0.0000034251,0.000023081,3.5912,-0.18718,291962.2784736212,0.0001555378,0.0000433108
6006,10.1002/adma.201004200,80,1(a),124,Na0.0125Pb0.9875Se1,Na0.0125Pb0.9875Se1,331.5,0.010874,0.0000034293,0.000023076,3.586,-0.18607,291604.7006677748,0.00015528,0.0000433017
6006,10.1002/adma.201004200,80,1(a),124,Na0.0125Pb0.9875Se1,Na0.0125Pb0.9875Se1,332,0.010866,0.0000034336,0.000023074,3.5808,-0.18497,291239.5153774464,0.0001550587,0.0000433028
6006,10.1002/adma.201004200,80,1(a),124,Na0.0125Pb0.9875Se1,Na0.0125Pb0.9875Se1,332.5,0.010858,0.0000034378,0.000023073,3.5756,-0.18386,290883.704694863,0.0001548558,0.000043309
6006,10.1002/adma.201004200,80,1(a),124,Na0.0125Pb0.9875Se1,Na0.0125Pb0.9875Se1,333,0.01085,0.0000034421,0.000023073,3.5704,-0.18275,290520.3218965167,0.0001546624,0.0000433179
6006,10.1002/adma.201004200,80,1(a),124,Na0.0125Pb0.9875Se1,Na0.0125Pb0.9875Se1,333.5,0.010842,0.0000034464,0.000023075,3.5653,-0.18164,290157.8458681523,0.0001544962,0.0000433333
6006,10.1002/adma.201004200,80,1(a),124,Na0.0125Pb0.9875Se1,Na0.0125Pb0.9875Se1,334,0.010835,0.0000034508,0.000023078,3.5601,-0.18054,289787.8752752985,0.0001543393,0.0000433525
6006,10.1002/adma.201004200,80,1(a),124,Na0.0125Pb0.9875Se1,Na0.0125Pb0.9875Se1,334.5,0.010827,0.0000034551,0.000023082,3.555,-0.17943,289427.2235246447,0.0001542007,0.0000433757
6006,10.1002/adma.201004200,80,1(a),124,Na0.0125Pb0.9875Se1,Na0.0125Pb0.9875Se1,335,0.010819,0.0000034595,0.000023088,3.5499,-0.17832,289059.1125885244,0.0001540846,0.0000434053
6006,10.1002/adma.201004200,80,1(a),124,Na0.0125Pb0.9875Se1,Na0.0125Pb0.9875Se1,335.5,0.010811,0.000003464,0.000023096,3.5448,-0.17721,288683.6027713626,0.0001539911,0.0000434414
6006,10.1002/adma.201004200,80,1(a),124,Na0.0125Pb0.9875Se1,Na0.0125Pb0.9875Se1,336,0.010803,0.0000034684,0.000023105,3.5397,-0.17611,288317.3797716526,0.0001539156,0.0000434827
6006,10.1002/adma.201004200,80,1(a),124,Na0.0125Pb0.9875Se1,Na0.0125Pb0.9875Se1,336.5,0.010795,0.0000034729,0.000023115,3.5347,-0.175,287943.7933715339,0.0001538493,0.0000435254
6006,10.1002/adma.201004200,80,1(a),124,Na0.0125Pb0.9875Se1,Na0.0125Pb0.9875Se1,337,0.010787,0.0000034774,0.000023126,3.5296,-0.17389,287571.1738655317,0.0001537965,0.0000435733
6006,10.1002/adma.201004200,80,1(a),124,Na0.0125Pb0.9875Se1,Na0.0125Pb0.9875Se1,337.5,0.010779,0.0000034819,0.000023139,3.5246,-0.17278,287199.5175048106,0.0001537704,0.0000436278
6006,10.1002/adma.201004200,80,1(a),124,Na0.0125Pb0.9875Se1,Na0.0125Pb0.9875Se1,338,0.010771,0.0000034865,0.000023154,3.5196,-0.17167,286820.593718629,0.0001537667,0.0000436887
6006,10.1002/adma.201004200,80,1(a),124,Na0.0125Pb0.9875Se1,Na0.0125Pb0.9875Se1,338.5,0.010763,0.0000034911,0.000023169,3.5146,-0.17057,286442.6684998997,0.0001537632,0.0000437498
6006,10.1002/adma.201004200,80,1(a),124,Na0.0125Pb0.9875Se1,Na0.0125Pb0.9875Se1,339,0.010755,0.0000034957,0.000023186,3.5096,-0.16946,286065.737906571,0.0001537863,0.0000438187
6006,10.1002/adma.201004200,80,1(a),124,Na0.0125Pb0.9875Se1,Na0.0125Pb0.9875Se1,339.5,0.010748,0.0000035003,0.000023205,3.5047,-0.16835,285689.7980173128,0.000153836,0.0000438942
6006,10.1002/adma.201004200,80,1(a),124,Na0.0125Pb0.9875Se1,Na0.0125Pb0.9875Se1,340,0.01074,0.0000035049,0.000023224,3.4997,-0.16724,285314.8449313818,0.0001538858,0.0000439711
6006,10.1002/adma.201004200,80,1(a),124,Na0.0125Pb0.9875Se1,Na0.0125Pb0.9875Se1,340.5,0.010732,0.0000035096,0.000023245,3.4948,-0.16614,284932.7558696148,0.0001539577,0.0000440534
6006,10.1002/adma.201004200,80,1(a),124,Na0.0125Pb0.9875Se1,Na0.0125Pb0.9875Se1,341,0.010724,0.0000035143,0.000023268,3.4899,-0.16503,284551.6888142731,0.0001540562,0.0000441435
6006,10.1002/adma.201004200,80,1(a),124,Na0.0125Pb0.9875Se1,Na0.0125Pb0.9875Se1,341.5,0.010716,0.0000035191,0.000023291,3.485,-0.16392,284163.5645477537,0.0001541504,0.0000442325
6006,10.1002/adma.201004200,80,1(a),124,Na0.0125Pb0.9875Se1,Na0.0125Pb0.9875Se1,342,0.010708,0.0000035238,0.000023316,3.4801,-0.16281,283784.5507690561,0.0001542755,0.0000443308
6006,10.1002/adma.201004200,80,1(a),124,Na0.0125Pb0.9875Se1,Na0.0125Pb0.9875Se1,342.5,0.0107,0.0000035286,0.000023342,3.4753,-0.16171,283398.5149917814,0.0001544094,0.0000444305
6006,10.1002/adma.201004200,80,1(a),124,Na0.0125Pb0.9875Se1,Na0.0125Pb0.9875Se1,343,0.010692,0.0000035334,0.00002337,3.4704,-0.1606,283013.5280466406,0.0001545698,0.0000445395
6006,10.1002/adma.201004200,80,1(a),124,Na0.0125Pb0.9875Se1,Na0.0125Pb0.9875Se1,343.5,0.010684,0.0000035382,0.000023398,3.4656,-0.15949,282629.5856650274,0.0001547302,0.0000446475
6006,10.1002/adma.201004200,80,1(a),124,Na0.0125Pb0.9875Se1,Na0.0125Pb0.9875Se1,344,0.010676,0.0000035431,0.000023428,3.4607,-0.15838,282238.7175072677,0.0001549127,0.0000447634
6006,10.1002/adma.201004200,80,1(a),124,Na0.0125Pb0.9875Se1,Na0.0125Pb0.9875Se1,344.5,0.010668,0.000003548,0.00002346,3.4559,-0.15728,281848.9289740699,0.0001551216,0.000044886
6006,10.1002/adma.201004200,80,1(a),124,Na0.0125Pb0.9875Se1,Na0.0125Pb0.9875Se1,345,0.01066,0.0000035529,0.000023492,3.4512,-0.15617,281460.2155985251,0.0001553306,0.0000450077
6006,10.1002/adma.201004200,80,1(a),124,Na0.0125Pb0.9875Se1,Na0.0125Pb0.9875Se1,345.5,0.010653,0.0000035578,0.000023526,3.4464,-0.15506,281072.5729383327,0.000155566,0.0000451387
6006,10.1002/adma.201004200,80,1(a),124,Na0.0125Pb0.9875Se1,Na0.0125Pb0.9875Se1,346,0.010645,0.0000035628,0.00002356,3.4416,-0.15395,280678.1183338947,0.000155797,0.0000452688
6006,10.1002/adma.201004200,80,1(a),124,Na0.0125Pb0.9875Se1,Na0.0125Pb0.9875Se1,346.5,0.010637,0.0000035677,0.000023596,3.4369,-0.15285,280292.6255010231,0.0001560589,0.0000454069
6006,10.1002/adma.201004200,80,1(a),124,Na0.0125Pb0.9875Se1,Na0.0125Pb0.9875Se1,347,0.010629,0.0000035727,0.000023634,3.4322,-0.15174,279900.3554734514,0.0001563428,0.0000455518
6006,10.1002/adma.201004200,80,1(a),124,Na0.0125Pb0.9875Se1,Na0.0125Pb0.9875Se1,347.5,0.010621,0.0000035777,0.000023672,3.4274,-0.15063,279509.1818766246,0.0001566268,0.0000456984
6006,10.1002/adma.201004200,80,1(a),124,Na0.0125Pb0.9875Se1,Na0.0125Pb0.9875Se1,348,0.010613,0.0000035828,0.000023712,3.4227,-0.14952,279111.3095902646,0.0001569328,0.0000458506
6006,10.1002/adma.201004200,80,1(a),124,Na0.0125Pb0.9875Se1,Na0.0125Pb0.9875Se1,348.5,0.010605,0.0000035879,0.000023752,3.4181,-0.14841,278714.5684104908,0.0001572389,0.0000460018
6006,10.1002/adma.201004200,80,1(a),124,Na0.0125Pb0.9875Se1,Na0.0125Pb0.9875Se1,349,0.010597,0.0000035929,0.000023794,3.4134,-0.14731,278326.6998803195,0.0001575759,0.0000461639
6006,10.1002/adma.201004200,80,1(a),124,Na0.0125Pb0.9875Se1,Na0.0125Pb0.9875Se1,349.5,0.010589,0.0000035981,0.000023837,3.4087,-0.1462,277924.4601317362,0.0001579174,0.0000463277
6006,10.1002/adma.201004200,80,1(a),124,Na0.0125Pb0.9875Se1,Na0.0125Pb0.9875Se1,350,0.010581,0.0000036032,0.000023881,3.4041,-0.14509,277531.0834813499,0.0001582766,0.0000464959
6006,10.1002/adma.201004200,80,1(a),124,Na0.0125Pb0.9875Se1,Na0.0125Pb0.9875Se1,350.5,0.010573,0.0000036083,0.000023927,3.3995,-0.14398,277138.8188343542,0.0001586623,0.0000466723
6006,10.1002/adma.201004200,80,1(a),124,Na0.0125Pb0.9875Se1,Na0.0125Pb0.9875Se1,351,0.010565,0.0000036135,0.000023973,3.3948,-0.14288,276740.0027674001,0.0001590438,0.0000468492
6006,10.1002/adma.201004200,80,1(a),124,Na0.0125Pb0.9875Se1,Na0.0125Pb0.9875Se1,351.5,0.010558,0.0000036187,0.000024021,3.3902,-0.14177,276342.3328819742,0.0001594519,0.0000470332
6006,10.1002/adma.201004200,80,1(a),124,Na0.0125Pb0.9875Se1,Na0.0125Pb0.9875Se1,352,0.01055,0.000003624,0.00002407,3.3857,-0.14066,275938.1898454746,0.0001598689,0.0000472189
6006,10.1002/adma.201004200,80,1(a),124,Na0.0125Pb0.9875Se1,Na0.0125Pb0.9875Se1,352.5,0.010542,0.0000036292,0.000024119,3.3811,-0.13955,275542.8193541276,0.0001602905,0.0000474078
6006,10.1002/adma.201004200,80,1(a),124,Na0.0125Pb0.9875Se1,Na0.0125Pb0.9875Se1,353,0.010534,0.0000036345,0.00002417,3.3765,-0.13845,275141.0097675059,0.0001607343,0.0000476038
6006,10.1002/adma.201004200,80,1(a),124,Na0.0125Pb0.9875Se1,Na0.0125Pb0.9875Se1,353.5,0.010526,0.0000036398,0.000024222,3.372,-0.13734,274740.3703500192,0.0001611916,0.000047803
6006,10.1002/adma.201004200,80,1(a),124,Na0.0125Pb0.9875Se1,Na0.0125Pb0.9875Se1,354,0.010518,0.0000036451,0.000024275,3.3675,-0.13623,274340.8959973663,0.0001616624,0.0000480067
6006,10.1002/adma.201004200,80,1(a),124,Na0.0125Pb0.9875Se1,Na0.0125Pb0.9875Se1,354.5,0.01051,0.0000036504,0.000024329,3.363,-0.13512,273942.5816348894,0.0001621467,0.0000482149
6006,10.1002/adma.201004200,80,1(a),124,Na0.0125Pb0.9875Se1,Na0.0125Pb0.9875Se1,355,0.010502,0.0000036558,0.000024384,3.3585,-0.13402,273537.9397122381,0.00016264,0.0000484264
6006,10.1002/adma.201004200,80,1(a),124,Na0.0125Pb0.9875Se1,Na0.0125Pb0.9875Se1,355.5,0.010494,0.0000036611,0.000024441,3.354,-0.13291,273141.9518723881,0.0001631648,0.0000486478
6006,10.1002/adma.201004200,80,1(a),124,Na0.0125Pb0.9875Se1,Na0.0125Pb0.9875Se1,356,0.010486,0.0000036665,0.000024498,3.3495,-0.1318,272739.6699849993,0.0001636853,0.0000488686
6006,10.1002/adma.201004200,80,1(a),124,Na0.0125Pb0.9875Se1,Na0.0125Pb0.9875Se1,356.5,0.010478,0.0000036719,0.000024556,3.345,-0.13069,272338.5713118549,0.0001642194,0.000049094
6006,10.1002/adma.201004200,80,1(a),124,Na0.0125Pb0.9875Se1,Na0.0125Pb0.9875Se1,357,0.010471,0.0000036774,0.000024615,3.3406,-0.12958,271931.2557785392,0.0001647627,0.0000493213
6006,10.1002/adma.201004200,80,1(a),124,Na0.0125Pb0.9875Se1,Na0.0125Pb0.9875Se1,357.5,0.010463,0.0000036828,0.000024676,3.3361,-0.12848,271532.5295970457,0.0001653375,0.0000495601
6006,10.1002/adma.201004200,80,1(a),124,Na0.0125Pb0.9875Se1,Na0.0125Pb0.9875Se1,358,0.010455,0.0000036883,0.000024737,3.3317,-0.12737,271127.619770626,0.0001659082,0.0000497969
6006,10.1002/adma.201004200,80,1(a),124,Na0.0125Pb0.9875Se1,Na0.0125Pb0.9875Se1,358.5,0.010447,0.0000036938,0.000024799,3.3273,-0.12626,270723.9157507174,0.0001664926,0.0000500384
6006,10.1002/adma.201004200,80,1(a),124,Na0.0125Pb0.9875Se1,Na0.0125Pb0.9875Se1,359,0.010439,0.0000036993,0.000024863,3.3229,-0.12515,270321.4121590571,0.0001671043,0.0000502887
6006,10.1002/adma.201004200,80,1(a),124,Na0.0125Pb0.9875Se1,Na0.0125Pb0.9875Se1,359.5,0.010431,0.0000037049,0.000024927,3.3185,-0.12405,269912.8181597344,0.0001677118,0.0000505384
6006,10.1002/adma.201004200,80,1(a),124,Na0.0125Pb0.9875Se1,Na0.0125Pb0.9875Se1,360,0.010423,0.0000037104,0.000024992,3.3142,-0.12294,269512.7210004312,0.0001683377,0.0000507928
6006,10.1002/adma.201004200,80,1(a),124,Na0.0125Pb0.9875Se1,Na0.0125Pb0.9875Se1,360.5,0.010415,0.000003716,0.000025059,3.3098,-0.12183,269106.5662002153,0.0001689864,0.0000510564
6006,10.1002/adma.201004200,80,1(a),124,Na0.0125Pb0.9875Se1,Na0.0125Pb0.9875Se1,361,0.010407,0.0000037216,0.000025126,3.3055,-0.12072,268701.6337059329,0.0001696356,0.0000513192
6006,10.1002/adma.201004200,80,1(a),124,Na0.0125Pb0.9875Se1,Na0.0125Pb0.9875Se1,361.5,0.010399,0.0000037272,0.000025194,3.3012,-0.11962,268297.9180081562,0.0001702988,0.0000515869
6006,10.1002/adma.201004200,80,1(a),124,Na0.0125Pb0.9875Se1,Na0.0125Pb0.9875Se1,362,0.010391,0.0000037329,0.000025263,3.2968,-0.11851,267888.2370275121,0.0001709714,0.0000518598
6006,10.1002/adma.201004200,80,1(a),124,Na0.0125Pb0.9875Se1,Na0.0125Pb0.9875Se1,362.5,0.010383,0.0000037385,0.000025333,3.2925,-0.1174,267486.9600106995,0.0001716627,0.0000521375
6006,10.1002/adma.201004200,80,1(a),124,Na0.0125Pb0.9875Se1,Na0.0125Pb0.9875Se1,363,0.010376,0.0000037442,0.000025404,3.2882,-0.11629,267079.750013354,0.0001723634,0.0000524188
6006,10.1002/adma.201004200,80,1(a),124,Na0.0125Pb0.9875Se1,Na0.0125Pb0.9875Se1,363.5,0.010368,0.0000037499,0.000025476,3.284,-0.11519,266673.7779674125,0.0001730784,0.0000527035
6006,10.1002/adma.201004200,80,1(a),124,Na0.0125Pb0.9875Se1,Na0.0125Pb0.9875Se1,364,0.01036,0.0000037556,0.000025549,3.2797,-0.11408,266269.0382362339,0.0001738075,0.0000529949
6006,10.1002/adma.201004200,80,1(a),124,Na0.0125Pb0.9875Se1,Na0.0125Pb0.9875Se1,364.5,0.010352,0.0000037613,0.000025623,3.2754,-0.11297,265865.5252173451,0.0001745509,0.0000532915
6006,10.1002/adma.201004200,80,1(a),124,Na0.0125Pb0.9875Se1,Na0.0125Pb0.9875Se1,365,0.010344,0.0000037671,0.000025697,3.2712,-0.11186,265456.1864564253,0.0001752902,0.0000535859
6006,10.1002/adma.201004200,80,1(a),124,Na0.0125Pb0.9875Se1,Na0.0125Pb0.9875Se1,365.5,0.010336,0.0000037729,0.000025773,3.267,-0.11076,265048.106231281,0.0001760575,0.0000538897
6006,10.1002/adma.201004200,80,1(a),124,Na0.0125Pb0.9875Se1,Na0.0125Pb0.9875Se1,366,0.010328,0.0000037787,0.000025849,3.2628,-0.10965,264641.2787466589,0.0001768256,0.0000541944
6006,10.1002/adma.201004200,80,1(a),124,Na0.0125Pb0.9875Se1,Na0.0125Pb0.9875Se1,366.5,0.01032,0.0000037845,0.000025927,3.2585,-0.10854,264235.6982428326,0.0001776217,0.0000545103
6006,10.1002/adma.201004200,80,1(a),124,Na0.0125Pb0.9875Se1,Na0.0125Pb0.9875Se1,367,0.010312,0.0000037903,0.000026005,3.2544,-0.10743,263831.3589953302,0.0001784186,0.0000548238
6006,10.1002/adma.201004200,80,1(a),124,Na0.0125Pb0.9875Se1,Na0.0125Pb0.9875Se1,367.5,0.010304,0.0000037962,0.000026084,3.2502,-0.10632,263421.316052895,0.0001792253,0.0000551429
6006,10.1002/adma.201004200,80,1(a),124,Na0.0125Pb0.9875Se1,Na0.0125Pb0.9875Se1,368,0.010296,0.000003802,0.000026164,3.246,-0.10522,263019.4634402946,0.0001800513,0.0000554687
6006,10.1002/adma.201004200,80,1(a),124,Na0.0125Pb0.9875Se1,Na0.0125Pb0.9875Se1,368.5,0.010288,0.0000038079,0.000026244,3.2418,-0.10411,262611.9383387169,0.0001808733,0.0000557941
6006,10.1002/adma.201004200,80,1(a),124,Na0.0125Pb0.9875Se1,Na0.0125Pb0.9875Se1,369,0.010281,0.0000038138,0.000026326,3.2377,-0.103,262205.6741307882,0.0001817238,0.0000561274
6006,10.1002/adma.201004200,80,1(a),124,Na0.0125Pb0.9875Se1,Na0.0125Pb0.9875Se1,369.5,0.010273,0.0000038197,0.000026408,3.2336,-0.10189,261800.664973689,0.0001825752,0.0000564619