sid,DOI,figureid,fignum,sampleid,samplename,composition,Temperature,Carrier mobility,Electrical resistivity,Seebeck coefficient,Thermal conductivity,ZT,Electrical conductivity,Power factor,Figure of merit Z
6006,10.1002/adma.201004200,80,1(a),124,Na0.0125Pb0.9875Se1,Na0.0125Pb0.9875Se1,646.5,0.0058881,0.0000093861,0.00010374,1.764,0.51173,106540.5226878043,0.0011465878,0.0006499931
6006,10.1002/adma.201004200,80,1(a),124,Na0.0125Pb0.9875Se1,Na0.0125Pb0.9875Se1,647,0.0058802,0.0000094022,0.00010389,1.7621,0.51284,106358.0864053094,0.0011479369,0.0006514596
6006,10.1002/adma.201004200,80,1(a),124,Na0.0125Pb0.9875Se1,Na0.0125Pb0.9875Se1,647.5,0.0058723,0.0000094183,0.00010405,1.7602,0.51394,106176.2738498455,0.0011495071,0.0006530548
6006,10.1002/adma.201004200,80,1(a),124,Na0.0125Pb0.9875Se1,Na0.0125Pb0.9875Se1,648,0.0058644,0.0000094345,0.0001042,1.7583,0.51505,105993.9583443744,0.0011508442,0.000654521
6006,10.1002/adma.201004200,80,1(a),124,Na0.0125Pb0.9875Se1,Na0.0125Pb0.9875Se1,648.5,0.0058565,0.0000094507,0.00010436,1.7564,0.51616,105812.2678743373,0.0011524024,0.0006561162
6006,10.1002/adma.201004200,80,1(a),124,Na0.0125Pb0.9875Se1,Na0.0125Pb0.9875Se1,649,0.0058486,0.0000094669,0.00010452,1.7545,0.51727,105631.1992310049,0.0011539607,0.0006577148
6006,10.1002/adma.201004200,80,1(a),124,Na0.0125Pb0.9875Se1,Na0.0125Pb0.9875Se1,649.5,0.0058407,0.0000094832,0.00010467,1.7526,0.51837,105449.6372532479,0.0011552861,0.0006591841
6006,10.1002/adma.201004200,80,1(a),124,Na0.0125Pb0.9875Se1,Na0.0125Pb0.9875Se1,650,0.0058327,0.0000094995,0.00010483,1.7507,0.51948,105268.6983525449,0.0011568323,0.0006607827
6006,10.1002/adma.201004200,80,1(a),124,Na0.0125Pb0.9875Se1,Na0.0125Pb0.9875Se1,650.5,0.0058248,0.0000095159,0.00010499,1.7488,0.52059,105087.2749818724,0.0011583665,0.0006623779
6006,10.1002/adma.201004200,80,1(a),124,Na0.0125Pb0.9875Se1,Na0.0125Pb0.9875Se1,651,0.0058169,0.0000095323,0.00010515,1.7469,0.5217,104906.4758767559,0.0011599008,0.0006639767
6006,10.1002/adma.201004200,80,1(a),124,Na0.0125Pb0.9875Se1,Na0.0125Pb0.9875Se1,651.5,0.005809,0.0000095487,0.0001053,1.745,0.5228,104726.2978206457,0.0011612146,0.0006654525
6006,10.1002/adma.201004200,80,1(a),124,Na0.0125Pb0.9875Se1,Na0.0125Pb0.9875Se1,652,0.0058011,0.0000095651,0.00010546,1.7431,0.52391,104546.7376190526,0.0011627491,0.0006670582
6006,10.1002/adma.201004200,80,1(a),124,Na0.0125Pb0.9875Se1,Na0.0125Pb0.9875Se1,652.5,0.0057932,0.0000095816,0.00010562,1.7412,0.52502,104366.7028471237,0.0011642716,0.0006686604
6006,10.1002/adma.201004200,80,1(a),124,Na0.0125Pb0.9875Se1,Na0.0125Pb0.9875Se1,653,0.0057853,0.0000095981,0.00010578,1.7394,0.52613,104187.2870672321,0.0011657941,0.0006702277
6006,10.1002/adma.201004200,80,1(a),124,Na0.0125Pb0.9875Se1,Na0.0125Pb0.9875Se1,653.5,0.0057773,0.0000096147,0.00010594,1.7375,0.52723,104007.4053272593,0.0011673046,0.00067183
6006,10.1002/adma.201004200,80,1(a),124,Na0.0125Pb0.9875Se1,Na0.0125Pb0.9875Se1,654,0.0057694,0.0000096312,0.0001061,1.7356,0.52834,103829.2216961542,0.0011688274,0.0006734428
6006,10.1002/adma.201004200,80,1(a),124,Na0.0125Pb0.9875Se1,Na0.0125Pb0.9875Se1,654.5,0.0057615,0.0000096479,0.00010625,1.7337,0.52945,103649.498854673,0.0011701057,0.0006749182
6006,10.1002/adma.201004200,80,1(a),124,Na0.0125Pb0.9875Se1,Na0.0125Pb0.9875Se1,655,0.0057536,0.0000096645,0.00010641,1.7318,0.53056,103471.4677427699,0.0011716165,0.0006765311
6006,10.1002/adma.201004200,80,1(a),124,Na0.0125Pb0.9875Se1,Na0.0125Pb0.9875Se1,655.5,0.0057457,0.0000096812,0.00010657,1.73,0.53167,103292.980209065,0.0011731154,0.0006781014
6006,10.1002/adma.201004200,80,1(a),124,Na0.0125Pb0.9875Se1,Na0.0125Pb0.9875Se1,656,0.0057378,0.0000096979,0.00010673,1.7281,0.53277,103115.1073943843,0.0011746144,0.0006797144
6006,10.1002/adma.201004200,80,1(a),124,Na0.0125Pb0.9875Se1,Na0.0125Pb0.9875Se1,656.5,0.0057299,0.0000097147,0.00010689,1.7262,0.53388,102936.7865193984,0.0011761014,0.0006813239
6006,10.1002/adma.201004200,80,1(a),124,Na0.0125Pb0.9875Se1,Na0.0125Pb0.9875Se1,657,0.0057219,0.0000097315,0.00010705,1.7244,0.53499,102759.0813338129,0.0011775885,0.0006828975
6006,10.1002/adma.201004200,80,1(a),124,Na0.0125Pb0.9875Se1,Na0.0125Pb0.9875Se1,657.5,0.005714,0.0000097483,0.00010721,1.7225,0.5361,102581.9886544321,0.0011790757,0.0006845142
6006,10.1002/adma.201004200,80,1(a),124,Na0.0125Pb0.9875Se1,Na0.0125Pb0.9875Se1,658,0.0057061,0.0000097651,0.00010737,1.7207,0.5372,102405.505319966,0.0011805631,0.0006860947
6006,10.1002/adma.201004200,80,1(a),124,Na0.0125Pb0.9875Se1,Na0.0125Pb0.9875Se1,658.5,0.0056982,0.000009782,0.00010753,1.7188,0.53831,102228.5831118381,0.0011820385,0.0006877115
6006,10.1002/adma.201004200,80,1(a),124,Na0.0125Pb0.9875Se1,Na0.0125Pb0.9875Se1,659,0.0056903,0.0000097989,0.00010769,1.717,0.53942,102052.271173295,0.0011835141,0.0006892918
6006,10.1002/adma.201004200,80,1(a),124,Na0.0125Pb0.9875Se1,Na0.0125Pb0.9875Se1,659.5,0.0056824,0.0000098159,0.00010785,1.7151,0.54053,101875.528479304,0.0011849777,0.0006909088
6006,10.1002/adma.201004200,80,1(a),124,Na0.0125Pb0.9875Se1,Na0.0125Pb0.9875Se1,660,0.0056744,0.0000098329,0.00010801,1.7133,0.54163,101699.3969225762,0.0011864414,0.000692489
6006,10.1002/adma.201004200,80,1(a),124,Na0.0125Pb0.9875Se1,Na0.0125Pb0.9875Se1,660.5,0.0056665,0.0000098499,0.00010817,1.7114,0.54274,101523.8733388156,0.0011879053,0.0006941132
6006,10.1002/adma.201004200,80,1(a),124,Na0.0125Pb0.9875Se1,Na0.0125Pb0.9875Se1,661,0.0056586,0.000009867,0.00010833,1.7096,0.54385,101347.927434884,0.0011893573,0.0006956933
6006,10.1002/adma.201004200,80,1(a),124,Na0.0125Pb0.9875Se1,Na0.0125Pb0.9875Se1,661.5,0.0056507,0.0000098841,0.0001085,1.7077,0.54496,101172.59032183,0.001191029,0.0006974463
6006,10.1002/adma.201004200,80,1(a),124,Na0.0125Pb0.9875Se1,Na0.0125Pb0.9875Se1,662,0.0056428,0.0000099012,0.00010866,1.7059,0.54606,100997.8588453925,0.0011924813,0.0006990335
6006,10.1002/adma.201004200,80,1(a),124,Na0.0125Pb0.9875Se1,Na0.0125Pb0.9875Se1,662.5,0.0056349,0.0000099184,0.00010882,1.7041,0.54717,100822.7133408614,0.0011939216,0.0007006171
6006,10.1002/adma.201004200,80,1(a),124,Na0.0125Pb0.9875Se1,Na0.0125Pb0.9875Se1,663,0.005627,0.0000099356,0.00010898,1.7022,0.54828,100648.1742421192,0.0011953622,0.0007022454
6006,10.1002/adma.201004200,80,1(a),124,Na0.0125Pb0.9875Se1,Na0.0125Pb0.9875Se1,663.5,0.005619,0.0000099529,0.00010914,1.7004,0.54939,100473.2289081574,0.0011967908,0.000703829
6006,10.1002/adma.201004200,80,1(a),124,Na0.0125Pb0.9875Se1,Na0.0125Pb0.9875Se1,664,0.0056111,0.0000099701,0.00010931,1.6986,0.55049,100299.8966911064,0.001198451,0.0007055522
6006,10.1002/adma.201004200,80,1(a),124,Na0.0125Pb0.9875Se1,Na0.0125Pb0.9875Se1,664.5,0.0056032,0.0000099874,0.00010947,1.6968,0.5516,100126.15896029,0.0011998799,0.0007071428
6006,10.1002/adma.201004200,80,1(a),124,Na0.0125Pb0.9875Se1,Na0.0125Pb0.9875Se1,665,0.0055953,0.000010005,0.00010963,1.6949,0.55271,99950.0249875062,0.0012012731,0.0007087575
6006,10.1002/adma.201004200,80,1(a),124,Na0.0125Pb0.9875Se1,Na0.0125Pb0.9875Se1,665.5,0.0055874,0.000010022,0.00010979,1.6931,0.55382,99780.4829375374,0.0012027384,0.0007103765
6006,10.1002/adma.201004200,80,1(a),124,Na0.0125Pb0.9875Se1,Na0.0125Pb0.9875Se1,666,0.0055795,0.00001004,0.00010996,1.6913,0.55493,99601.593625498,0.0012043029,0.0007120576
6006,10.1002/adma.201004200,80,1(a),124,Na0.0125Pb0.9875Se1,Na0.0125Pb0.9875Se1,666.5,0.0055716,0.000010057,0.00011012,1.6895,0.55603,99433.2305856617,0.0012057686,0.0007136837
6006,10.1002/adma.201004200,80,1(a),124,Na0.0125Pb0.9875Se1,Na0.0125Pb0.9875Se1,667,0.0055636,0.000010075,0.00011028,1.6877,0.55714,99255.5831265509,0.0012071145,0.0007152423
6006,10.1002/adma.201004200,80,1(a),124,Na0.0125Pb0.9875Se1,Na0.0125Pb0.9875Se1,667.5,0.0055557,0.000010092,0.00011045,1.6859,0.55825,99088.3868410622,0.0012087993,0.0007170053
6006,10.1002/adma.201004200,80,1(a),124,Na0.0125Pb0.9875Se1,Na0.0125Pb0.9875Se1,668,0.0055478,0.00001011,0.00011061,1.6841,0.55936,98911.9683481701,0.0012101456,0.0007185711
6006,10.1002/adma.201004200,80,1(a),124,Na0.0125Pb0.9875Se1,Na0.0125Pb0.9875Se1,668.5,0.0055399,0.000010127,0.00011078,1.6823,0.56046,98745.9267305224,0.0012118306,0.0007203416
6006,10.1002/adma.201004200,80,1(a),124,Na0.0125Pb0.9875Se1,Na0.0125Pb0.9875Se1,669,0.005532,0.000010145,0.00011094,1.6805,0.56157,98570.724494825,0.0012131773,0.0007219145
6006,10.1002/adma.201004200,80,1(a),124,Na0.0125Pb0.9875Se1,Na0.0125Pb0.9875Se1,669.5,0.0055241,0.000010163,0.00011111,1.6787,0.56268,98396.1428711994,0.0012147429,0.0007236212
6006,10.1002/adma.201004200,80,1(a),124,Na0.0125Pb0.9875Se1,Na0.0125Pb0.9875Se1,670,0.0055162,0.00001018,0.00011127,1.6769,0.56379,98231.8271119843,0.0012162095,0.0007252725
6006,10.1002/adma.201004200,80,1(a),124,Na0.0125Pb0.9875Se1,Na0.0125Pb0.9875Se1,670.5,0.0055082,0.000010198,0.00011144,1.6751,0.56489,98058.4428319278,0.0012177754,0.0007269867
6006,10.1002/adma.201004200,80,1(a),124,Na0.0125Pb0.9875Se1,Na0.0125Pb0.9875Se1,671,0.0055003,0.000010216,0.0001116,1.6733,0.566,97885.6695379796,0.0012191229,0.000728574
6006,10.1002/adma.201004200,80,1(a),124,Na0.0125Pb0.9875Se1,Na0.0125Pb0.9875Se1,671.5,0.0054924,0.000010234,0.00011177,1.6715,0.56711,97713.5040062537,0.0012206892,0.0007302956
6006,10.1002/adma.201004200,80,1(a),124,Na0.0125Pb0.9875Se1,Na0.0125Pb0.9875Se1,672,0.0054845,0.000010251,0.00011193,1.6697,0.56822,97551.458394303,0.0012221564,0.0007319616
6006,10.1002/adma.201004200,80,1(a),124,Na0.0125Pb0.9875Se1,Na0.0125Pb0.9875Se1,672.5,0.0054766,0.000010269,0.0001121,1.668,0.56932,97380.465478625,0.0012237229,0.0007336468
6006,10.1002/adma.201004200,80,1(a),124,Na0.0125Pb0.9875Se1,Na0.0125Pb0.9875Se1,673,0.0054687,0.000010287,0.00011226,1.6662,0.57043,97210.0709633518,0.0012250712,0.0007352486
6006,10.1002/adma.201004200,80,1(a),124,Na0.0125Pb0.9875Se1,Na0.0125Pb0.9875Se1,673.5,0.0054608,0.000010305,0.00011243,1.6644,0.57154,97040.2717127608,0.001226638,0.0007369851
6006,10.1002/adma.201004200,80,1(a),124,Na0.0125Pb0.9875Se1,Na0.0125Pb0.9875Se1,674,0.0054528,0.000010323,0.0001126,1.6626,0.57265,96871.0646130001,0.001228205,0.0007387255
6006,10.1002/adma.201004200,80,1(a),124,Na0.0125Pb0.9875Se1,Na0.0125Pb0.9875Se1,674.5,0.0054449,0.000010341,0.00011276,1.6609,0.57375,96702.4465718983,0.001229554,0.0007402938
6006,10.1002/adma.201004200,80,1(a),124,Na0.0125Pb0.9875Se1,Na0.0125Pb0.9875Se1,675,0.005437,0.000010359,0.00011293,1.6591,0.57486,96534.4145187759,0.0012311212,0.0007420416
6006,10.1002/adma.201004200,80,1(a),124,Na0.0125Pb0.9875Se1,Na0.0125Pb0.9875Se1,675.5,0.0054291,0.000010377,0.0001131,1.6573,0.57597,96366.9654042594,0.0012326886,0.0007437933
6006,10.1002/adma.201004200,80,1(a),124,Na0.0125Pb0.9875Se1,Na0.0125Pb0.9875Se1,676,0.0054212,0.000010395,0.00011326,1.6556,0.57708,96200.0962000962,0.0012340382,0.0007453722
6006,10.1002/adma.201004200,80,1(a),124,Na0.0125Pb0.9875Se1,Na0.0125Pb0.9875Se1,676.5,0.0054133,0.000010414,0.00011343,1.6538,0.57819,96024.582293067,0.0012354873,0.0007470597
6006,10.1002/adma.201004200,80,1(a),124,Na0.0125Pb0.9875Se1,Na0.0125Pb0.9875Se1,677,0.0054054,0.000010432,0.0001136,1.652,0.57929,95858.8957055215,0.0012370552,0.0007488228
6006,10.1002/adma.201004200,80,1(a),124,Na0.0125Pb0.9875Se1,Na0.0125Pb0.9875Se1,677.5,0.0053974,0.00001045,0.00011377,1.6503,0.5804,95693.7799043062,0.0012386232,0.0007505443
6006,10.1002/adma.201004200,80,1(a),124,Na0.0125Pb0.9875Se1,Na0.0125Pb0.9875Se1,678,0.0053895,0.000010468,0.00011393,1.6485,0.58151,95529.2319449752,0.0012399737,0.000752183
6006,10.1002/adma.201004200,80,1(a),124,Na0.0125Pb0.9875Se1,Na0.0125Pb0.9875Se1,678.5,0.0053816,0.000010487,0.0001141,1.6468,0.58262,95356.1552398207,0.0012414237,0.00075384
6006,10.1002/adma.201004200,80,1(a),124,Na0.0125Pb0.9875Se1,Na0.0125Pb0.9875Se1,679,0.0053737,0.000010505,0.00011427,1.6451,0.58372,95192.7653498334,0.0012429922,0.0007555724
6006,10.1002/adma.201004200,80,1(a),124,Na0.0125Pb0.9875Se1,Na0.0125Pb0.9875Se1,679.5,0.0053658,0.000010523,0.00011444,1.6433,0.58483,95029.9344293452,0.0012445608,0.0007573546
6006,10.1002/adma.201004200,80,1(a),124,Na0.0125Pb0.9875Se1,Na0.0125Pb0.9875Se1,680,0.0053579,0.000010542,0.00011461,1.6416,0.58594,94858.6605957124,0.0012460114,0.0007590225
6006,10.1002/adma.201004200,80,1(a),124,Na0.0125Pb0.9875Se1,Na0.0125Pb0.9875Se1,680.5,0.00535,0.00001056,0.00011478,1.6398,0.58705,94696.9696969697,0.0012475803,0.0007608125
6006,10.1002/adma.201004200,80,1(a),124,Na0.0125Pb0.9875Se1,Na0.0125Pb0.9875Se1,681,0.005342,0.000010579,0.00011495,1.6381,0.58815,94526.8929010303,0.0012490313,0.0007624878
6006,10.1002/adma.201004200,80,1(a),124,Na0.0125Pb0.9875Se1,Na0.0125Pb0.9875Se1,681.5,0.0053341,0.000010597,0.00011512,1.6364,0.58926,94366.3300934227,0.0012506006,0.0007642389
6006,10.1002/adma.201004200,80,1(a),124,Na0.0125Pb0.9875Se1,Na0.0125Pb0.9875Se1,682,0.0053262,0.000010616,0.00011529,1.6346,0.59037,94197.437829691,0.001252052,0.0007659684
6006,10.1002/adma.201004200,80,1(a),124,Na0.0125Pb0.9875Se1,Na0.0125Pb0.9875Se1,682.5,0.0053183,0.000010635,0.00011546,1.6329,0.59148,94029.1490362012,0.0012535037,0.0007676549
6006,10.1002/adma.201004200,80,1(a),124,Na0.0125Pb0.9875Se1,Na0.0125Pb0.9875Se1,683,0.0053104,0.000010653,0.00011563,1.6312,0.59258,93870.271285084,0.0012550734,0.0007694172
6006,10.1002/adma.201004200,80,1(a),124,Na0.0125Pb0.9875Se1,Na0.0125Pb0.9875Se1,683.5,0.0053025,0.000010672,0.0001158,1.6295,0.59369,93703.1484257871,0.0012565255,0.0007711111
6006,10.1002/adma.201004200,80,1(a),124,Na0.0125Pb0.9875Se1,Na0.0125Pb0.9875Se1,684,0.0052946,0.000010691,0.00011597,1.6278,0.5948,93536.6195865681,0.0012579778,0.0007728086
6006,10.1002/adma.201004200,80,1(a),124,Na0.0125Pb0.9875Se1,Na0.0125Pb0.9875Se1,684.5,0.0052866,0.000010709,0.00011614,1.626,0.59591,93379.4005042488,0.001259548,0.0007746298
6006,10.1002/adma.201004200,80,1(a),124,Na0.0125Pb0.9875Se1,Na0.0125Pb0.9875Se1,685,0.0052787,0.000010728,0.00011631,1.6243,0.59701,93214.019388516,0.0012610008,0.0007763349
6006,10.1002/adma.201004200,80,1(a),124,Na0.0125Pb0.9875Se1,Na0.0125Pb0.9875Se1,685.5,0.0052708,0.000010747,0.00011648,1.6226,0.59812,93049.2230389876,0.0012624537,0.0007780437
6006,10.1002/adma.201004200,80,1(a),124,Na0.0125Pb0.9875Se1,Na0.0125Pb0.9875Se1,686,0.0052629,0.000010766,0.00011665,1.6209,0.59923,92885.0083596507,0.001263907,0.0007797563
6006,10.1002/adma.201004200,80,1(a),124,Na0.0125Pb0.9875Se1,Na0.0125Pb0.9875Se1,686.5,0.005255,0.000010785,0.00011682,1.6192,0.60034,92721.3722763097,0.0012653604,0.0007814726
6006,10.1002/adma.201004200,80,1(a),124,Na0.0125Pb0.9875Se1,Na0.0125Pb0.9875Se1,687,0.0052471,0.000010804,0.00011699,1.6175,0.60145,92558.3117363939,0.0012668142,0.0007831927
6006,10.1002/adma.201004200,80,1(a),124,Na0.0125Pb0.9875Se1,Na0.0125Pb0.9875Se1,687.5,0.0052392,0.000010823,0.00011717,1.6158,0.60255,92395.8237087684,0.0012684846,0.0007850505
6006,10.1002/adma.201004200,80,1(a),124,Na0.0125Pb0.9875Se1,Na0.0125Pb0.9875Se1,688,0.0052312,0.000010842,0.00011734,1.6141,0.60366,92233.9051835455,0.0012699387,0.0007867782
6006,10.1002/adma.201004200,80,1(a),124,Na0.0125Pb0.9875Se1,Na0.0125Pb0.9875Se1,688.5,0.0052233,0.000010861,0.00011751,1.6124,0.60477,92072.5531718995,0.0012713931,0.0007885097
6006,10.1002/adma.201004200,80,1(a),124,Na0.0125Pb0.9875Se1,Na0.0125Pb0.9875Se1,689,0.0052154,0.00001088,0.00011768,1.6107,0.60588,91911.7647058824,0.0012728476,0.000790245
6006,10.1002/adma.201004200,80,1(a),124,Na0.0125Pb0.9875Se1,Na0.0125Pb0.9875Se1,689.5,0.0052075,0.000010899,0.00011786,1.609,0.60698,91751.536838242,0.0012745187,0.0007921185
6006,10.1002/adma.201004200,80,1(a),124,Na0.0125Pb0.9875Se1,Na0.0125Pb0.9875Se1,690,0.0051996,0.000010918,0.00011803,1.6074,0.60809,91591.8666422422,0.0012759737,0.0007938122
6006,10.1002/adma.201004200,80,1(a),124,Na0.0125Pb0.9875Se1,Na0.0125Pb0.9875Se1,690.5,0.0051917,0.000010937,0.0001182,1.6057,0.6092,91432.7512114839,0.0012774289,0.0007955589
6006,10.1002/adma.201004200,80,1(a),124,Na0.0125Pb0.9875Se1,Na0.0125Pb0.9875Se1,691,0.0051838,0.000010957,0.00011838,1.604,0.61031,91265.8574427307,0.0012789837,0.0007973714
6006,10.1002/adma.201004200,80,1(a),124,Na0.0125Pb0.9875Se1,Na0.0125Pb0.9875Se1,691.5,0.0051758,0.000010976,0.00011855,1.6023,0.61141,91107.8717201166,0.0012804394,0.0007991259
6006,10.1002/adma.201004200,80,1(a),124,Na0.0125Pb0.9875Se1,Na0.0125Pb0.9875Se1,692,0.0051679,0.000010995,0.00011872,1.6007,0.61252,90950.4320145521,0.0012818953,0.0008008342
6006,10.1002/adma.201004200,80,1(a),124,Na0.0125Pb0.9875Se1,Na0.0125Pb0.9875Se1,692.5,0.00516,0.000011015,0.0001189,1.599,0.61363,90785.2927825692,0.0012834507,0.0008026584
6006,10.1002/adma.201004200,80,1(a),124,Na0.0125Pb0.9875Se1,Na0.0125Pb0.9875Se1,693,0.0051521,0.000011034,0.00011907,1.5973,0.61474,90628.9650172195,0.0012849071,0.0008044244
6006,10.1002/adma.201004200,80,1(a),124,Na0.0125Pb0.9875Se1,Na0.0125Pb0.9875Se1,693.5,0.0051442,0.000011053,0.00011925,1.5957,0.61584,90473.1747037004,0.0012865794,0.000806279
6006,10.1002/adma.201004200,80,1(a),124,Na0.0125Pb0.9875Se1,Na0.0125Pb0.9875Se1,694,0.0051363,0.000011073,0.00011942,1.594,0.61695,90309.7624853247,0.0012879198,0.0008079798
6006,10.1002/adma.201004200,80,1(a),124,Na0.0125Pb0.9875Se1,Na0.0125Pb0.9875Se1,694.5,0.0051284,0.000011092,0.0001196,1.5923,0.61806,90155.0667147494,0.0012895925,0.0008098929
6006,10.1002/adma.201004200,80,1(a),124,Na0.0125Pb0.9875Se1,Na0.0125Pb0.9875Se1,695,0.0051204,0.000011112,0.00011977,1.5907,0.61917,89992.8005759539,0.0012909335,0.0008115506
6006,10.1002/adma.201004200,80,1(a),124,Na0.0125Pb0.9875Se1,Na0.0125Pb0.9875Se1,695.5,0.0051125,0.000011132,0.00011995,1.589,0.62027,89831.1174991017,0.0012924903,0.0008133986
6006,10.1002/adma.201004200,80,1(a),124,Na0.0125Pb0.9875Se1,Na0.0125Pb0.9875Se1,696,0.0051046,0.000011151,0.00012012,1.5874,0.62138,89678.0557797507,0.001293948,0.0008151367
6006,10.1002/adma.201004200,80,1(a),124,Na0.0125Pb0.9875Se1,Na0.0125Pb0.9875Se1,696.5,0.0050967,0.000011171,0.0001203,1.5857,0.62249,89517.5006713812,0.0012955053,0.0008169927
6006,10.1002/adma.201004200,80,1(a),124,Na0.0125Pb0.9875Se1,Na0.0125Pb0.9875Se1,697,0.0050888,0.00001119,0.00012048,1.5841,0.6236,89365.5049151028,0.0012971788,0.0008188743
6006,10.1002/adma.201004200,80,1(a),124,Na0.0125Pb0.9875Se1,Na0.0125Pb0.9875Se1,697.5,0.0050809,0.00001121,0.00012065,1.5824,0.62471,89206.0660124889,0.0012985212,0.0008206024
6006,10.1002/adma.201004200,80,1(a),124,Na0.0125Pb0.9875Se1,Na0.0125Pb0.9875Se1,698,0.005073,0.00001123,0.00012083,1.5808,0.62581,89047.1950133571,0.0013000792,0.0008224185
6006,10.1002/adma.201004200,80,1(a),124,Na0.0125Pb0.9875Se1,Na0.0125Pb0.9875Se1,698.5,0.005065,0.00001125,0.000121,1.5792,0.62692,88888.8888888889,0.0013014222,0.0008241022
6006,10.1002/adma.201004200,80,1(a),124,Na0.0125Pb0.9875Se1,Na0.0125Pb0.9875Se1,699,0.0050571,0.00001127,0.00012118,1.5775,0.62803,88731.1446317657,0.0013029807,0.0008259783
6006,10.1002/adma.201004200,80,1(a),124,Na0.0125Pb0.9875Se1,Na0.0125Pb0.9875Se1,699.5,0.0050492,0.00001129,0.00012136,1.5759,0.62914,88573.9592559787,0.0013045394,0.0008278059
6006,10.1002/adma.201004200,80,1(a),124,Na0.0125Pb0.9875Se1,Na0.0125Pb0.9875Se1,700,0.0050413,0.000011309,0.00012154,1.5743,0.63024,88425.1481121231,0.0013062138,0.0008297108
6006,10.1002/adma.201004200,80,1(a),124,Na0.0125Pb0.9875Se1,Na0.0125Pb0.9875Se1,700.5,0.0050334,0.000011329,0.00012171,1.5727,0.63135,88269.044046253,0.001307558,0.0008314097
6006,10.1002/adma.201004200,80,1(a),124,Na0.0125Pb0.9875Se1,Na0.0125Pb0.9875Se1,701,0.0050255,0.000011349,0.00012189,1.571,0.63246,88113.4901753459,0.0013091173,0.0008333019
6006,10.1002/adma.201004200,80,1(a),124,Na0.0125Pb0.9875Se1,Na0.0125Pb0.9875Se1,701.5,0.0050176,0.000011369,0.00012207,1.5694,0.63357,87958.4835957428,0.0013106768,0.0008351452
6006,10.1002/adma.201004200,80,1(a),124,Na0.0125Pb0.9875Se1,Na0.0125Pb0.9875Se1,702,0.0050096,0.000011389,0.00012225,1.5678,0.63467,87804.0214241812,0.0013122366,0.0008369923