sid,DOI,figureid,fignum,sampleid,samplename,composition,Temperature,Carrier mobility,Electrical resistivity,Seebeck coefficient,Thermal conductivity,ZT,Electrical conductivity,Power factor,Figure of merit Z
6006,10.1002/adma.201004200,80,1(a),73,Na0.005Pb0.995Se1,Na0.005Pb0.995Se1,603.5,0.011465,0.000012136,0.00012506,1.507,0.54137,82399.4726433751,0.001288728,0.0008551613
6006,10.1002/adma.201004200,80,1(a),73,Na0.005Pb0.995Se1,Na0.005Pb0.995Se1,604,0.011446,0.000012162,0.00012524,1.5054,0.54238,82223.318533136,0.0012896775,0.0008567009
6006,10.1002/adma.201004200,80,1(a),73,Na0.005Pb0.995Se1,Na0.005Pb0.995Se1,604.5,0.011427,0.000012187,0.00012542,1.5038,0.5434,82054.6483958316,0.0012907341,0.000858315
6006,10.1002/adma.201004200,80,1(a),73,Na0.005Pb0.995Se1,Na0.005Pb0.995Se1,605,0.011408,0.000012213,0.0001256,1.5022,0.54442,81879.9639728159,0.0012916859,0.0008598628
6006,10.1002/adma.201004200,80,1(a),73,Na0.005Pb0.995Se1,Na0.005Pb0.995Se1,605.5,0.011389,0.000012239,0.00012578,1.5006,0.54544,81706.0217338018,0.001292639,0.0008614147
6006,10.1002/adma.201004200,80,1(a),73,Na0.005Pb0.995Se1,Na0.005Pb0.995Se1,606,0.01137,0.000012265,0.00012597,1.499,0.54646,81532.8169588259,0.0012937987,0.0008631079
6006,10.1002/adma.201004200,80,1(a),73,Na0.005Pb0.995Se1,Na0.005Pb0.995Se1,606.5,0.011351,0.000012291,0.00012615,1.4973,0.54748,81360.3449678627,0.0012947541,0.0008647259
6006,10.1002/adma.201004200,80,1(a),73,Na0.005Pb0.995Se1,Na0.005Pb0.995Se1,607,0.011332,0.000012317,0.00012633,1.4957,0.5485,81188.6011204027,0.0012957107,0.0008662905
6006,10.1002/adma.201004200,80,1(a),73,Na0.005Pb0.995Se1,Na0.005Pb0.995Se1,607.5,0.011313,0.000012343,0.00012651,1.4941,0.54952,81017.5808150369,0.0012966686,0.0008678593
6006,10.1002/adma.201004200,80,1(a),73,Na0.005Pb0.995Se1,Na0.005Pb0.995Se1,608,0.011294,0.000012369,0.0001267,1.4925,0.55054,80847.2794890452,0.0012978325,0.0008695695
6006,10.1002/adma.201004200,80,1(a),73,Na0.005Pb0.995Se1,Na0.005Pb0.995Se1,608.5,0.011275,0.000012396,0.00012688,1.4909,0.55156,80671.1842529848,0.0012986878,0.0008710764
6006,10.1002/adma.201004200,80,1(a),73,Na0.005Pb0.995Se1,Na0.005Pb0.995Se1,609,0.011256,0.000012422,0.00012706,1.4893,0.55258,80502.3345677025,0.0012996493,0.0008726578
6006,10.1002/adma.201004200,80,1(a),73,Na0.005Pb0.995Se1,Na0.005Pb0.995Se1,609.5,0.011237,0.000012449,0.00012725,1.4877,0.5536,80327.737167644,0.0013007119,0.0008743106
6006,10.1002/adma.201004200,80,1(a),73,Na0.005Pb0.995Se1,Na0.005Pb0.995Se1,610,0.011218,0.000012475,0.00012743,1.4861,0.55462,80160.3206412826,0.0013016757,0.0008759005
6006,10.1002/adma.201004200,80,1(a),73,Na0.005Pb0.995Se1,Na0.005Pb0.995Se1,610.5,0.011199,0.000012502,0.00012762,1.4845,0.55563,79987.2020476724,0.0013027407,0.0008775619
6006,10.1002/adma.201004200,80,1(a),73,Na0.005Pb0.995Se1,Na0.005Pb0.995Se1,611,0.011181,0.000012528,0.0001278,1.4829,0.55665,79821.2005108557,0.0013037069,0.0008791604
6006,10.1002/adma.201004200,80,1(a),73,Na0.005Pb0.995Se1,Na0.005Pb0.995Se1,611.5,0.011162,0.000012555,0.00012799,1.4813,0.55767,79649.5420151334,0.0013047742,0.0008808305
6006,10.1002/adma.201004200,80,1(a),73,Na0.005Pb0.995Se1,Na0.005Pb0.995Se1,612,0.011143,0.000012582,0.00012817,1.4797,0.55869,79478.6202511524,0.0013056389,0.0008823673
6006,10.1002/adma.201004200,80,1(a),73,Na0.005Pb0.995Se1,Na0.005Pb0.995Se1,612.5,0.011124,0.000012609,0.00012836,1.4782,0.55971,79308.4304861607,0.0013067087,0.0008839864
6006,10.1002/adma.201004200,80,1(a),73,Na0.005Pb0.995Se1,Na0.005Pb0.995Se1,613,0.011105,0.000012636,0.00012854,1.4766,0.56073,79138.9680278569,0.0013075761,0.0008855317
6006,10.1002/adma.201004200,80,1(a),73,Na0.005Pb0.995Se1,Na0.005Pb0.995Se1,613.5,0.011086,0.000012663,0.00012873,1.475,0.56175,78970.2282239596,0.0013086483,0.0008872192
6006,10.1002/adma.201004200,80,1(a),73,Na0.005Pb0.995Se1,Na0.005Pb0.995Se1,614,0.011067,0.00001269,0.00012891,1.4734,0.56277,78802.2064617809,0.0013095184,0.0008887732
6006,10.1002/adma.201004200,80,1(a),73,Na0.005Pb0.995Se1,Na0.005Pb0.995Se1,614.5,0.011048,0.000012717,0.0001291,1.4718,0.56379,78634.8981678069,0.0013105929,0.0008904694
6006,10.1002/adma.201004200,80,1(a),73,Na0.005Pb0.995Se1,Na0.005Pb0.995Se1,615,0.011029,0.000012744,0.00012928,1.4703,0.56481,78468.2988072819,0.0013114657,0.0008919715
6006,10.1002/adma.201004200,80,1(a),73,Na0.005Pb0.995Se1,Na0.005Pb0.995Se1,615.5,0.01101,0.000012771,0.00012947,1.4687,0.56583,78302.4038837992,0.0013125425,0.0008936764
6006,10.1002/adma.201004200,80,1(a),73,Na0.005Pb0.995Se1,Na0.005Pb0.995Se1,616,0.010991,0.000012799,0.00012966,1.4671,0.56685,78131.1039924994,0.0013135179,0.0008953159
6006,10.1002/adma.201004200,80,1(a),73,Na0.005Pb0.995Se1,Na0.005Pb0.995Se1,616.5,0.010972,0.000012826,0.00012984,1.4656,0.56787,77966.6302822392,0.0013143946,0.0008968304
6006,10.1002/adma.201004200,80,1(a),73,Na0.005Pb0.995Se1,Na0.005Pb0.995Se1,617,0.010953,0.000012854,0.00013003,1.464,0.56888,77796.7947720554,0.0013153727,0.0008984786
6006,10.1002/adma.201004200,80,1(a),73,Na0.005Pb0.995Se1,Na0.005Pb0.995Se1,617.5,0.010934,0.000012881,0.00013022,1.4624,0.5699,77633.7240897446,0.0013164543,0.0009002013
6006,10.1002/adma.201004200,80,1(a),73,Na0.005Pb0.995Se1,Na0.005Pb0.995Se1,618,0.010915,0.000012909,0.0001304,1.4609,0.57092,77465.3342629173,0.0013172329,0.0009016585
6006,10.1002/adma.201004200,80,1(a),73,Na0.005Pb0.995Se1,Na0.005Pb0.995Se1,618.5,0.010896,0.000012937,0.00013059,1.4593,0.57194,77297.6733400325,0.001318215,0.0009033201
6006,10.1002/adma.201004200,80,1(a),73,Na0.005Pb0.995Se1,Na0.005Pb0.995Se1,619,0.010877,0.000012964,0.00013078,1.4577,0.57296,77136.6862079605,0.0013193002,0.0009050561
6006,10.1002/adma.201004200,80,1(a),73,Na0.005Pb0.995Se1,Na0.005Pb0.995Se1,619.5,0.010858,0.000012992,0.00013097,1.4562,0.57398,76970.4433497537,0.0013202849,0.0009066645
6006,10.1002/adma.201004200,80,1(a),73,Na0.005Pb0.995Se1,Na0.005Pb0.995Se1,620,0.01084,0.00001302,0.00013116,1.4546,0.575,76804.9155145929,0.0013212708,0.0009083396
6006,10.1002/adma.201004200,80,1(a),73,Na0.005Pb0.995Se1,Na0.005Pb0.995Se1,620.5,0.010821,0.000013048,0.00013134,1.4531,0.57602,76640.0980993256,0.0013220567,0.0009098181
6006,10.1002/adma.201004200,80,1(a),73,Na0.005Pb0.995Se1,Na0.005Pb0.995Se1,621,0.010802,0.000013076,0.00013153,1.4515,0.57704,76475.9865402264,0.0013230453,0.0009115021
6006,10.1002/adma.201004200,80,1(a),73,Na0.005Pb0.995Se1,Na0.005Pb0.995Se1,621.5,0.010783,0.000013104,0.00013172,1.45,0.57806,76312.5763125763,0.0013240353,0.0009131278
6006,10.1002/adma.201004200,80,1(a),73,Na0.005Pb0.995Se1,Na0.005Pb0.995Se1,622,0.010764,0.000013133,0.00013191,1.4485,0.57908,76144.0645701668,0.0013249256,0.000914688
6006,10.1002/adma.201004200,80,1(a),73,Na0.005Pb0.995Se1,Na0.005Pb0.995Se1,622.5,0.010745,0.000013161,0.0001321,1.4469,0.5801,75982.0682318973,0.0013259182,0.0009163855
6006,10.1002/adma.201004200,80,1(a),73,Na0.005Pb0.995Se1,Na0.005Pb0.995Se1,623,0.010726,0.00001319,0.00013229,1.4454,0.58112,75815.0113722517,0.0013268115,0.0009179546
6006,10.1002/adma.201004200,80,1(a),73,Na0.005Pb0.995Se1,Na0.005Pb0.995Se1,623.5,0.010707,0.000013218,0.00013248,1.4438,0.58213,75654.410652141,0.0013278068,0.0009196612
6006,10.1002/adma.201004200,80,1(a),73,Na0.005Pb0.995Se1,Na0.005Pb0.995Se1,624,0.010688,0.000013247,0.00013267,1.4423,0.58315,75488.7899146977,0.001328703,0.000921239
6006,10.1002/adma.201004200,80,1(a),73,Na0.005Pb0.995Se1,Na0.005Pb0.995Se1,624.5,0.010669,0.000013275,0.00013286,1.4408,0.58417,75329.5668549906,0.0013297009,0.0009228907
6006,10.1002/adma.201004200,80,1(a),73,Na0.005Pb0.995Se1,Na0.005Pb0.995Se1,625,0.01065,0.000013304,0.00013305,1.4392,0.58519,75165.3638003608,0.0013306,0.0009245414
6006,10.1002/adma.201004200,80,1(a),73,Na0.005Pb0.995Se1,Na0.005Pb0.995Se1,625.5,0.010631,0.000013333,0.00013324,1.4377,0.58621,75001.8750468762,0.0013315006,0.0009261324
6006,10.1002/adma.201004200,80,1(a),73,Na0.005Pb0.995Se1,Na0.005Pb0.995Se1,626,0.010612,0.000013362,0.00013343,1.4362,0.58723,74839.095943721,0.0013324027,0.0009277278
6006,10.1002/adma.201004200,80,1(a),73,Na0.005Pb0.995Se1,Na0.005Pb0.995Se1,626.5,0.010593,0.000013391,0.00013362,1.4347,0.58825,74677.0218803674,0.0013333063,0.0009293276
6006,10.1002/adma.201004200,80,1(a),73,Na0.005Pb0.995Se1,Na0.005Pb0.995Se1,627,0.010574,0.00001342,0.00013381,1.4331,0.58927,74515.6482861401,0.0013342113,0.0009309967
6006,10.1002/adma.201004200,80,1(a),73,Na0.005Pb0.995Se1,Na0.005Pb0.995Se1,627.5,0.010555,0.000013449,0.000134,1.4316,0.59029,74354.9706297866,0.0013351179,0.0009326054
6006,10.1002/adma.201004200,80,1(a),73,Na0.005Pb0.995Se1,Na0.005Pb0.995Se1,628,0.010536,0.000013478,0.00013419,1.4301,0.59131,74194.9844190533,0.0013360258,0.0009342185
6006,10.1002/adma.201004200,80,1(a),73,Na0.005Pb0.995Se1,Na0.005Pb0.995Se1,628.5,0.010517,0.000013507,0.00013439,1.4286,0.59233,74035.6852002665,0.0013371342,0.0009359752
6006,10.1002/adma.201004200,80,1(a),73,Na0.005Pb0.995Se1,Na0.005Pb0.995Se1,629,0.010498,0.000013537,0.00013458,1.4271,0.59335,73871.611139839,0.0013379461,0.0009375279
6006,10.1002/adma.201004200,80,1(a),73,Na0.005Pb0.995Se1,Na0.005Pb0.995Se1,629.5,0.01048,0.000013566,0.00013477,1.4256,0.59437,73713.6960047177,0.0013388584,0.0009391543
6006,10.1002/adma.201004200,80,1(a),73,Na0.005Pb0.995Se1,Na0.005Pb0.995Se1,630,0.010461,0.000013595,0.00013496,1.4241,0.59538,73556.4545788893,0.0013397721,0.0009407851
6006,10.1002/adma.201004200,80,1(a),73,Na0.005Pb0.995Se1,Na0.005Pb0.995Se1,630.5,0.010442,0.000013625,0.00013515,1.4226,0.5964,73394.495412844,0.0013405888,0.0009423512
6006,10.1002/adma.201004200,80,1(a),73,Na0.005Pb0.995Se1,Na0.005Pb0.995Se1,631,0.010423,0.000013655,0.00013535,1.4211,0.59742,73233.2478945441,0.0013416055,0.0009440613
6006,10.1002/adma.201004200,80,1(a),73,Na0.005Pb0.995Se1,Na0.005Pb0.995Se1,631.5,0.010404,0.000013684,0.00013554,1.4196,0.59844,73078.0473545747,0.0013425235,0.0009457055
6006,10.1002/adma.201004200,80,1(a),73,Na0.005Pb0.995Se1,Na0.005Pb0.995Se1,632,0.010385,0.000013714,0.00013573,1.4181,0.59946,72918.1857955374,0.001343345,0.0009472851
6006,10.1002/adma.201004200,80,1(a),73,Na0.005Pb0.995Se1,Na0.005Pb0.995Se1,632.5,0.010366,0.000013744,0.00013592,1.4166,0.60048,72759.0221187427,0.0013441681,0.0009488692
6006,10.1002/adma.201004200,80,1(a),73,Na0.005Pb0.995Se1,Na0.005Pb0.995Se1,633,0.010347,0.000013774,0.00013612,1.4151,0.6015,72600.5517641934,0.0013451905,0.0009505975
6006,10.1002/adma.201004200,80,1(a),73,Na0.005Pb0.995Se1,Na0.005Pb0.995Se1,633.5,0.010328,0.000013804,0.00013631,1.4136,0.60252,72442.7702115329,0.0013460168,0.0009521907
6006,10.1002/adma.201004200,80,1(a),73,Na0.005Pb0.995Se1,Na0.005Pb0.995Se1,634,0.010309,0.000013834,0.00013651,1.4121,0.60354,72285.6729796154,0.0013470421,0.0009539282
6006,10.1002/adma.201004200,80,1(a),73,Na0.005Pb0.995Se1,Na0.005Pb0.995Se1,634.5,0.01029,0.000013865,0.0001367,1.4106,0.60456,72124.0533717995,0.0013477743,0.0009554617
6006,10.1002/adma.201004200,80,1(a),73,Na0.005Pb0.995Se1,Na0.005Pb0.995Se1,635,0.010271,0.000013895,0.00013689,1.4092,0.60558,71968.3339330694,0.0013486054,0.0009570007
6006,10.1002/adma.201004200,80,1(a),73,Na0.005Pb0.995Se1,Na0.005Pb0.995Se1,635.5,0.010252,0.000013925,0.00013709,1.4077,0.6066,71813.2854578097,0.0013496351,0.0009587519
6006,10.1002/adma.201004200,80,1(a),73,Na0.005Pb0.995Se1,Na0.005Pb0.995Se1,636,0.010233,0.000013956,0.00013728,1.4062,0.60762,71653.7689882488,0.0013503725,0.000960299
6006,10.1002/adma.201004200,80,1(a),73,Na0.005Pb0.995Se1,Na0.005Pb0.995Se1,636.5,0.010214,0.000013986,0.00013748,1.4047,0.60863,71500.0715000715,0.001351405,0.0009620595
6006,10.1002/adma.201004200,80,1(a),73,Na0.005Pb0.995Se1,Na0.005Pb0.995Se1,637,0.010195,0.000014017,0.00013767,1.4032,0.60965,71341.9419276593,0.0013521459,0.0009636159
6006,10.1002/adma.201004200,80,1(a),73,Na0.005Pb0.995Se1,Na0.005Pb0.995Se1,637.5,0.010176,0.000014048,0.00013787,1.4018,0.61067,71184.5102505695,0.0013530849,0.0009652482
6006,10.1002/adma.201004200,80,1(a),73,Na0.005Pb0.995Se1,Na0.005Pb0.995Se1,638,0.010157,0.000014079,0.00013806,1.4003,0.61169,71027.7718587968,0.0013538294,0.0009668138
6006,10.1002/adma.201004200,80,1(a),73,Na0.005Pb0.995Se1,Na0.005Pb0.995Se1,638.5,0.010139,0.00001411,0.00013826,1.3988,0.61271,70871.722182849,0.0013547716,0.0009685242
6006,10.1002/adma.201004200,80,1(a),73,Na0.005Pb0.995Se1,Na0.005Pb0.995Se1,639,0.01012,0.000014141,0.00013845,1.3974,0.61373,70716.3566933032,0.0013555196,0.0009700298
6006,10.1002/adma.201004200,80,1(a),73,Na0.005Pb0.995Se1,Na0.005Pb0.995Se1,639.5,0.010101,0.000014172,0.00013865,1.3959,0.61475,70561.6709003669,0.001356465,0.0009717494
6006,10.1002/adma.201004200,80,1(a),73,Na0.005Pb0.995Se1,Na0.005Pb0.995Se1,640,0.010082,0.000014203,0.00013884,1.3945,0.61577,70407.6603534465,0.0013572165,0.0009732639
6006,10.1002/adma.201004200,80,1(a),73,Na0.005Pb0.995Se1,Na0.005Pb0.995Se1,640.5,0.010063,0.000014234,0.00013904,1.393,0.61679,70254.3206407194,0.0013581651,0.0009749929
6006,10.1002/adma.201004200,80,1(a),73,Na0.005Pb0.995Se1,Na0.005Pb0.995Se1,641,0.010044,0.000014265,0.00013924,1.3916,0.61781,70101.6473887136,0.0013591151,0.0009766565
6006,10.1002/adma.201004200,80,1(a),73,Na0.005Pb0.995Se1,Na0.005Pb0.995Se1,641.5,0.010025,0.000014297,0.00013943,1.3901,0.61883,69944.7436525145,0.0013597765,0.0009781861
6006,10.1002/adma.201004200,80,1(a),73,Na0.005Pb0.995Se1,Na0.005Pb0.995Se1,642,0.010006,0.000014328,0.00013963,1.3887,0.61985,69793.4115019542,0.0013607298,0.0009798587
6006,10.1002/adma.201004200,80,1(a),73,Na0.005Pb0.995Se1,Na0.005Pb0.995Se1,642.5,0.0099869,0.00001436,0.00013983,1.3872,0.62087,69637.8830083565,0.0013615898,0.0009815382
6006,10.1002/adma.201004200,80,1(a),73,Na0.005Pb0.995Se1,Na0.005Pb0.995Se1,643,0.009968,0.000014392,0.00014002,1.3858,0.62188,69483.0461367426,0.0013622568,0.0009830111
6006,10.1002/adma.201004200,80,1(a),73,Na0.005Pb0.995Se1,Na0.005Pb0.995Se1,643.5,0.009949,0.000014423,0.00014022,1.3843,0.6229,69333.7031130833,0.0013632149,0.0009847684
6006,10.1002/adma.201004200,80,1(a),73,Na0.005Pb0.995Se1,Na0.005Pb0.995Se1,644,0.0099301,0.000014455,0.00014042,1.3829,0.62392,69180.2144586648,0.00136408,0.0009863909
6006,10.1002/adma.201004200,80,1(a),73,Na0.005Pb0.995Se1,Na0.005Pb0.995Se1,644.5,0.0099112,0.000014487,0.00014061,1.3815,0.62494,69027.4038793401,0.0013647527,0.0009878774
6006,10.1002/adma.201004200,80,1(a),73,Na0.005Pb0.995Se1,Na0.005Pb0.995Se1,645,0.0098922,0.000014519,0.00014081,1.38,0.62596,68875.2668916592,0.0013656213,0.0009895807
6006,10.1002/adma.201004200,80,1(a),73,Na0.005Pb0.995Se1,Na0.005Pb0.995Se1,645.5,0.0098733,0.000014551,0.00014101,1.3786,0.62698,68723.7990516116,0.0013664917,0.0009912169
6006,10.1002/adma.201004200,80,1(a),73,Na0.005Pb0.995Se1,Na0.005Pb0.995Se1,646,0.0098543,0.000014583,0.00014121,1.3772,0.628,68572.9959541932,0.0013673636,0.0009928577
6006,10.1002/adma.201004200,80,1(a),73,Na0.005Pb0.995Se1,Na0.005Pb0.995Se1,646.5,0.0098354,0.000014616,0.00014141,1.3757,0.62902,68418.1718664477,0.0013681437,0.0009945073
6006,10.1002/adma.201004200,80,1(a),73,Na0.005Pb0.995Se1,Na0.005Pb0.995Se1,647,0.0098164,0.000014648,0.0001416,1.3743,0.63004,68268.7056253413,0.0013688258,0.0009960167
6006,10.1002/adma.201004200,80,1(a),73,Na0.005Pb0.995Se1,Na0.005Pb0.995Se1,647.5,0.0097975,0.00001468,0.0001418,1.3729,0.63106,68119.8910081744,0.001369703,0.0009976714
6006,10.1002/adma.201004200,80,1(a),73,Na0.005Pb0.995Se1,Na0.005Pb0.995Se1,648,0.0097785,0.000014713,0.000142,1.3715,0.63208,67967.1039217019,0.0013704887,0.0009992626
6006,10.1002/adma.201004200,80,1(a),73,Na0.005Pb0.995Se1,Na0.005Pb0.995Se1,648.5,0.0097596,0.000014746,0.0001422,1.3701,0.6331,67815.00067815,0.0013712763,0.0010008585
6006,10.1002/adma.201004200,80,1(a),73,Na0.005Pb0.995Se1,Na0.005Pb0.995Se1,649,0.0097406,0.000014778,0.0001424,1.3687,0.63411,67668.1553660847,0.0013721586,0.0010025269
6006,10.1002/adma.201004200,80,1(a),73,Na0.005Pb0.995Se1,Na0.005Pb0.995Se1,649.5,0.0097217,0.000014811,0.0001426,1.3673,0.63513,67517.3857268247,0.0013729498,0.0010041321
6006,10.1002/adma.201004200,80,1(a),73,Na0.005Pb0.995Se1,Na0.005Pb0.995Se1,650,0.0097028,0.000014844,0.0001428,1.3658,0.63615,67367.286445702,0.0013737429,0.0010058156
6006,10.1002/adma.201004200,80,1(a),73,Na0.005Pb0.995Se1,Na0.005Pb0.995Se1,650.5,0.0096838,0.000014877,0.000143,1.3644,0.63717,67217.8530617732,0.0013745379,0.0010074303
6006,10.1002/adma.201004200,80,1(a),73,Na0.005Pb0.995Se1,Na0.005Pb0.995Se1,651,0.0096649,0.00001491,0.0001432,1.363,0.63819,67069.0811535882,0.0013753347,0.0010090497
6006,10.1002/adma.201004200,80,1(a),73,Na0.005Pb0.995Se1,Na0.005Pb0.995Se1,651.5,0.0096459,0.000014943,0.0001434,1.3616,0.63921,66920.9663387539,0.0013761333,0.0010106737
6006,10.1002/adma.201004200,80,1(a),73,Na0.005Pb0.995Se1,Na0.005Pb0.995Se1,652,0.009627,0.000014977,0.0001436,1.3602,0.64023,66769.0458703345,0.0013768418,0.0010122348
6006,10.1002/adma.201004200,80,1(a),73,Na0.005Pb0.995Se1,Na0.005Pb0.995Se1,652.5,0.009608,0.00001501,0.0001438,1.3589,0.64125,66622.2518321119,0.0013776442,0.0010137937
6006,10.1002/adma.201004200,80,1(a),73,Na0.005Pb0.995Se1,Na0.005Pb0.995Se1,653,0.0095891,0.000015043,0.000144,1.3575,0.64227,66476.101841388,0.0013784484,0.0010154316
6006,10.1002/adma.201004200,80,1(a),73,Na0.005Pb0.995Se1,Na0.005Pb0.995Se1,653.5,0.0095701,0.000015077,0.0001442,1.3561,0.64329,66326.192213305,0.001379163,0.0010170068
6006,10.1002/adma.201004200,80,1(a),73,Na0.005Pb0.995Se1,Na0.005Pb0.995Se1,654,0.0095512,0.000015111,0.0001444,1.3547,0.64431,66176.9571835087,0.0013798796,0.0010185868
6006,10.1002/adma.201004200,80,1(a),73,Na0.005Pb0.995Se1,Na0.005Pb0.995Se1,654.5,0.0095322,0.000015144,0.0001446,1.3533,0.64533,66032.7522451136,0.0013806894,0.001020239
6006,10.1002/adma.201004200,80,1(a),73,Na0.005Pb0.995Se1,Na0.005Pb0.995Se1,655,0.0095133,0.000015178,0.0001448,1.3519,0.64635,65884.8333113717,0.0013814099,0.0010218285
6006,10.1002/adma.201004200,80,1(a),73,Na0.005Pb0.995Se1,Na0.005Pb0.995Se1,655.5,0.0094944,0.000015212,0.000145,1.3505,0.64736,65737.5755982119,0.0013821325,0.0010234228
6006,10.1002/adma.201004200,80,1(a),73,Na0.005Pb0.995Se1,Na0.005Pb0.995Se1,656,0.0094754,0.000015246,0.0001452,1.3492,0.64838,65590.9746818838,0.0013828571,0.001024946
6006,10.1002/adma.201004200,80,1(a),73,Na0.005Pb0.995Se1,Na0.005Pb0.995Se1,656.5,0.0094565,0.00001528,0.0001454,1.3478,0.6494,65445.0261780105,0.0013835838,0.0010265498
6006,10.1002/adma.201004200,80,1(a),73,Na0.005Pb0.995Se1,Na0.005Pb0.995Se1,657,0.0094375,0.000015314,0.00014561,1.3464,0.65042,65299.7257411519,0.0013845026,0.0010282996
6006,10.1002/adma.201004200,80,1(a),73,Na0.005Pb0.995Se1,Na0.005Pb0.995Se1,657.5,0.0094186,0.000015348,0.00014581,1.3451,0.65144,65155.0690643732,0.001385233,0.0010298364
6006,10.1002/adma.201004200,80,1(a),73,Na0.005Pb0.995Se1,Na0.005Pb0.995Se1,658,0.0093996,0.000015383,0.00014601,1.3437,0.65246,65006.8257167002,0.0013858753,0.0010313875
6006,10.1002/adma.201004200,80,1(a),73,Na0.005Pb0.995Se1,Na0.005Pb0.995Se1,658.5,0.0093807,0.000015417,0.00014621,1.3423,0.65348,64863.4624116235,0.0013866099,0.0010330104
6006,10.1002/adma.201004200,80,1(a),73,Na0.005Pb0.995Se1,Na0.005Pb0.995Se1,659,0.0093617,0.000015452,0.00014641,1.341,0.6545,64716.5415480197,0.0013872565,0.0010344941
6006,10.1002/adma.201004200,80,1(a),73,Na0.005Pb0.995Se1,Na0.005Pb0.995Se1,659.5,0.0093428,0.000015486,0.00014661,1.3396,0.65552,64574.4543458608,0.0013879951,0.0010361265
6006,10.1002/adma.201004200,80,1(a),73,Na0.005Pb0.995Se1,Na0.005Pb0.995Se1,660,0.0093238,0.000015521,0.00014682,1.3383,0.65654,64428.8383480446,0.0013888353,0.0010377608
6006,10.1002/adma.201004200,80,1(a),73,Na0.005Pb0.995Se1,Na0.005Pb0.995Se1,660.5,0.0093049,0.000015556,0.00014702,1.3369,0.65756,64283.877603497,0.0013894883,0.001039336
6006,10.1002/adma.201004200,80,1(a),73,Na0.005Pb0.995Se1,Na0.005Pb0.995Se1,661,0.0092859,0.000015591,0.00014722,1.3356,0.65858,64139.5676993137,0.0013901436,0.0010408383