sid,DOI,figureid,fignum,sampleid,samplename,composition,Temperature,Carrier mobility,Electrical resistivity,Seebeck coefficient,Thermal conductivity,ZT,Electrical conductivity,Power factor,Figure of merit Z
6006,10.1002/adma.201004200,80,1(a),147,Na0.0035Pb0.9965Se1,Na0.0035Pb0.9965Se1,318,0.028565,0.0000061566,0.000071926,2.8756,0.11342,162427.3137770848,0.0008402933,0.0002922149
6006,10.1002/adma.201004200,80,1(a),147,Na0.0035Pb0.9965Se1,Na0.0035Pb0.9965Se1,318.5,0.02854,0.000006161,0.000071942,2.8691,0.11441,162311.313098523,0.0008400668,0.000292798
6006,10.1002/adma.201004200,80,1(a),147,Na0.0035Pb0.9965Se1,Na0.0035Pb0.9965Se1,319,0.028516,0.0000061654,0.00007196,2.8626,0.11541,162195.4779900736,0.0008398874,0.0002934002
6006,10.1002/adma.201004200,80,1(a),147,Na0.0035Pb0.9965Se1,Na0.0035Pb0.9965Se1,319.5,0.028492,0.00000617,0.00007198,2.8562,0.11641,162074.5542949757,0.0008397278,0.0002940017
6006,10.1002/adma.201004200,80,1(a),147,Na0.0035Pb0.9965Se1,Na0.0035Pb0.9965Se1,320,0.028468,0.0000061746,0.000072001,2.8498,0.1174,161953.8107731675,0.0008395919,0.0002946143
6006,10.1002/adma.201004200,80,1(a),147,Na0.0035Pb0.9965Se1,Na0.0035Pb0.9965Se1,320.5,0.028444,0.0000061793,0.000072024,2.8434,0.1184,161830.6280646675,0.0008394894,0.0002952414
6006,10.1002/adma.201004200,80,1(a),147,Na0.0035Pb0.9965Se1,Na0.0035Pb0.9965Se1,321,0.02842,0.0000061841,0.000072048,2.837,0.11939,161705.0177066994,0.0008393969,0.0002958748
6006,10.1002/adma.201004200,80,1(a),147,Na0.0035Pb0.9965Se1,Na0.0035Pb0.9965Se1,321.5,0.028395,0.000006189,0.000072074,2.8307,0.12039,161576.9914364195,0.0008393378,0.0002965124
6006,10.1002/adma.201004200,80,1(a),147,Na0.0035Pb0.9965Se1,Na0.0035Pb0.9965Se1,322,0.028371,0.000006194,0.000072102,2.8244,0.12139,161446.5611882467,0.000839312,0.0002971647
6006,10.1002/adma.201004200,80,1(a),147,Na0.0035Pb0.9965Se1,Na0.0035Pb0.9965Se1,322.5,0.028347,0.000006199,0.000072132,2.8181,0.12238,161316.3413453783,0.000839333,0.0002978365
6006,10.1002/adma.201004200,80,1(a),147,Na0.0035Pb0.9965Se1,Na0.0035Pb0.9965Se1,323,0.028323,0.0000062042,0.000072163,2.8119,0.12338,161181.1353599175,0.0008393505,0.0002984994
6006,10.1002/adma.201004200,80,1(a),147,Na0.0035Pb0.9965Se1,Na0.0035Pb0.9965Se1,323.5,0.028299,0.0000062094,0.000072195,2.8057,0.12437,161046.1558282604,0.0008393916,0.0002991737
6006,10.1002/adma.201004200,80,1(a),147,Na0.0035Pb0.9965Se1,Na0.0035Pb0.9965Se1,324,0.028275,0.0000062147,0.00007223,2.7995,0.12537,160908.8129756867,0.0008394891,0.0002998711
6006,10.1002/adma.201004200,80,1(a),147,Na0.0035Pb0.9965Se1,Na0.0035Pb0.9965Se1,324.5,0.02825,0.00000622,0.000072266,2.7933,0.12637,160771.7041800643,0.0008396101,0.00030058
6006,10.1002/adma.201004200,80,1(a),147,Na0.0035Pb0.9965Se1,Na0.0035Pb0.9965Se1,325,0.028226,0.0000062255,0.000072303,2.7871,0.12736,160629.668299735,0.0008397275,0.0003012908
6006,10.1002/adma.201004200,80,1(a),147,Na0.0035Pb0.9965Se1,Na0.0035Pb0.9965Se1,325.5,0.028202,0.000006231,0.000072342,2.781,0.12836,160487.883164821,0.0008398917,0.0003020107
6006,10.1002/adma.201004200,80,1(a),147,Na0.0035Pb0.9965Se1,Na0.0035Pb0.9965Se1,326,0.028178,0.0000062366,0.000072382,2.7749,0.12935,160343.7770580124,0.0008400657,0.0003027373
6006,10.1002/adma.201004200,80,1(a),147,Na0.0035Pb0.9965Se1,Na0.0035Pb0.9965Se1,326.5,0.028154,0.0000062423,0.000072424,2.7689,0.13035,160197.3631514025,0.0008402729,0.0003034681
6006,10.1002/adma.201004200,80,1(a),147,Na0.0035Pb0.9965Se1,Na0.0035Pb0.9965Se1,327,0.028129,0.0000062481,0.000072468,2.7628,0.13135,160048.6547910565,0.0008405133,0.0003042252
6006,10.1002/adma.201004200,80,1(a),147,Na0.0035Pb0.9965Se1,Na0.0035Pb0.9965Se1,327.5,0.028105,0.000006254,0.000072513,2.7568,0.13234,159897.6654940838,0.0008407635,0.0003049781
6006,10.1002/adma.201004200,80,1(a),147,Na0.0035Pb0.9965Se1,Na0.0035Pb0.9965Se1,328,0.028081,0.0000062599,0.00007256,2.7508,0.13334,159746.9608140705,0.0008410603,0.0003057512
6006,10.1002/adma.201004200,80,1(a),147,Na0.0035Pb0.9965Se1,Na0.0035Pb0.9965Se1,328.5,0.028057,0.0000062659,0.000072608,2.7448,0.13434,159593.9928821079,0.000841367,0.0003065313
6006,10.1002/adma.201004200,80,1(a),147,Na0.0035Pb0.9965Se1,Na0.0035Pb0.9965Se1,329,0.028033,0.000006272,0.000072658,2.7389,0.13533,159438.7755102041,0.0008417068,0.0003073156
6006,10.1002/adma.201004200,80,1(a),147,Na0.0035Pb0.9965Se1,Na0.0035Pb0.9965Se1,329.5,0.028009,0.0000062782,0.000072709,2.733,0.13633,159281.3226721035,0.0008420564,0.000308107
6006,10.1002/adma.201004200,80,1(a),147,Na0.0035Pb0.9965Se1,Na0.0035Pb0.9965Se1,330,0.027984,0.0000062844,0.000072761,2.7271,0.13732,159124.1805104704,0.0008424294,0.0003089103
6006,10.1002/adma.201004200,80,1(a),147,Na0.0035Pb0.9965Se1,Na0.0035Pb0.9965Se1,330.5,0.02796,0.0000062907,0.000072815,2.7212,0.13832,158964.8210850939,0.0008428353,0.0003097293
6006,10.1002/adma.201004200,80,1(a),147,Na0.0035Pb0.9965Se1,Na0.0035Pb0.9965Se1,331,0.027936,0.0000062971,0.000072871,2.7154,0.13932,158803.2586428674,0.0008432743,0.0003105525
6006,10.1002/adma.201004200,80,1(a),147,Na0.0035Pb0.9965Se1,Na0.0035Pb0.9965Se1,331.5,0.027912,0.0000063036,0.000072928,2.7096,0.14031,158639.5075829685,0.0008437231,0.0003113829
6006,10.1002/adma.201004200,80,1(a),147,Na0.0035Pb0.9965Se1,Na0.0035Pb0.9965Se1,332,0.027888,0.0000063101,0.000072986,2.7038,0.14131,158476.093881238,0.0008441952,0.0003122255
6006,10.1002/adma.201004200,80,1(a),147,Na0.0035Pb0.9965Se1,Na0.0035Pb0.9965Se1,332.5,0.027864,0.0000063167,0.000073046,2.698,0.1423,158310.5102347745,0.0008447003,0.0003130839
6006,10.1002/adma.201004200,80,1(a),147,Na0.0035Pb0.9965Se1,Na0.0035Pb0.9965Se1,333,0.027839,0.0000063234,0.000073107,2.6923,0.1433,158142.7712939242,0.0008452151,0.000313938
6006,10.1002/adma.201004200,80,1(a),147,Na0.0035Pb0.9965Se1,Na0.0035Pb0.9965Se1,333.5,0.027815,0.0000063302,0.000073169,2.6865,0.1443,157972.8918517582,0.0008457399,0.000314811
6006,10.1002/adma.201004200,80,1(a),147,Na0.0035Pb0.9965Se1,Na0.0035Pb0.9965Se1,334,0.027791,0.000006337,0.000073233,2.6808,0.14529,157803.3769922676,0.0008463109,0.0003156934
6006,10.1002/adma.201004200,80,1(a),147,Na0.0035Pb0.9965Se1,Na0.0035Pb0.9965Se1,334.5,0.027767,0.0000063439,0.000073299,2.6752,0.14629,157631.7407273128,0.0008469149,0.00031658
6006,10.1002/adma.201004200,80,1(a),147,Na0.0035Pb0.9965Se1,Na0.0035Pb0.9965Se1,335,0.027743,0.0000063509,0.000073365,2.6695,0.14729,157457.9980790124,0.0008475056,0.0003174773
6006,10.1002/adma.201004200,80,1(a),147,Na0.0035Pb0.9965Se1,Na0.0035Pb0.9965Se1,335.5,0.027718,0.0000063579,0.000073433,2.6639,0.14828,157284.6380094056,0.0008481425,0.0003183838
6006,10.1002/adma.201004200,80,1(a),147,Na0.0035Pb0.9965Se1,Na0.0035Pb0.9965Se1,336,0.027694,0.000006365,0.000073503,2.6583,0.14928,157109.1908876669,0.0008488124,0.0003193065
6006,10.1002/adma.201004200,80,1(a),147,Na0.0035Pb0.9965Se1,Na0.0035Pb0.9965Se1,336.5,0.02767,0.0000063722,0.000073573,2.6527,0.15027,156931.671950033,0.000849469,0.0003202281
6006,10.1002/adma.201004200,80,1(a),147,Na0.0035Pb0.9965Se1,Na0.0035Pb0.9965Se1,337,0.027646,0.0000063795,0.000073645,2.6471,0.15127,156752.0965592915,0.0008501585,0.000321166
6006,10.1002/adma.201004200,80,1(a),147,Na0.0035Pb0.9965Se1,Na0.0035Pb0.9965Se1,337.5,0.027622,0.0000063868,0.000073719,2.6416,0.15227,156572.9316715726,0.0008508942,0.0003221132
6006,10.1002/adma.201004200,80,1(a),147,Na0.0035Pb0.9965Se1,Na0.0035Pb0.9965Se1,338,0.027598,0.0000063942,0.000073793,2.6361,0.15326,156391.7300053173,0.0008516166,0.0003230593
6006,10.1002/adma.201004200,80,1(a),147,Na0.0035Pb0.9965Se1,Na0.0035Pb0.9965Se1,338.5,0.027573,0.0000064017,0.000073869,2.6306,0.15426,156208.5071152975,0.0008523719,0.0003240219
6006,10.1002/adma.201004200,80,1(a),147,Na0.0035Pb0.9965Se1,Na0.0035Pb0.9965Se1,339,0.027549,0.0000064092,0.000073947,2.6252,0.15525,156025.7130375086,0.0008531734,0.0003249937
6006,10.1002/adma.201004200,80,1(a),147,Na0.0035Pb0.9965Se1,Na0.0035Pb0.9965Se1,339.5,0.027525,0.0000064168,0.000074025,2.6197,0.15625,155840.9175913228,0.0008539616,0.0003259769
6006,10.1002/adma.201004200,80,1(a),147,Na0.0035Pb0.9965Se1,Na0.0035Pb0.9965Se1,340,0.027501,0.0000064245,0.000074105,2.6143,0.15725,155654.1365086777,0.0008547826,0.0003269642
6006,10.1002/adma.201004200,80,1(a),147,Na0.0035Pb0.9965Se1,Na0.0035Pb0.9965Se1,340.5,0.027477,0.0000064322,0.000074186,2.6089,0.15824,155467.8026180778,0.0008556268,0.0003279646
6006,10.1002/adma.201004200,80,1(a),147,Na0.0035Pb0.9965Se1,Na0.0035Pb0.9965Se1,341,0.027453,0.00000644,0.000074268,2.6035,0.15924,155279.5031055901,0.0008564807,0.0003289728
6006,10.1002/adma.201004200,80,1(a),147,Na0.0035Pb0.9965Se1,Na0.0035Pb0.9965Se1,341.5,0.027428,0.0000064479,0.000074352,2.5982,0.16023,155089.2538655997,0.0008573675,0.0003299852
6006,10.1002/adma.201004200,80,1(a),147,Na0.0035Pb0.9965Se1,Na0.0035Pb0.9965Se1,342,0.027404,0.0000064559,0.000074436,2.5928,0.16123,154897.0708963893,0.000858241,0.0003310093
6006,10.1002/adma.201004200,80,1(a),147,Na0.0035Pb0.9965Se1,Na0.0035Pb0.9965Se1,342.5,0.02738,0.0000064639,0.000074522,2.5875,0.16223,154705.3636349572,0.0008591606,0.0003320428
6006,10.1002/adma.201004200,80,1(a),147,Na0.0035Pb0.9965Se1,Na0.0035Pb0.9965Se1,343,0.027356,0.0000064719,0.00007461,2.5823,0.16322,154514.1303172175,0.0008601264,0.0003330854
6006,10.1002/adma.201004200,80,1(a),147,Na0.0035Pb0.9965Se1,Na0.0035Pb0.9965Se1,343.5,0.027332,0.0000064801,0.000074698,2.577,0.16422,154318.6061943489,0.0008610656,0.0003341349
6006,10.1002/adma.201004200,80,1(a),147,Na0.0035Pb0.9965Se1,Na0.0035Pb0.9965Se1,344,0.027307,0.0000064883,0.000074788,2.5717,0.16522,154123.5762834641,0.0008620509,0.0003352066
6006,10.1002/adma.201004200,80,1(a),147,Na0.0035Pb0.9965Se1,Na0.0035Pb0.9965Se1,344.5,0.027283,0.0000064966,0.000074878,2.5665,0.16621,153926.6693347289,0.0008630229,0.0003362645
6006,10.1002/adma.201004200,80,1(a),147,Na0.0035Pb0.9965Se1,Na0.0035Pb0.9965Se1,345,0.027259,0.0000065049,0.00007497,2.5613,0.16721,153730.2648772464,0.0008640411,0.0003373447
6006,10.1002/adma.201004200,80,1(a),147,Na0.0035Pb0.9965Se1,Na0.0035Pb0.9965Se1,345.5,0.027235,0.0000065133,0.000075064,2.5562,0.1682,153532.0037461809,0.0008650921,0.0003384289
6006,10.1002/adma.201004200,80,1(a),147,Na0.0035Pb0.9965Se1,Na0.0035Pb0.9965Se1,346,0.027211,0.0000065218,0.000075158,2.551,0.1692,153331.9022355791,0.0008661297,0.0003395256
6006,10.1002/adma.201004200,80,1(a),147,Na0.0035Pb0.9965Se1,Na0.0035Pb0.9965Se1,346.5,0.027187,0.0000065303,0.000075253,2.5459,0.1702,153132.3216391284,0.0008671905,0.0003406224
6006,10.1002/adma.201004200,80,1(a),147,Na0.0035Pb0.9965Se1,Na0.0035Pb0.9965Se1,347,0.027162,0.0000065389,0.00007535,2.5408,0.17119,152930.9211029378,0.000868284,0.0003417365
6006,10.1002/adma.201004200,80,1(a),147,Na0.0035Pb0.9965Se1,Na0.0035Pb0.9965Se1,347.5,0.027138,0.0000065475,0.000075448,2.5357,0.17219,152730.0496372661,0.0008694006,0.0003428642
6006,10.1002/adma.201004200,80,1(a),147,Na0.0035Pb0.9965Se1,Na0.0035Pb0.9965Se1,348,0.027114,0.0000065562,0.000075546,2.5306,0.17318,152527.3786644703,0.000870504,0.0003439911
6006,10.1002/adma.201004200,80,1(a),147,Na0.0035Pb0.9965Se1,Na0.0035Pb0.9965Se1,348.5,0.02709,0.000006565,0.000075646,2.5255,0.17418,152322.9246001523,0.0008716401,0.0003451357
6006,10.1002/adma.201004200,80,1(a),147,Na0.0035Pb0.9965Se1,Na0.0035Pb0.9965Se1,349,0.027066,0.0000065738,0.000075747,2.5205,0.17518,152119.0179196203,0.0008727993,0.0003462802
6006,10.1002/adma.201004200,80,1(a),147,Na0.0035Pb0.9965Se1,Na0.0035Pb0.9965Se1,349.5,0.027041,0.0000065827,0.00007585,2.5155,0.17617,151913.3486259438,0.0008739913,0.0003474424
6006,10.1002/adma.201004200,80,1(a),147,Na0.0035Pb0.9965Se1,Na0.0035Pb0.9965Se1,350,0.027017,0.0000065917,0.000075953,2.5105,0.17717,151705.9332190482,0.00087517,0.0003486039
6006,10.1002/adma.201004200,80,1(a),147,Na0.0035Pb0.9965Se1,Na0.0035Pb0.9965Se1,350.5,0.026993,0.0000066007,0.000076057,2.5056,0.17816,151499.0834305452,0.0008763718,0.0003497652
6006,10.1002/adma.201004200,80,1(a),147,Na0.0035Pb0.9965Se1,Na0.0035Pb0.9965Se1,351,0.026969,0.0000066098,0.000076163,2.5006,0.17916,151290.508033526,0.0008776064,0.0003509583
6006,10.1002/adma.201004200,80,1(a),147,Na0.0035Pb0.9965Se1,Na0.0035Pb0.9965Se1,351.5,0.026945,0.0000066189,0.000076269,2.4957,0.18016,151082.5061566121,0.0008788409,0.0003521421
6006,10.1002/adma.201004200,80,1(a),147,Na0.0035Pb0.9965Se1,Na0.0035Pb0.9965Se1,352,0.026921,0.0000066281,0.000076376,2.4908,0.18115,150872.7991430425,0.0008800853,0.0003533344
6006,10.1002/adma.201004200,80,1(a),147,Na0.0035Pb0.9965Se1,Na0.0035Pb0.9965Se1,352.5,0.026896,0.0000066374,0.000076485,2.4859,0.18215,150661.4035616356,0.0008813625,0.0003545446
6006,10.1002/adma.201004200,80,1(a),147,Na0.0035Pb0.9965Se1,Na0.0035Pb0.9965Se1,353,0.026872,0.0000066467,0.000076595,2.481,0.18315,150450.5995456392,0.0008826627,0.0003557689
6006,10.1002/adma.201004200,80,1(a),147,Na0.0035Pb0.9965Se1,Na0.0035Pb0.9965Se1,353.5,0.026848,0.0000066561,0.000076705,2.4762,0.18414,150238.1274319797,0.0008839496,0.0003569783
6006,10.1002/adma.201004200,80,1(a),147,Na0.0035Pb0.9965Se1,Na0.0035Pb0.9965Se1,354,0.026824,0.0000066655,0.000076817,2.4714,0.18514,150026.254594554,0.0008852826,0.000358211
6006,10.1002/adma.201004200,80,1(a),147,Na0.0035Pb0.9965Se1,Na0.0035Pb0.9965Se1,354.5,0.0268,0.000006675,0.000076929,2.4665,0.18613,149812.734082397,0.0008866024,0.0003594577
6006,10.1002/adma.201004200,80,1(a),147,Na0.0035Pb0.9965Se1,Na0.0035Pb0.9965Se1,355,0.026776,0.0000066846,0.000077043,2.4618,0.18713,149597.5825030667,0.000887955,0.0003606934
6006,10.1002/adma.201004200,80,1(a),147,Na0.0035Pb0.9965Se1,Na0.0035Pb0.9965Se1,355.5,0.026751,0.0000066942,0.000077158,2.457,0.18813,149383.0480117116,0.0008893306,0.0003619579
6006,10.1002/adma.201004200,80,1(a),147,Na0.0035Pb0.9965Se1,Na0.0035Pb0.9965Se1,356,0.026727,0.0000067039,0.000077273,2.4522,0.18912,149166.9028475962,0.000890693,0.000363222
6006,10.1002/adma.201004200,80,1(a),147,Na0.0035Pb0.9965Se1,Na0.0035Pb0.9965Se1,356.5,0.026703,0.0000067136,0.00007739,2.4475,0.19012,148951.3822688274,0.0008921014,0.000364495
6006,10.1002/adma.201004200,80,1(a),147,Na0.0035Pb0.9965Se1,Na0.0035Pb0.9965Se1,357,0.026679,0.0000067234,0.000077508,2.4428,0.19111,148734.2713508047,0.0008935197,0.0003657768
6006,10.1002/adma.201004200,80,1(a),147,Na0.0035Pb0.9965Se1,Na0.0035Pb0.9965Se1,357.5,0.026655,0.0000067332,0.000077626,2.4381,0.19211,148517.7924315333,0.0008949379,0.0003670637
6006,10.1002/adma.201004200,80,1(a),147,Na0.0035Pb0.9965Se1,Na0.0035Pb0.9965Se1,358,0.02663,0.0000067431,0.000077746,2.4334,0.19311,148299.7434414439,0.000896389,0.0003683689
6006,10.1002/adma.201004200,80,1(a),147,Na0.0035Pb0.9965Se1,Na0.0035Pb0.9965Se1,358.5,0.026606,0.0000067531,0.000077866,2.4288,0.1941,148080.1409722942,0.0008978268,0.0003696586
6006,10.1002/adma.201004200,80,1(a),147,Na0.0035Pb0.9965Se1,Na0.0035Pb0.9965Se1,359,0.026582,0.0000067631,0.000077987,2.4242,0.1951,147861.1879167837,0.0008992876,0.0003709626
6006,10.1002/adma.201004200,80,1(a),147,Na0.0035Pb0.9965Se1,Na0.0035Pb0.9965Se1,359.5,0.026558,0.0000067731,0.00007811,2.4195,0.19609,147642.8813984734,0.0009007946,0.0003723061
6006,10.1002/adma.201004200,80,1(a),147,Na0.0035Pb0.9965Se1,Na0.0035Pb0.9965Se1,360,0.026534,0.0000067832,0.000078233,2.415,0.19709,147423.045170421,0.0009022883,0.0003736184
6006,10.1002/adma.201004200,80,1(a),147,Na0.0035Pb0.9965Se1,Na0.0035Pb0.9965Se1,360.5,0.02651,0.0000067934,0.000078357,2.4104,0.19809,147201.6957635352,0.0009037918,0.0003749551
6006,10.1002/adma.201004200,80,1(a),147,Na0.0035Pb0.9965Se1,Na0.0035Pb0.9965Se1,361,0.026485,0.0000068036,0.000078482,2.4058,0.19908,146981.0100535011,0.0009053184,0.0003763066
6006,10.1002/adma.201004200,80,1(a),147,Na0.0035Pb0.9965Se1,Na0.0035Pb0.9965Se1,361.5,0.026461,0.0000068139,0.000078608,2.4013,0.20008,146758.8312126682,0.0009068548,0.0003776516
6006,10.1002/adma.201004200,80,1(a),147,Na0.0035Pb0.9965Se1,Na0.0035Pb0.9965Se1,362,0.026437,0.0000068243,0.000078735,2.3968,0.20108,146535.1757689433,0.0009084009,0.0003790057
6006,10.1002/adma.201004200,80,1(a),147,Na0.0035Pb0.9965Se1,Na0.0035Pb0.9965Se1,362.5,0.026413,0.0000068346,0.000078863,2.3923,0.20207,146314.3417317765,0.0009099834,0.0003803801
6006,10.1002/adma.201004200,80,1(a),147,Na0.0035Pb0.9965Se1,Na0.0035Pb0.9965Se1,363,0.026389,0.0000068451,0.000078991,2.3878,0.20307,146089.9037267535,0.0009115394,0.0003817486
6006,10.1002/adma.201004200,80,1(a),147,Na0.0035Pb0.9965Se1,Na0.0035Pb0.9965Se1,363.5,0.026365,0.0000068556,0.000079121,2.3833,0.20406,145866.1532178073,0.0009131415,0.0003831416
6006,10.1002/adma.201004200,80,1(a),147,Na0.0035Pb0.9965Se1,Na0.0035Pb0.9965Se1,364,0.02634,0.0000068661,0.000079251,2.3789,0.20506,145643.0870508731,0.0009147436,0.0003845238
6006,10.1002/adma.201004200,80,1(a),147,Na0.0035Pb0.9965Se1,Na0.0035Pb0.9965Se1,364.5,0.026316,0.0000068767,0.000079383,2.3744,0.20606,145418.587403842,0.0009163786,0.0003859411
6006,10.1002/adma.201004200,80,1(a),147,Na0.0035Pb0.9965Se1,Na0.0035Pb0.9965Se1,365,0.026292,0.0000068874,0.000079515,2.37,0.20705,145192.6706739844,0.0009180003,0.0003873419
6006,10.1002/adma.201004200,80,1(a),147,Na0.0035Pb0.9965Se1,Na0.0035Pb0.9965Se1,365.5,0.026268,0.0000068981,0.000079647,2.3656,0.20805,144967.454806396,0.000919622,0.0003887479
6006,10.1002/adma.201004200,80,1(a),147,Na0.0035Pb0.9965Se1,Na0.0035Pb0.9965Se1,366,0.026244,0.0000069088,0.000079781,2.3612,0.20904,144742.9365446966,0.0009212899,0.0003901787
6006,10.1002/adma.201004200,80,1(a),147,Na0.0035Pb0.9965Se1,Na0.0035Pb0.9965Se1,366.5,0.026219,0.0000069196,0.000079916,2.3569,0.21004,144517.0241054396,0.0009229677,0.0003916024
6006,10.1002/adma.201004200,80,1(a),147,Na0.0035Pb0.9965Se1,Na0.0035Pb0.9965Se1,367,0.026195,0.0000069305,0.000080051,2.3525,0.21104,144289.7337854412,0.0009246321,0.0003930423
6006,10.1002/adma.201004200,80,1(a),147,Na0.0035Pb0.9965Se1,Na0.0035Pb0.9965Se1,367.5,0.026171,0.0000069414,0.000080187,2.3482,0.21203,144063.1572881551,0.0009263196,0.0003944807
6006,10.1002/adma.201004200,80,1(a),147,Na0.0035Pb0.9965Se1,Na0.0035Pb0.9965Se1,368,0.026147,0.0000069524,0.000080324,2.3439,0.21303,143835.2223692538,0.0009280169,0.0003959286
6006,10.1002/adma.201004200,80,1(a),147,Na0.0035Pb0.9965Se1,Na0.0035Pb0.9965Se1,368.5,0.026123,0.0000069634,0.000080462,2.3396,0.21402,143608.0075825028,0.0009297374,0.0003973916
6006,10.1002/adma.201004200,80,1(a),147,Na0.0035Pb0.9965Se1,Na0.0035Pb0.9965Se1,369,0.026099,0.0000069745,0.000080601,2.3353,0.21502,143379.4537242813,0.0009314677,0.0003988642
6006,10.1002/adma.201004200,80,1(a),147,Na0.0035Pb0.9965Se1,Na0.0035Pb0.9965Se1,369.5,0.026074,0.0000069856,0.00008074,2.3311,0.21602,143151.6262024737,0.000933198,0.0004003251
6006,10.1002/adma.201004200,80,1(a),147,Na0.0035Pb0.9965Se1,Na0.0035Pb0.9965Se1,370,0.02605,0.0000069967,0.00008088,2.3268,0.21701,142924.5215601641,0.0009349514,0.0004018185
6006,10.1002/adma.201004200,80,1(a),147,Na0.0035Pb0.9965Se1,Na0.0035Pb0.9965Se1,370.5,0.026026,0.0000070079,0.000081021,2.3226,0.21801,142696.1001155838,0.0009367146,0.0004033043
6006,10.1002/adma.201004200,80,1(a),147,Na0.0035Pb0.9965Se1,Na0.0035Pb0.9965Se1,371,0.026002,0.0000070192,0.000081163,2.3184,0.21901,142466.3779348074,0.0009384877,0.0004047997
6006,10.1002/adma.201004200,80,1(a),147,Na0.0035Pb0.9965Se1,Na0.0035Pb0.9965Se1,371.5,0.025978,0.0000070305,0.000081305,2.3142,0.22,142237.394210938,0.0009402607,0.0004063005
6006,10.1002/adma.201004200,80,1(a),147,Na0.0035Pb0.9965Se1,Na0.0035Pb0.9965Se1,372,0.025954,0.0000070419,0.000081448,2.3101,0.221,142007.1287578636,0.0009420436,0.0004077934
6006,10.1002/adma.201004200,80,1(a),147,Na0.0035Pb0.9965Se1,Na0.0035Pb0.9965Se1,372.5,0.025929,0.0000070533,0.000081592,2.3059,0.22199,141777.6076446486,0.0009438496,0.0004093194
6006,10.1002/adma.201004200,80,1(a),147,Na0.0035Pb0.9965Se1,Na0.0035Pb0.9965Se1,373,0.025905,0.0000070647,0.000081737,2.3018,0.22299,141548.8272679661,0.0009456788,0.0004108432