sid,DOI,figureid,fignum,sampleid,samplename,composition,Temperature,Carrier mobility,Electrical resistivity,Seebeck coefficient,Thermal conductivity,ZT,Electrical conductivity,Power factor,Figure of merit Z
6006,10.1002/adma.201004200,80,1(a),324,Na0.007Pb0.993Se1,Na0.007Pb0.993Se1,352,0.017113,0.0000041284,0.000042152,3.1363,-0.062449,242224.5906404418,0.0004303825,0.0001372262
6006,10.1002/adma.201004200,80,1(a),324,Na0.007Pb0.993Se1,Na0.007Pb0.993Se1,352.5,0.017098,0.0000041339,0.00004224,3.1308,-0.061261,241902.3198432473,0.0004316064,0.0001378582
6006,10.1002/adma.201004200,80,1(a),324,Na0.007Pb0.993Se1,Na0.007Pb0.993Se1,353,0.017083,0.0000041394,0.000042328,3.1253,-0.060073,241580.9054452336,0.0004328307,0.0001384925
6006,10.1002/adma.201004200,80,1(a),324,Na0.007Pb0.993Se1,Na0.007Pb0.993Se1,353.5,0.017068,0.0000041449,0.000042416,3.1199,-0.058884,241260.3440372506,0.0004340556,0.0001391248
6006,10.1002/adma.201004200,80,1(a),324,Na0.007Pb0.993Se1,Na0.007Pb0.993Se1,354,0.017053,0.0000041505,0.000042505,3.1144,-0.057696,240934.8271292615,0.0004352909,0.0001397672
6006,10.1002/adma.201004200,80,1(a),324,Na0.007Pb0.993Se1,Na0.007Pb0.993Se1,354.5,0.017038,0.0000041561,0.000042593,3.109,-0.056508,240610.187435336,0.0004365063,0.0001404009
6006,10.1002/adma.201004200,80,1(a),324,Na0.007Pb0.993Se1,Na0.007Pb0.993Se1,355,0.017024,0.0000041618,0.000042682,3.1036,-0.055319,240280.6477966265,0.000437732,0.0001410401
6006,10.1002/adma.201004200,80,1(a),324,Na0.007Pb0.993Se1,Na0.007Pb0.993Se1,355.5,0.017009,0.0000041675,0.000042771,3.0983,-0.054131,239952.0095980804,0.0004389582,0.0001416771
6006,10.1002/adma.201004200,80,1(a),324,Na0.007Pb0.993Se1,Na0.007Pb0.993Se1,356,0.016994,0.0000041732,0.00004286,3.0929,-0.052943,239624.2691459791,0.0004401849,0.0001423211
6006,10.1002/adma.201004200,80,1(a),324,Na0.007Pb0.993Se1,Na0.007Pb0.993Se1,356.5,0.016979,0.0000041789,0.000042949,3.0876,-0.051754,239297.4227667568,0.000441412,0.0001429628
6006,10.1002/adma.201004200,80,1(a),324,Na0.007Pb0.993Se1,Na0.007Pb0.993Se1,357,0.016964,0.0000041847,0.000043038,3.0823,-0.050566,238965.7562071355,0.000442629,0.0001436035
6006,10.1002/adma.201004200,80,1(a),324,Na0.007Pb0.993Se1,Na0.007Pb0.993Se1,357.5,0.016949,0.0000041905,0.000043128,3.077,-0.049378,238635.0077556378,0.0004438669,0.0001442531
6006,10.1002/adma.201004200,80,1(a),324,Na0.007Pb0.993Se1,Na0.007Pb0.993Se1,358,0.016935,0.0000041964,0.000043217,3.0717,-0.048189,238299.494805071,0.0004450741,0.0001448951
6006,10.1002/adma.201004200,80,1(a),324,Na0.007Pb0.993Se1,Na0.007Pb0.993Se1,358.5,0.01692,0.0000042023,0.000043307,3.0665,-0.047001,237964.9239702068,0.0004463023,0.0001455413
6006,10.1002/adma.201004200,80,1(a),324,Na0.007Pb0.993Se1,Na0.007Pb0.993Se1,359,0.016905,0.0000042082,0.000043397,3.0612,-0.045813,237631.2912884369,0.0004475309,0.0001461946
6006,10.1002/adma.201004200,80,1(a),324,Na0.007Pb0.993Se1,Na0.007Pb0.993Se1,359.5,0.01689,0.0000042141,0.000043487,3.056,-0.044624,237298.5928193446,0.0004487599,0.0001468455
6006,10.1002/adma.201004200,80,1(a),324,Na0.007Pb0.993Se1,Na0.007Pb0.993Se1,360,0.016875,0.0000042201,0.000043577,3.0508,-0.043436,236961.2094500131,0.0004499787,0.0001474953
6006,10.1002/adma.201004200,80,1(a),324,Na0.007Pb0.993Se1,Na0.007Pb0.993Se1,360.5,0.016861,0.0000042261,0.000043668,3.0456,-0.042247,236624.7840798845,0.0004512184,0.0001481542
6006,10.1002/adma.201004200,80,1(a),324,Na0.007Pb0.993Se1,Na0.007Pb0.993Se1,361,0.016846,0.0000042322,0.000043758,3.0405,-0.041059,236283.7295023865,0.0004524272,0.0001488003
6006,10.1002/adma.201004200,80,1(a),324,Na0.007Pb0.993Se1,Na0.007Pb0.993Se1,361.5,0.016831,0.0000042383,0.000043849,3.0353,-0.039871,235943.6566547909,0.0004536571,0.0001494604
6006,10.1002/adma.201004200,80,1(a),324,Na0.007Pb0.993Se1,Na0.007Pb0.993Se1,362,0.016816,0.0000042444,0.00004394,3.0302,-0.038682,235604.5613043068,0.0004548873,0.0001501179
6006,10.1002/adma.201004200,80,1(a),324,Na0.007Pb0.993Se1,Na0.007Pb0.993Se1,362.5,0.016801,0.0000042506,0.000044031,3.0251,-0.037494,235260.9043429163,0.0004561071,0.0001507742
6006,10.1002/adma.201004200,80,1(a),324,Na0.007Pb0.993Se1,Na0.007Pb0.993Se1,363,0.016786,0.0000042567,0.000044122,3.02,-0.036306,234923.7672375314,0.0004573381,0.0001514364
6006,10.1002/adma.201004200,80,1(a),324,Na0.007Pb0.993Se1,Na0.007Pb0.993Se1,363.5,0.016772,0.0000042629,0.000044213,3.015,-0.035117,234582.0920030965,0.0004585586,0.0001520924
6006,10.1002/adma.201004200,80,1(a),324,Na0.007Pb0.993Se1,Na0.007Pb0.993Se1,364,0.016757,0.0000042692,0.000044305,3.0099,-0.033929,234235.9224210625,0.0004597894,0.000152759
6006,10.1002/adma.201004200,80,1(a),324,Na0.007Pb0.993Se1,Na0.007Pb0.993Se1,364.5,0.016742,0.0000042755,0.000044396,3.0049,-0.032741,233890.7730090048,0.0004609998,0.000153416
6006,10.1002/adma.201004200,80,1(a),324,Na0.007Pb0.993Se1,Na0.007Pb0.993Se1,365,0.016727,0.0000042818,0.000044488,2.9999,-0.031552,233546.639263861,0.0004622313,0.0001540822
6006,10.1002/adma.201004200,80,1(a),324,Na0.007Pb0.993Se1,Na0.007Pb0.993Se1,365.5,0.016712,0.0000042881,0.00004458,2.9949,-0.030364,233203.516709032,0.0004634632,0.0001547508
6006,10.1002/adma.201004200,80,1(a),324,Na0.007Pb0.993Se1,Na0.007Pb0.993Se1,366,0.016697,0.0000042945,0.000044672,2.9899,-0.029176,232855.97857725,0.0004646845,0.0001554181
6006,10.1002/adma.201004200,80,1(a),324,Na0.007Pb0.993Se1,Na0.007Pb0.993Se1,366.5,0.016683,0.0000043009,0.000044764,2.985,-0.027987,232509.4747610965,0.0004659061,0.0001560825
6006,10.1002/adma.201004200,80,1(a),324,Na0.007Pb0.993Se1,Na0.007Pb0.993Se1,367,0.016668,0.0000043073,0.000044857,2.98,-0.026799,232164.0006500592,0.0004671489,0.0001567614
6006,10.1002/adma.201004200,80,1(a),324,Na0.007Pb0.993Se1,Na0.007Pb0.993Se1,367.5,0.016653,0.0000043138,0.000044949,2.9751,-0.025611,231814.1777551115,0.0004683603,0.0001574267
6006,10.1002/adma.201004200,80,1(a),324,Na0.007Pb0.993Se1,Na0.007Pb0.993Se1,368,0.016638,0.0000043203,0.000045042,2.9702,-0.024422,231465.4074948499,0.0004695928,0.0001581014
6006,10.1002/adma.201004200,80,1(a),324,Na0.007Pb0.993Se1,Na0.007Pb0.993Se1,368.5,0.016623,0.0000043268,0.000045135,2.9653,-0.023234,231117.6851252658,0.0004708256,0.0001587784
6006,10.1002/adma.201004200,80,1(a),324,Na0.007Pb0.993Se1,Na0.007Pb0.993Se1,369,0.016608,0.0000043334,0.000045228,2.9605,-0.022046,230765.6805279919,0.0004720478,0.0001594487
6006,10.1002/adma.201004200,80,1(a),324,Na0.007Pb0.993Se1,Na0.007Pb0.993Se1,369.5,0.016594,0.0000043399,0.000045321,2.9556,-0.020857,230420.0557616535,0.0004732812,0.0001601303
6006,10.1002/adma.201004200,80,1(a),324,Na0.007Pb0.993Se1,Na0.007Pb0.993Se1,370,0.016579,0.0000043466,0.000045415,2.9508,-0.019669,230064.8782956794,0.0004745139,0.0001608086
6006,10.1002/adma.201004200,80,1(a),324,Na0.007Pb0.993Se1,Na0.007Pb0.993Se1,370.5,0.016564,0.0000043532,0.000045508,2.946,-0.018481,229716.0709363227,0.0004757369,0.0001614857
6006,10.1002/adma.201004200,80,1(a),324,Na0.007Pb0.993Se1,Na0.007Pb0.993Se1,371,0.016549,0.0000043599,0.000045602,2.9412,-0.017292,229363.058785752,0.0004769702,0.0001621686
6006,10.1002/adma.201004200,80,1(a),324,Na0.007Pb0.993Se1,Na0.007Pb0.993Se1,371.5,0.016534,0.0000043666,0.000045696,2.9364,-0.016104,229011.1299409151,0.0004782037,0.0001628537
6006,10.1002/adma.201004200,80,1(a),324,Na0.007Pb0.993Se1,Na0.007Pb0.993Se1,372,0.016519,0.0000043733,0.00004579,2.9316,-0.014916,228660.2794228614,0.0004794375,0.0001635412
6006,10.1002/adma.201004200,80,1(a),324,Na0.007Pb0.993Se1,Na0.007Pb0.993Se1,372.5,0.016505,0.0000043801,0.000045885,2.9269,-0.013727,228305.2898335654,0.0004806815,0.0001642289
6006,10.1002/adma.201004200,80,1(a),324,Na0.007Pb0.993Se1,Na0.007Pb0.993Se1,373,0.01649,0.0000043869,0.000045979,2.9221,-0.012539,227951.4007613577,0.0004819049,0.0001649173
6006,10.1002/adma.201004200,80,1(a),324,Na0.007Pb0.993Se1,Na0.007Pb0.993Se1,373.5,0.016475,0.0000043937,0.000046074,2.9174,-0.011351,227598.6070965246,0.0004831494,0.0001656096
6006,10.1002/adma.201004200,80,1(a),324,Na0.007Pb0.993Se1,Na0.007Pb0.993Se1,374,0.01646,0.0000044005,0.000046168,2.9127,-0.010162,227246.9037609363,0.0004843732,0.000166297
6006,10.1002/adma.201004200,80,1(a),324,Na0.007Pb0.993Se1,Na0.007Pb0.993Se1,374.5,0.016445,0.0000044074,0.000046263,2.908,-0.0089739,226891.1376321641,0.0004856072,0.0001669901
6006,10.1002/adma.201004200,80,1(a),324,Na0.007Pb0.993Se1,Na0.007Pb0.993Se1,375,0.016431,0.0000044143,0.000046358,2.9034,-0.0077856,226536.4837007,0.0004868414,0.0001676798
6006,10.1002/adma.201004200,80,1(a),324,Na0.007Pb0.993Se1,Na0.007Pb0.993Se1,375.5,0.016416,0.0000044213,0.000046454,2.8987,-0.0065973,226177.8210028724,0.0004880859,0.000168381
6006,10.1002/adma.201004200,80,1(a),324,Na0.007Pb0.993Se1,Na0.007Pb0.993Se1,376,0.016401,0.0000044282,0.000046549,2.8941,-0.0054089,225825.3918070548,0.0004893206,0.0001690752
6006,10.1002/adma.201004200,80,1(a),324,Na0.007Pb0.993Se1,Na0.007Pb0.993Se1,376.5,0.016386,0.0000044352,0.000046645,2.8895,-0.0042206,225468.9754689755,0.0004905655,0.0001697752
6006,10.1002/adma.201004200,80,1(a),324,Na0.007Pb0.993Se1,Na0.007Pb0.993Se1,377,0.016371,0.0000044422,0.000046741,2.8849,-0.0030322,225113.6824096169,0.0004918106,0.0001704775
6006,10.1002/adma.201004200,80,1(a),324,Na0.007Pb0.993Se1,Na0.007Pb0.993Se1,377.5,0.016356,0.0000044493,0.000046837,2.8803,-0.0018439,224754.4557570854,0.0004930449,0.0001711783
6006,10.1002/adma.201004200,80,1(a),324,Na0.007Pb0.993Se1,Na0.007Pb0.993Se1,378,0.016342,0.0000044564,0.000046933,2.8757,-0.00065555,224396.3737546001,0.0004942793,0.0001718814
6006,10.1002/adma.201004200,80,1(a),324,Na0.007Pb0.993Se1,Na0.007Pb0.993Se1,378.5,0.016327,0.0000044635,0.000047029,2.8712,0.00053279,224039.4309398454,0.000495514,0.0001725808
6006,10.1002/adma.201004200,80,1(a),324,Na0.007Pb0.993Se1,Na0.007Pb0.993Se1,379,0.016312,0.0000044706,0.000047126,2.8666,0.0017211,223683.6218852056,0.00049677,0.0001732959
6006,10.1002/adma.201004200,80,1(a),324,Na0.007Pb0.993Se1,Na0.007Pb0.993Se1,379.5,0.016297,0.0000044778,0.000047222,2.8621,0.0029095,223323.9537272768,0.0004979939,0.000173996
6006,10.1002/adma.201004200,80,1(a),324,Na0.007Pb0.993Se1,Na0.007Pb0.993Se1,380,0.016282,0.0000044849,0.000047319,2.8576,0.0040978,222970.4118263506,0.0004992503,0.0001747097
6006,10.1002/adma.201004200,80,1(a),324,Na0.007Pb0.993Se1,Na0.007Pb0.993Se1,380.5,0.016267,0.0000044922,0.000047416,2.8531,0.0052862,222608.0762210053,0.0005004846,0.0001754178
6006,10.1002/adma.201004200,80,1(a),324,Na0.007Pb0.993Se1,Na0.007Pb0.993Se1,381,0.016253,0.0000044994,0.000047514,2.8486,0.0064745,222251.855802996,0.0005017514,0.0001761396
6006,10.1002/adma.201004200,80,1(a),324,Na0.007Pb0.993Se1,Na0.007Pb0.993Se1,381.5,0.016238,0.0000045067,0.000047611,2.8442,0.0076628,221891.8499123527,0.0005029861,0.0001768462
6006,10.1002/adma.201004200,80,1(a),324,Na0.007Pb0.993Se1,Na0.007Pb0.993Se1,382,0.016223,0.000004514,0.000047709,2.8397,0.0088512,221533.0084182543,0.0005042421,0.0001775688
6006,10.1002/adma.201004200,80,1(a),324,Na0.007Pb0.993Se1,Na0.007Pb0.993Se1,382.5,0.016208,0.0000045213,0.000047806,2.8353,0.01004,221175.325680667,0.0005054771,0.0001782799
6006,10.1002/adma.201004200,80,1(a),324,Na0.007Pb0.993Se1,Na0.007Pb0.993Se1,383,0.016193,0.0000045286,0.000047904,2.8309,0.011228,220818.7960959237,0.0005067335,0.0001790008
6006,10.1002/adma.201004200,80,1(a),324,Na0.007Pb0.993Se1,Na0.007Pb0.993Se1,383.5,0.016178,0.000004536,0.000048002,2.8265,0.012416,220458.5537918871,0.0005079788,0.0001797201
6006,10.1002/adma.201004200,80,1(a),324,Na0.007Pb0.993Se1,Na0.007Pb0.993Se1,384,0.016164,0.0000045434,0.000048101,2.8221,0.013605,220099.4849672051,0.0005092455,0.0001804491
6006,10.1002/adma.201004200,80,1(a),324,Na0.007Pb0.993Se1,Na0.007Pb0.993Se1,384.5,0.016149,0.0000045509,0.000048199,2.8177,0.014793,219736.7553670703,0.00051048,0.0001811691
6006,10.1002/adma.201004200,80,1(a),324,Na0.007Pb0.993Se1,Na0.007Pb0.993Se1,385,0.016134,0.0000045583,0.000048298,2.8134,0.015981,219380.0320294847,0.0005117471,0.0001818963
6006,10.1002/adma.201004200,80,1(a),324,Na0.007Pb0.993Se1,Na0.007Pb0.993Se1,385.5,0.016119,0.0000045658,0.000048397,2.809,0.01717,219019.6679661833,0.0005130031,0.0001826284
6006,10.1002/adma.201004200,80,1(a),324,Na0.007Pb0.993Se1,Na0.007Pb0.993Se1,386,0.016104,0.0000045733,0.000048496,2.8047,0.018358,218660.4858635996,0.0005142593,0.0001833563
6006,10.1002/adma.201004200,80,1(a),324,Na0.007Pb0.993Se1,Na0.007Pb0.993Se1,386.5,0.016089,0.0000045808,0.000048595,2.8004,0.019546,218302.4799161718,0.0005155156,0.0001840864
6006,10.1002/adma.201004200,80,1(a),324,Na0.007Pb0.993Se1,Na0.007Pb0.993Se1,387,0.016075,0.0000045884,0.000048694,2.7961,0.020735,217940.8944294307,0.0005167609,0.0001848149
6006,10.1002/adma.201004200,80,1(a),324,Na0.007Pb0.993Se1,Na0.007Pb0.993Se1,387.5,0.01606,0.000004596,0.000048794,2.7918,0.021923,217580.5047867711,0.0005180275,0.0001855532
6006,10.1002/adma.201004200,80,1(a),324,Na0.007Pb0.993Se1,Na0.007Pb0.993Se1,388,0.016045,0.0000046036,0.000048894,2.7876,0.023111,217221.3050656008,0.0005192943,0.0001862872
6006,10.1002/adma.201004200,80,1(a),324,Na0.007Pb0.993Se1,Na0.007Pb0.993Se1,388.5,0.01603,0.0000046112,0.000048994,2.7833,0.0243,216863.2893823734,0.0005205612,0.0001870302
6006,10.1002/adma.201004200,80,1(a),324,Na0.007Pb0.993Se1,Na0.007Pb0.993Se1,389,0.016015,0.0000046189,0.000049094,2.7791,0.025488,216501.7644893806,0.0005218171,0.0001877648
6006,10.1002/adma.201004200,80,1(a),324,Na0.007Pb0.993Se1,Na0.007Pb0.993Se1,389.5,0.016001,0.0000046266,0.000049194,2.7749,0.026676,216141.4429602732,0.000523073,0.0001885016
6006,10.1002/adma.201004200,80,1(a),324,Na0.007Pb0.993Se1,Na0.007Pb0.993Se1,390,0.015986,0.0000046343,0.000049295,2.7707,0.027865,215782.3187967978,0.0005243504,0.0001892483
6006,10.1002/adma.201004200,80,1(a),324,Na0.007Pb0.993Se1,Na0.007Pb0.993Se1,390.5,0.015971,0.0000046421,0.000049395,2.7665,0.029053,215419.745373861,0.0005255953,0.0001899857
6006,10.1002/adma.201004200,80,1(a),324,Na0.007Pb0.993Se1,Na0.007Pb0.993Se1,391,0.015956,0.0000046498,0.000049496,2.7623,0.030241,215063.0134629447,0.000526873,0.0001907371
6006,10.1002/adma.201004200,80,1(a),324,Na0.007Pb0.993Se1,Na0.007Pb0.993Se1,391.5,0.015941,0.0000046576,0.000049597,2.7581,0.03143,214702.8512538646,0.0005281395,0.0001914867
6006,10.1002/adma.201004200,80,1(a),324,Na0.007Pb0.993Se1,Na0.007Pb0.993Se1,392,0.015926,0.0000046654,0.000049698,2.754,0.032618,214343.8933424787,0.0005294061,0.0001922317
6006,10.1002/adma.201004200,80,1(a),324,Na0.007Pb0.993Se1,Na0.007Pb0.993Se1,392.5,0.015912,0.0000046733,0.0000498,2.7498,0.033806,213981.5547899771,0.0005306828,0.0001929896
6006,10.1002/adma.201004200,80,1(a),324,Na0.007Pb0.993Se1,Na0.007Pb0.993Se1,393,0.015897,0.0000046811,0.000049902,2.7457,0.034995,213625.0026703125,0.000531971,0.000193747
6006,10.1002/adma.201004200,80,1(a),324,Na0.007Pb0.993Se1,Na0.007Pb0.993Se1,393.5,0.015882,0.000004689,0.000050003,2.7416,0.036183,213265.0885050117,0.0005332267,0.0001944947
6006,10.1002/adma.201004200,80,1(a),324,Na0.007Pb0.993Se1,Na0.007Pb0.993Se1,394,0.015867,0.0000046969,0.000050105,2.7375,0.037371,212906.385062488,0.0005345038,0.0001952525
6006,10.1002/adma.201004200,80,1(a),324,Na0.007Pb0.993Se1,Na0.007Pb0.993Se1,394.5,0.015852,0.0000047049,0.000050208,2.7334,0.03856,212544.368636953,0.000535791,0.0001960163
6006,10.1002/adma.201004200,80,1(a),324,Na0.007Pb0.993Se1,Na0.007Pb0.993Se1,395,0.015837,0.0000047128,0.00005031,2.7293,0.039748,212188.0835172297,0.0005370684,0.0001967788
6006,10.1002/adma.201004200,80,1(a),324,Na0.007Pb0.993Se1,Na0.007Pb0.993Se1,395.5,0.015823,0.0000047208,0.000050412,2.7253,0.040936,211828.5036434503,0.0005383346,0.0001975322
6006,10.1002/adma.201004200,80,1(a),324,Na0.007Pb0.993Se1,Na0.007Pb0.993Se1,396,0.015808,0.0000047288,0.000050515,2.7212,0.042125,211470.1404161732,0.0005396222,0.000198303
6006,10.1002/adma.201004200,80,1(a),324,Na0.007Pb0.993Se1,Na0.007Pb0.993Se1,396.5,0.015793,0.0000047369,0.000050618,2.7172,0.043313,211108.5308957335,0.0005408985,0.0001990646
6006,10.1002/adma.201004200,80,1(a),324,Na0.007Pb0.993Se1,Na0.007Pb0.993Se1,397,0.015778,0.0000047449,0.000050721,2.7132,0.044501,210752.5975257645,0.0005421863,0.0001998328
6006,10.1002/adma.201004200,80,1(a),324,Na0.007Pb0.993Se1,Na0.007Pb0.993Se1,397.5,0.015763,0.000004753,0.000050825,2.7092,0.04569,210393.4357248054,0.0005434842,0.0002006069
6006,10.1002/adma.201004200,80,1(a),324,Na0.007Pb0.993Se1,Na0.007Pb0.993Se1,398,0.015748,0.0000047611,0.000050928,2.7052,0.046878,210035.4959988238,0.0005447609,0.0002013755
6006,10.1002/adma.201004200,80,1(a),324,Na0.007Pb0.993Se1,Na0.007Pb0.993Se1,398.5,0.015734,0.0000047693,0.000051032,2.7012,0.048066,209674.3756945464,0.0005460476,0.00020215
6006,10.1002/adma.201004200,80,1(a),324,Na0.007Pb0.993Se1,Na0.007Pb0.993Se1,399,0.015719,0.0000047774,0.000051136,2.6972,0.049255,209318.8763762716,0.0005473459,0.0002029312
6006,10.1002/adma.201004200,80,1(a),324,Na0.007Pb0.993Se1,Na0.007Pb0.993Se1,399.5,0.015704,0.0000047856,0.00005124,2.6933,0.050443,208960.2139752591,0.0005486329,0.0002037029
6006,10.1002/adma.201004200,80,1(a),324,Na0.007Pb0.993Se1,Na0.007Pb0.993Se1,400,0.015689,0.0000047938,0.000051344,2.6894,0.051631,208602.7785890108,0.00054992,0.0002044768
6006,10.1002/adma.201004200,80,1(a),324,Na0.007Pb0.993Se1,Na0.007Pb0.993Se1,400.5,0.015674,0.000004802,0.000051449,2.6854,0.05282,208246.5639316951,0.0005512286,0.0002052687
6006,10.1002/adma.201004200,80,1(a),324,Na0.007Pb0.993Se1,Na0.007Pb0.993Se1,401,0.015659,0.0000048103,0.000051553,2.6815,0.054008,207887.2419599609,0.0005525044,0.000206043
6006,10.1002/adma.201004200,80,1(a),324,Na0.007Pb0.993Se1,Na0.007Pb0.993Se1,401.5,0.015645,0.0000048186,0.000051658,2.6776,0.055196,207529.1578466775,0.0005538017,0.0002068277
6006,10.1002/adma.201004200,80,1(a),324,Na0.007Pb0.993Se1,Na0.007Pb0.993Se1,402,0.01563,0.0000048269,0.000051763,2.6737,0.056385,207172.30520624,0.0005550992,0.0002076146
6006,10.1002/adma.201004200,80,1(a),324,Na0.007Pb0.993Se1,Na0.007Pb0.993Se1,402.5,0.015615,0.0000048352,0.000051869,2.6698,0.057573,206816.6776968895,0.0005564182,0.0002084119
6006,10.1002/adma.201004200,80,1(a),324,Na0.007Pb0.993Se1,Na0.007Pb0.993Se1,403,0.0156,0.0000048435,0.000051974,2.666,0.058762,206462.2690203365,0.0005577158,0.0002091957
6006,10.1002/adma.201004200,80,1(a),324,Na0.007Pb0.993Se1,Na0.007Pb0.993Se1,403.5,0.015585,0.0000048519,0.00005208,2.6621,0.05995,206104.8249139512,0.0005590236,0.0002099934
6006,10.1002/adma.201004200,80,1(a),324,Na0.007Pb0.993Se1,Na0.007Pb0.993Se1,404,0.01557,0.0000048603,0.000052186,2.6583,0.061138,205748.6163405551,0.0005603314,0.0002107856
6006,10.1002/adma.201004200,80,1(a),324,Na0.007Pb0.993Se1,Na0.007Pb0.993Se1,404.5,0.015556,0.0000048687,0.000052292,2.6545,0.062327,205393.6369051287,0.0005616393,0.0002115801
6006,10.1002/adma.201004200,80,1(a),324,Na0.007Pb0.993Se1,Na0.007Pb0.993Se1,405,0.015541,0.0000048771,0.000052398,2.6506,0.063515,205039.8802567099,0.0005629473,0.0002123849
6006,10.1002/adma.201004200,80,1(a),324,Na0.007Pb0.993Se1,Na0.007Pb0.993Se1,405.5,0.015526,0.0000048856,0.000052505,2.6468,0.064703,204683.1504830522,0.0005642654,0.0002131878
6006,10.1002/adma.201004200,80,1(a),324,Na0.007Pb0.993Se1,Na0.007Pb0.993Se1,406,0.015511,0.0000048941,0.000052611,2.643,0.065892,204327.6598353119,0.0005655621,0.0002139849
6006,10.1002/adma.201004200,80,1(a),324,Na0.007Pb0.993Se1,Na0.007Pb0.993Se1,406.5,0.015496,0.0000049026,0.000052718,2.6393,0.06708,203973.4018683964,0.0005668803,0.0002147843
6006,10.1002/adma.201004200,80,1(a),324,Na0.007Pb0.993Se1,Na0.007Pb0.993Se1,407,0.015482,0.0000049111,0.000052825,2.6355,0.068268,203620.370181833,0.0005681987,0.0002155943
6006,10.1002/adma.201004200,80,1(a),324,Na0.007Pb0.993Se1,Na0.007Pb0.993Se1,407.5,0.015467,0.0000049197,0.000052932,2.6317,0.069457,203264.4266926845,0.0005695056,0.0002164022
6006,10.1002/adma.201004200,80,1(a),324,Na0.007Pb0.993Se1,Na0.007Pb0.993Se1,408,0.015452,0.0000049282,0.00005304,2.628,0.070645,202913.8427823546,0.0005708457,0.0002172168