sid,DOI,figureid,fignum,sampleid,samplename,composition,Temperature,Carrier mobility,Electrical resistivity,Seebeck coefficient,Thermal conductivity,ZT,Electrical conductivity,Power factor,Figure of merit Z
6006,10.1002/adma.201004200,80,1(a),73,Na0.005Pb0.995Se1,Na0.005Pb0.995Se1,317,0.022321,0.0000041527,0.000044538,3.3473,-0.042649,240807.1856864209,0.0004776732,0.000142704
6006,10.1002/adma.201004200,80,1(a),73,Na0.005Pb0.995Se1,Na0.005Pb0.995Se1,317.5,0.022302,0.0000041548,0.000044647,3.34,-0.041629,240685.4722248965,0.0004797715,0.0001436442
6006,10.1002/adma.201004200,80,1(a),73,Na0.005Pb0.995Se1,Na0.005Pb0.995Se1,318,0.022283,0.000004157,0.000044756,3.3327,-0.04061,240558.0947798893,0.0004818618,0.000144586
6006,10.1002/adma.201004200,80,1(a),73,Na0.005Pb0.995Se1,Na0.005Pb0.995Se1,318.5,0.022264,0.0000041593,0.000044865,3.3255,-0.039591,240425.0715264588,0.000483944,0.0001455252
6006,10.1002/adma.201004200,80,1(a),73,Na0.005Pb0.995Se1,Na0.005Pb0.995Se1,319,0.022245,0.0000041617,0.000044974,3.3183,-0.038572,240286.4214143259,0.0004860179,0.0001464659
6006,10.1002/adma.201004200,80,1(a),73,Na0.005Pb0.995Se1,Na0.005Pb0.995Se1,319.5,0.022226,0.0000041641,0.000045084,3.3111,-0.037552,240147.9311255734,0.0004881168,0.0001474183
6006,10.1002/adma.201004200,80,1(a),73,Na0.005Pb0.995Se1,Na0.005Pb0.995Se1,320,0.022207,0.0000041667,0.000045194,3.3039,-0.036533,239998.0800153599,0.0004901955,0.0001483687
6006,10.1002/adma.201004200,80,1(a),73,Na0.005Pb0.995Se1,Na0.005Pb0.995Se1,320.5,0.022188,0.0000041692,0.000045304,3.2968,-0.035514,239854.1686654514,0.0004922893,0.0001493234
6006,10.1002/adma.201004200,80,1(a),73,Na0.005Pb0.995Se1,Na0.005Pb0.995Se1,321,0.022169,0.0000041719,0.000045414,3.2897,-0.034495,239698.9381337041,0.0004943626,0.0001502759
6006,10.1002/adma.201004200,80,1(a),73,Na0.005Pb0.995Se1,Na0.005Pb0.995Se1,321.5,0.02215,0.0000041747,0.000045525,3.2827,-0.033476,239538.1704074544,0.000496449,0.0001512319
6006,10.1002/adma.201004200,80,1(a),73,Na0.005Pb0.995Se1,Na0.005Pb0.995Se1,322,0.022131,0.0000041775,0.000045635,3.2756,-0.032456,239377.618192699,0.0004985166,0.0001521909
6006,10.1002/adma.201004200,80,1(a),73,Na0.005Pb0.995Se1,Na0.005Pb0.995Se1,322.5,0.022112,0.0000041804,0.000045746,3.2686,-0.031437,239211.5587025165,0.0005005972,0.0001531534
6006,10.1002/adma.201004200,80,1(a),73,Na0.005Pb0.995Se1,Na0.005Pb0.995Se1,323,0.022093,0.0000041834,0.000045858,3.2616,-0.030418,239040.015298561,0.0005026907,0.0001541239
6006,10.1002/adma.201004200,80,1(a),73,Na0.005Pb0.995Se1,Na0.005Pb0.995Se1,323.5,0.022074,0.0000041864,0.000045969,3.2547,-0.029399,238868.7177527231,0.0005047652,0.0001550881
6006,10.1002/adma.201004200,80,1(a),73,Na0.005Pb0.995Se1,Na0.005Pb0.995Se1,324,0.022055,0.0000041895,0.000046081,3.2478,-0.028379,238691.9680152763,0.0005068525,0.0001560603
6006,10.1002/adma.201004200,80,1(a),73,Na0.005Pb0.995Se1,Na0.005Pb0.995Se1,324.5,0.022036,0.0000041927,0.000046193,3.2409,-0.02736,238509.7908269135,0.0005089306,0.0001570337
6006,10.1002/adma.201004200,80,1(a),73,Na0.005Pb0.995Se1,Na0.005Pb0.995Se1,325,0.022018,0.000004196,0.000046305,3.234,-0.026341,238322.2116301239,0.0005109993,0.0001580084
6006,10.1002/adma.201004200,80,1(a),73,Na0.005Pb0.995Se1,Na0.005Pb0.995Se1,325.5,0.021999,0.0000041993,0.000046417,3.2272,-0.025322,238134.9272497798,0.0005130707,0.0001589832
6006,10.1002/adma.201004200,80,1(a),73,Na0.005Pb0.995Se1,Na0.005Pb0.995Se1,326,0.02198,0.0000042028,0.00004653,3.2204,-0.024303,237936.613686114,0.0005151425,0.0001599623
6006,10.1002/adma.201004200,80,1(a),73,Na0.005Pb0.995Se1,Na0.005Pb0.995Se1,326.5,0.021961,0.0000042062,0.000046642,3.2136,-0.023283,237744.2822500119,0.000517207,0.0001609432
6006,10.1002/adma.201004200,80,1(a),73,Na0.005Pb0.995Se1,Na0.005Pb0.995Se1,327,0.021942,0.0000042098,0.000046755,3.2068,-0.022264,237540.9758183287,0.0005192717,0.0001619283
6006,10.1002/adma.201004200,80,1(a),73,Na0.005Pb0.995Se1,Na0.005Pb0.995Se1,327.5,0.021923,0.0000042134,0.000046868,3.2001,-0.021245,237338.0168035316,0.0005213389,0.0001629133
6006,10.1002/adma.201004200,80,1(a),73,Na0.005Pb0.995Se1,Na0.005Pb0.995Se1,328,0.021904,0.0000042171,0.000046982,3.1934,-0.020226,237129.781129212,0.0005234185,0.0001639064
6006,10.1002/adma.201004200,80,1(a),73,Na0.005Pb0.995Se1,Na0.005Pb0.995Se1,328.5,0.021885,0.0000042209,0.000047095,3.1868,-0.019206,236916.2974721031,0.0005254659,0.0001648883
6006,10.1002/adma.201004200,80,1(a),73,Na0.005Pb0.995Se1,Na0.005Pb0.995Se1,329,0.021866,0.0000042247,0.000047209,3.1801,-0.018187,236703.1978602031,0.000527538,0.0001658872
6006,10.1002/adma.201004200,80,1(a),73,Na0.005Pb0.995Se1,Na0.005Pb0.995Se1,329.5,0.021847,0.0000042286,0.000047323,3.1735,-0.017168,236484.8886156175,0.0005295999,0.000166882
6006,10.1002/adma.201004200,80,1(a),73,Na0.005Pb0.995Se1,Na0.005Pb0.995Se1,330,0.021828,0.0000042326,0.000047437,3.1669,-0.016149,236261.3996125313,0.0005316517,0.0001678776
6006,10.1002/adma.201004200,80,1(a),73,Na0.005Pb0.995Se1,Na0.005Pb0.995Se1,330.5,0.021809,0.0000042366,0.000047552,3.1604,-0.01513,236038.3326252183,0.0005337282,0.0001688799
6006,10.1002/adma.201004200,80,1(a),73,Na0.005Pb0.995Se1,Na0.005Pb0.995Se1,331,0.02179,0.0000042407,0.000047666,3.1538,-0.01411,235810.125686797,0.0005357718,0.0001698814
6006,10.1002/adma.201004200,80,1(a),73,Na0.005Pb0.995Se1,Na0.005Pb0.995Se1,331.5,0.021771,0.0000042449,0.000047781,3.1473,-0.013091,235576.8098188415,0.0005378275,0.0001708854
6006,10.1002/adma.201004200,80,1(a),73,Na0.005Pb0.995Se1,Na0.005Pb0.995Se1,332,0.021752,0.0000042492,0.000047896,3.1409,-0.012072,235338.4166431328,0.0005398726,0.0001718847
6006,10.1002/adma.201004200,80,1(a),73,Na0.005Pb0.995Se1,Na0.005Pb0.995Se1,332.5,0.021733,0.0000042535,0.000048011,3.1344,-0.011053,235100.5054660868,0.0005419199,0.0001728943
6006,10.1002/adma.201004200,80,1(a),73,Na0.005Pb0.995Se1,Na0.005Pb0.995Se1,333,0.021714,0.0000042578,0.000048126,3.128,-0.010033,234863.0748273756,0.0005439692,0.0001739032
6006,10.1002/adma.201004200,80,1(a),73,Na0.005Pb0.995Se1,Na0.005Pb0.995Se1,333.5,0.021695,0.0000042623,0.000048242,3.1216,-0.0090143,234615.1139056378,0.0005460175,0.0001749159
6006,10.1002/adma.201004200,80,1(a),73,Na0.005Pb0.995Se1,Na0.005Pb0.995Se1,334,0.021677,0.0000042668,0.000048357,3.1152,-0.0079951,234367.6760101247,0.0005480452,0.0001759262
6006,10.1002/adma.201004200,80,1(a),73,Na0.005Pb0.995Se1,Na0.005Pb0.995Se1,334.5,0.021658,0.0000042714,0.000048473,3.1089,-0.0069758,234115.278363066,0.0005500847,0.0001769387
6006,10.1002/adma.201004200,80,1(a),73,Na0.005Pb0.995Se1,Na0.005Pb0.995Se1,335,0.021639,0.000004276,0.000048589,3.1025,-0.0059566,233863.4237605238,0.000552126,0.0001779617
6006,10.1002/adma.201004200,80,1(a),73,Na0.005Pb0.995Se1,Na0.005Pb0.995Se1,335.5,0.02162,0.0000042807,0.000048705,3.0962,-0.0049374,233606.6531174808,0.0005541563,0.0001789795
6006,10.1002/adma.201004200,80,1(a),73,Na0.005Pb0.995Se1,Na0.005Pb0.995Se1,336,0.021601,0.0000042855,0.000048822,3.09,-0.0039182,233345.0005833625,0.0005561983,0.0001799994
6006,10.1002/adma.201004200,80,1(a),73,Na0.005Pb0.995Se1,Na0.005Pb0.995Se1,336.5,0.021582,0.0000042903,0.000048938,3.0837,-0.0028989,233083.9335244621,0.0005582192,0.0001810225
6006,10.1002/adma.201004200,80,1(a),73,Na0.005Pb0.995Se1,Na0.005Pb0.995Se1,337,0.021563,0.0000042952,0.000049055,3.0775,-0.0018797,232818.0294281989,0.0005602517,0.0001820477
6006,10.1002/adma.201004200,80,1(a),73,Na0.005Pb0.995Se1,Na0.005Pb0.995Se1,337.5,0.021544,0.0000043002,0.000049172,3.0713,-0.0008605,232547.3233803079,0.0005622728,0.0001830732
6006,10.1002/adma.201004200,80,1(a),73,Na0.005Pb0.995Se1,Na0.005Pb0.995Se1,338,0.021525,0.0000043052,0.000049289,3.0651,0.00015873,232277.24612097,0.0005642956,0.0001841035
6006,10.1002/adma.201004200,80,1(a),73,Na0.005Pb0.995Se1,Na0.005Pb0.995Se1,338.5,0.021506,0.0000043103,0.000049406,3.059,0.0011779,232002.4128250934,0.0005663069,0.0001851281
6006,10.1002/adma.201004200,80,1(a),73,Na0.005Pb0.995Se1,Na0.005Pb0.995Se1,339,0.021487,0.0000043154,0.000049523,3.0529,0.0021972,231728.2291328729,0.0005683199,0.0001861574
6006,10.1002/adma.201004200,80,1(a),73,Na0.005Pb0.995Se1,Na0.005Pb0.995Se1,339.5,0.021468,0.0000043206,0.000049641,3.0468,0.0032164,231449.3357404064,0.0005703441,0.0001871945
6006,10.1002/adma.201004200,80,1(a),73,Na0.005Pb0.995Se1,Na0.005Pb0.995Se1,340,0.021449,0.0000043259,0.000049758,3.0407,0.0042356,231165.7689729305,0.0005723337,0.0001882243
6006,10.1002/adma.201004200,80,1(a),73,Na0.005Pb0.995Se1,Na0.005Pb0.995Se1,340.5,0.02143,0.0000043312,0.000049876,3.0347,0.0052548,230882.8961950499,0.0005743478,0.0001892602
6006,10.1002/adma.201004200,80,1(a),73,Na0.005Pb0.995Se1,Na0.005Pb0.995Se1,341,0.021411,0.0000043366,0.000049994,3.0287,0.0062741,230595.3973158696,0.0005763501,0.0001902962
6006,10.1002/adma.201004200,80,1(a),73,Na0.005Pb0.995Se1,Na0.005Pb0.995Se1,341.5,0.021392,0.000004342,0.000050112,3.0227,0.0072933,230308.6135421465,0.0005783539,0.0001913368
6006,10.1002/adma.201004200,80,1(a),73,Na0.005Pb0.995Se1,Na0.005Pb0.995Se1,342,0.021373,0.0000043475,0.000050231,3.0167,0.0083125,230017.251293847,0.0005803688,0.0001923853
6006,10.1002/adma.201004200,80,1(a),73,Na0.005Pb0.995Se1,Na0.005Pb0.995Se1,342.5,0.021354,0.0000043531,0.000050349,3.0108,0.0093317,229721.3480048701,0.0005823486,0.0001934199
6006,10.1002/adma.201004200,80,1(a),73,Na0.005Pb0.995Se1,Na0.005Pb0.995Se1,343,0.021335,0.0000043587,0.000050468,3.0048,0.010351,229426.2050611421,0.0005843529,0.0001944731
6006,10.1002/adma.201004200,80,1(a),73,Na0.005Pb0.995Se1,Na0.005Pb0.995Se1,343.5,0.021317,0.0000043644,0.000050586,2.9989,0.01137,229126.5695170012,0.0005863219,0.0001955123
6006,10.1002/adma.201004200,80,1(a),73,Na0.005Pb0.995Se1,Na0.005Pb0.995Se1,344,0.021298,0.0000043702,0.000050705,2.9931,0.012389,228822.4795203881,0.0005883019,0.0001965527
6006,10.1002/adma.201004200,80,1(a),73,Na0.005Pb0.995Se1,Na0.005Pb0.995Se1,344.5,0.021279,0.000004376,0.000050824,2.9872,0.013409,228519.1956124314,0.0005902831,0.0001976042
6006,10.1002/adma.201004200,80,1(a),73,Na0.005Pb0.995Se1,Na0.005Pb0.995Se1,345,0.02126,0.0000043818,0.000050944,2.9814,0.014428,228216.7145921767,0.0005922888,0.0001986613
6006,10.1002/adma.201004200,80,1(a),73,Na0.005Pb0.995Se1,Na0.005Pb0.995Se1,345.5,0.021241,0.0000043877,0.000051063,2.9756,0.015447,227909.8388677439,0.0005942589,0.0001997106
6006,10.1002/adma.201004200,80,1(a),73,Na0.005Pb0.995Se1,Na0.005Pb0.995Se1,346,0.021222,0.0000043937,0.000051182,2.9698,0.016466,227598.6070965246,0.0005962167,0.0002007599
6006,10.1002/adma.201004200,80,1(a),73,Na0.005Pb0.995Se1,Na0.005Pb0.995Se1,346.5,0.021203,0.0000043997,0.000051302,2.964,0.017486,227288.2241971043,0.0005981988,0.0002018215
6006,10.1002/adma.201004200,80,1(a),73,Na0.005Pb0.995Se1,Na0.005Pb0.995Se1,347,0.021184,0.0000044058,0.000051422,2.9583,0.018505,226973.5348858323,0.0006001684,0.0002028761
6006,10.1002/adma.201004200,80,1(a),73,Na0.005Pb0.995Se1,Na0.005Pb0.995Se1,347.5,0.021165,0.000004412,0.000051542,2.9526,0.019524,226654.5784224841,0.0006021255,0.0002039306
6006,10.1002/adma.201004200,80,1(a),73,Na0.005Pb0.995Se1,Na0.005Pb0.995Se1,348,0.021146,0.0000044182,0.000051662,2.9469,0.020543,226336.5171336743,0.0006040836,0.0002049895
6006,10.1002/adma.201004200,80,1(a),73,Na0.005Pb0.995Se1,Na0.005Pb0.995Se1,348.5,0.021127,0.0000044244,0.000051782,2.9412,0.021562,226019.3472561251,0.0006060427,0.0002060529
6006,10.1002/adma.201004200,80,1(a),73,Na0.005Pb0.995Se1,Na0.005Pb0.995Se1,349,0.021108,0.0000044307,0.000051902,2.9356,0.022582,225697.970975241,0.0006079892,0.000207109
6006,10.1002/adma.201004200,80,1(a),73,Na0.005Pb0.995Se1,Na0.005Pb0.995Se1,349.5,0.021089,0.0000044371,0.000052023,2.93,0.023601,225372.4279371662,0.0006099463,0.0002081728
6006,10.1002/adma.201004200,80,1(a),73,Na0.005Pb0.995Se1,Na0.005Pb0.995Se1,350,0.02107,0.0000044435,0.000052143,2.9244,0.02462,225047.8226623157,0.0006118808,0.0002092329
6006,10.1002/adma.201004200,80,1(a),73,Na0.005Pb0.995Se1,Na0.005Pb0.995Se1,350.5,0.021051,0.00000445,0.000052264,2.9188,0.025639,224719.1011235955,0.000613826,0.0002103008
6006,10.1002/adma.201004200,80,1(a),73,Na0.005Pb0.995Se1,Na0.005Pb0.995Se1,351,0.021032,0.0000044565,0.000052385,2.9133,0.026659,224391.3384943341,0.0006157721,0.0002113658
6006,10.1002/adma.201004200,80,1(a),73,Na0.005Pb0.995Se1,Na0.005Pb0.995Se1,351.5,0.021013,0.0000044631,0.000052506,2.9077,0.027678,224059.5102059107,0.0006177052,0.0002124377
6006,10.1002/adma.201004200,80,1(a),73,Na0.005Pb0.995Se1,Na0.005Pb0.995Se1,352,0.020994,0.0000044697,0.000052627,2.9022,0.028697,223728.6618788733,0.0006196392,0.0002135067
6006,10.1002/adma.201004200,80,1(a),73,Na0.005Pb0.995Se1,Na0.005Pb0.995Se1,352.5,0.020976,0.0000044764,0.000052748,2.8968,0.029716,223393.7985881512,0.0006215601,0.0002145678
6006,10.1002/adma.201004200,80,1(a),73,Na0.005Pb0.995Se1,Na0.005Pb0.995Se1,353,0.020957,0.0000044831,0.000052869,2.8913,0.030735,223059.9362048582,0.0006234818,0.0002156406
6006,10.1002/adma.201004200,80,1(a),73,Na0.005Pb0.995Se1,Na0.005Pb0.995Se1,353.5,0.020938,0.0000044899,0.000052991,2.8858,0.031755,222722.1096238224,0.0006254139,0.0002167212
6006,10.1002/adma.201004200,80,1(a),73,Na0.005Pb0.995Se1,Na0.005Pb0.995Se1,354,0.020919,0.0000044968,0.000053112,2.8804,0.032774,222380.3593666607,0.0006273093,0.0002177855
6006,10.1002/adma.201004200,80,1(a),73,Na0.005Pb0.995Se1,Na0.005Pb0.995Se1,354.5,0.0209,0.0000045037,0.000053234,2.875,0.033793,222039.6562826121,0.000629229,0.0002188623
6006,10.1002/adma.201004200,80,1(a),73,Na0.005Pb0.995Se1,Na0.005Pb0.995Se1,355,0.020881,0.0000045106,0.000053356,2.8697,0.034812,221699.9955660001,0.0006311495,0.0002199357
6006,10.1002/adma.201004200,80,1(a),73,Na0.005Pb0.995Se1,Na0.005Pb0.995Se1,355.5,0.020862,0.0000045176,0.000053478,2.8643,0.035832,221356.4724632548,0.0006330566,0.0002210162
6006,10.1002/adma.201004200,80,1(a),73,Na0.005Pb0.995Se1,Na0.005Pb0.995Se1,356,0.020843,0.0000045247,0.0000536,2.859,0.036851,221009.1276769731,0.0006349504,0.0002220883
6006,10.1002/adma.201004200,80,1(a),73,Na0.005Pb0.995Se1,Na0.005Pb0.995Se1,356.5,0.020824,0.0000045317,0.000053722,2.8537,0.03787,220667.7405830042,0.0006368589,0.0002231695
6006,10.1002/adma.201004200,80,1(a),73,Na0.005Pb0.995Se1,Na0.005Pb0.995Se1,357,0.020805,0.0000045389,0.000053844,2.8484,0.038889,220317.69812069,0.0006387399,0.0002242451
6006,10.1002/adma.201004200,80,1(a),73,Na0.005Pb0.995Se1,Na0.005Pb0.995Se1,357.5,0.020786,0.0000045461,0.000053967,2.8431,0.039908,219968.7644354501,0.0006406452,0.0002253333
6006,10.1002/adma.201004200,80,1(a),73,Na0.005Pb0.995Se1,Na0.005Pb0.995Se1,358,0.020767,0.0000045533,0.000054089,2.8379,0.040928,219620.9342674544,0.0006425274,0.0002264095
6006,10.1002/adma.201004200,80,1(a),73,Na0.005Pb0.995Se1,Na0.005Pb0.995Se1,358.5,0.020748,0.0000045606,0.000054212,2.8326,0.041947,219269.3943779327,0.0006444198,0.0002275012
6006,10.1002/adma.201004200,80,1(a),73,Na0.005Pb0.995Se1,Na0.005Pb0.995Se1,359,0.020729,0.000004568,0.000054335,2.8274,0.042966,218914.1856392294,0.0006462986,0.0002285841
6006,10.1002/adma.201004200,80,1(a),73,Na0.005Pb0.995Se1,Na0.005Pb0.995Se1,359.5,0.02071,0.0000045754,0.000054457,2.8222,0.043985,218560.1258906325,0.0006481542,0.0002296628
6006,10.1002/adma.201004200,80,1(a),73,Na0.005Pb0.995Se1,Na0.005Pb0.995Se1,360,0.020691,0.0000045828,0.00005458,2.8171,0.045005,218207.2095662041,0.0006500341,0.0002307458
6006,10.1002/adma.201004200,80,1(a),73,Na0.005Pb0.995Se1,Na0.005Pb0.995Se1,360.5,0.020672,0.0000045903,0.000054703,2.8119,0.046024,217850.6851404048,0.0006519004,0.0002318363
6006,10.1002/adma.201004200,80,1(a),73,Na0.005Pb0.995Se1,Na0.005Pb0.995Se1,361,0.020653,0.0000045978,0.000054827,2.8068,0.047043,217495.3238505372,0.0006537909,0.0002329311
6006,10.1002/adma.201004200,80,1(a),73,Na0.005Pb0.995Se1,Na0.005Pb0.995Se1,361.5,0.020634,0.0000046054,0.00005495,2.8017,0.048062,217136.4050896773,0.0006556439,0.0002340165
6006,10.1002/adma.201004200,80,1(a),73,Na0.005Pb0.995Se1,Na0.005Pb0.995Se1,362,0.020616,0.0000046131,0.000055073,2.7966,0.049081,216773.9697817086,0.0006574831,0.0002351009
6006,10.1002/adma.201004200,80,1(a),73,Na0.005Pb0.995Se1,Na0.005Pb0.995Se1,362.5,0.020597,0.0000046207,0.000055197,2.7915,0.050101,216417.425931136,0.0006593609,0.0002362031
6006,10.1002/adma.201004200,80,1(a),73,Na0.005Pb0.995Se1,Na0.005Pb0.995Se1,363,0.020578,0.0000046285,0.00005532,2.7865,0.05112,216052.7168629146,0.0006611866,0.0002372821
6006,10.1002/adma.201004200,80,1(a),73,Na0.005Pb0.995Se1,Na0.005Pb0.995Se1,363.5,0.020559,0.0000046363,0.000055444,2.7815,0.052139,215689.2349502836,0.0006630367,0.0002383738
6006,10.1002/adma.201004200,80,1(a),73,Na0.005Pb0.995Se1,Na0.005Pb0.995Se1,364,0.02054,0.0000046441,0.000055568,2.7765,0.053158,215326.9740100342,0.0006648872,0.0002394695
6006,10.1002/adma.201004200,80,1(a),73,Na0.005Pb0.995Se1,Na0.005Pb0.995Se1,364.5,0.020521,0.0000046519,0.000055691,2.7715,0.054177,214965.9279004278,0.0006667141,0.0002405608
6006,10.1002/adma.201004200,80,1(a),73,Na0.005Pb0.995Se1,Na0.005Pb0.995Se1,365,0.020502,0.0000046599,0.000055815,2.7665,0.055197,214596.8797613683,0.0006685367,0.0002416543
6006,10.1002/adma.201004200,80,1(a),73,Na0.005Pb0.995Se1,Na0.005Pb0.995Se1,365.5,0.020483,0.0000046678,0.000055939,2.7616,0.056216,214233.6861048031,0.000670374,0.0002427484
6006,10.1002/adma.201004200,80,1(a),73,Na0.005Pb0.995Se1,Na0.005Pb0.995Se1,366,0.020464,0.0000046758,0.000056064,2.7567,0.057235,213867.1457290731,0.0006722212,0.00024385
6006,10.1002/adma.201004200,80,1(a),73,Na0.005Pb0.995Se1,Na0.005Pb0.995Se1,366.5,0.020445,0.0000046839,0.000056188,2.7517,0.058254,213497.2992591644,0.0006740305,0.0002449506
6006,10.1002/adma.201004200,80,1(a),73,Na0.005Pb0.995Se1,Na0.005Pb0.995Se1,367,0.020426,0.000004692,0.000056312,2.7469,0.059274,213128.7297527707,0.00067584,0.0002460374
6006,10.1002/adma.201004200,80,1(a),73,Na0.005Pb0.995Se1,Na0.005Pb0.995Se1,367.5,0.020407,0.0000047001,0.000056437,2.742,0.060293,212761.4306078594,0.0006776739,0.0002471458
6006,10.1002/adma.201004200,80,1(a),73,Na0.005Pb0.995Se1,Na0.005Pb0.995Se1,368,0.020388,0.0000047083,0.000056561,2.7371,0.061312,212390.8841832508,0.0006794696,0.0002482443
6006,10.1002/adma.201004200,80,1(a),73,Na0.005Pb0.995Se1,Na0.005Pb0.995Se1,368.5,0.020369,0.0000047165,0.000056686,2.7323,0.062331,212021.626205873,0.0006812896,0.0002493466
6006,10.1002/adma.201004200,80,1(a),73,Na0.005Pb0.995Se1,Na0.005Pb0.995Se1,369,0.02035,0.0000047248,0.00005681,2.7275,0.06335,211649.1703352523,0.0006830715,0.0002504387
6006,10.1002/adma.201004200,80,1(a),73,Na0.005Pb0.995Se1,Na0.005Pb0.995Se1,369.5,0.020331,0.0000047331,0.000056935,2.7227,0.06437,211278.0207475017,0.0006848776,0.0002515435
6006,10.1002/adma.201004200,80,1(a),73,Na0.005Pb0.995Se1,Na0.005Pb0.995Se1,370,0.020312,0.0000047414,0.00005706,2.7179,0.065389,210908.1705825284,0.000686684,0.0002526524
6006,10.1002/adma.201004200,80,1(a),73,Na0.005Pb0.995Se1,Na0.005Pb0.995Se1,370.5,0.020293,0.0000047498,0.000057185,2.7132,0.066408,210535.1804286496,0.0006884762,0.0002537506
6006,10.1002/adma.201004200,80,1(a),73,Na0.005Pb0.995Se1,Na0.005Pb0.995Se1,371,0.020275,0.0000047583,0.00005731,2.7084,0.067427,210159.0904314566,0.0006902541,0.0002548568
6006,10.1002/adma.201004200,80,1(a),73,Na0.005Pb0.995Se1,Na0.005Pb0.995Se1,371.5,0.020256,0.0000047668,0.000057435,2.7037,0.068447,209784.3416967358,0.0006920322,0.0002559575
6006,10.1002/adma.201004200,80,1(a),73,Na0.005Pb0.995Se1,Na0.005Pb0.995Se1,372,0.020237,0.0000047753,0.00005756,2.699,0.069466,209410.9270621741,0.0006938106,0.0002570621
6006,10.1002/adma.201004200,80,1(a),73,Na0.005Pb0.995Se1,Na0.005Pb0.995Se1,372.5,0.020218,0.0000047839,0.000057686,2.6943,0.070485,209034.4697840674,0.0006955987,0.0002581742
6006,10.1002/adma.201004200,80,1(a),73,Na0.005Pb0.995Se1,Na0.005Pb0.995Se1,373,0.020199,0.0000047925,0.000057811,2.6897,0.071504,208659.3635889411,0.0006973629,0.0002592716