sid,DOI,figureid,fignum,sampleid,samplename,composition,Temperature,Carrier mobility,Electrical resistivity,Seebeck coefficient,Thermal conductivity,ZT,Electrical conductivity,Power factor,Figure of merit Z
6006,10.1002/adma.201004200,80,1(a),124,Na0.0125Pb0.9875Se1,Na0.0125Pb0.9875Se1,815.5,0.0032131,0.000016908,0.00016504,1.2701,0.8861,59143.6006624083,0.0016109653,0.0012683768
6006,10.1002/adma.201004200,80,1(a),124,Na0.0125Pb0.9875Se1,Na0.0125Pb0.9875Se1,816,0.0032052,0.000016936,0.00016522,1.269,0.88721,59045.8195559754,0.001611812,0.0012701434
6006,10.1002/adma.201004200,80,1(a),124,Na0.0125Pb0.9875Se1,Na0.0125Pb0.9875Se1,816.5,0.0031973,0.000016964,0.00016539,1.2679,0.88832,58948.3612355577,0.0016124648,0.0012717602
6006,10.1002/adma.201004200,80,1(a),124,Na0.0125Pb0.9875Se1,Na0.0125Pb0.9875Se1,817,0.0031894,0.000016992,0.00016557,1.2668,0.88943,58851.2241054614,0.0016133136,0.0012735346
6006,10.1002/adma.201004200,80,1(a),124,Na0.0125Pb0.9875Se1,Na0.0125Pb0.9875Se1,817.5,0.0031814,0.000017021,0.00016574,1.2658,0.89053,58750.9547030139,0.0016138739,0.0012749833
6006,10.1002/adma.201004200,80,1(a),124,Na0.0125Pb0.9875Se1,Na0.0125Pb0.9875Se1,818,0.0031735,0.000017049,0.00016591,1.2647,0.89164,58654.4665376268,0.0016145304,0.0012766113
6006,10.1002/adma.201004200,80,1(a),124,Na0.0125Pb0.9875Se1,Na0.0125Pb0.9875Se1,818.5,0.0031656,0.000017077,0.00016609,1.2636,0.89275,58558.2947824559,0.0016153826,0.0012783971
6006,10.1002/adma.201004200,80,1(a),124,Na0.0125Pb0.9875Se1,Na0.0125Pb0.9875Se1,819,0.0031577,0.000017106,0.00016626,1.2625,0.89386,58459.020226821,0.0016159469,0.0012799579
6006,10.1002/adma.201004200,80,1(a),124,Na0.0125Pb0.9875Se1,Na0.0125Pb0.9875Se1,819.5,0.0031498,0.000017134,0.00016643,1.2615,0.89497,58363.487802031,0.001616607,0.0012814959
6006,10.1002/adma.201004200,80,1(a),124,Na0.0125Pb0.9875Se1,Na0.0125Pb0.9875Se1,820,0.0031419,0.000017162,0.0001666,1.2604,0.89607,58268.2671017364,0.0016172684,0.001283139
6006,10.1002/adma.201004200,80,1(a),124,Na0.0125Pb0.9875Se1,Na0.0125Pb0.9875Se1,820.5,0.003134,0.000017191,0.00016677,1.2593,0.89718,58169.9726601129,0.0016178368,0.0012847112
6006,10.1002/adma.201004200,80,1(a),124,Na0.0125Pb0.9875Se1,Na0.0125Pb0.9875Se1,821,0.003126,0.000017219,0.00016694,1.2582,0.89829,58075.3818456356,0.0016185007,0.001286362
6006,10.1002/adma.201004200,80,1(a),124,Na0.0125Pb0.9875Se1,Na0.0125Pb0.9875Se1,821.5,0.0031181,0.000017247,0.00016711,1.2572,0.8994,57981.0981619992,0.0016191658,0.0012879142
6006,10.1002/adma.201004200,80,1(a),124,Na0.0125Pb0.9875Se1,Na0.0125Pb0.9875Se1,822,0.0031102,0.000017276,0.00016728,1.2561,0.9005,57883.7693910627,0.0016197383,0.0012894979
6006,10.1002/adma.201004200,80,1(a),124,Na0.0125Pb0.9875Se1,Na0.0125Pb0.9875Se1,822.5,0.0031023,0.000017304,0.00016745,1.255,0.90161,57790.1063337957,0.0016204058,0.00129116
6006,10.1002/adma.201004200,80,1(a),124,Na0.0125Pb0.9875Se1,Na0.0125Pb0.9875Se1,823,0.0030944,0.000017333,0.00016762,1.254,0.90272,57693.4171810996,0.001620981,0.0012926484
6006,10.1002/adma.201004200,80,1(a),124,Na0.0125Pb0.9875Se1,Na0.0125Pb0.9875Se1,823.5,0.0030865,0.000017362,0.00016779,1.2529,0.90383,57597.0510309872,0.0016215577,0.0012942435
6006,10.1002/adma.201004200,80,1(a),124,Na0.0125Pb0.9875Se1,Na0.0125Pb0.9875Se1,824,0.0030786,0.00001739,0.00016795,1.2518,0.90493,57504.3128234618,0.0016220358,0.0012957627
6006,10.1002/adma.201004200,80,1(a),124,Na0.0125Pb0.9875Se1,Na0.0125Pb0.9875Se1,824.5,0.0030706,0.000017419,0.00016812,1.2507,0.90604,57408.5768413801,0.0016226152,0.0012973656
6006,10.1002/adma.201004200,80,1(a),124,Na0.0125Pb0.9875Se1,Na0.0125Pb0.9875Se1,825,0.0030627,0.000017447,0.00016829,1.2497,0.90715,57316.4440878088,0.0016232891,0.001298943
6006,10.1002/adma.201004200,80,1(a),124,Na0.0125Pb0.9875Se1,Na0.0125Pb0.9875Se1,825.5,0.0030548,0.000017476,0.00016845,1.2486,0.90826,57221.3321126116,0.0016236783,0.0013003991
6006,10.1002/adma.201004200,80,1(a),124,Na0.0125Pb0.9875Se1,Na0.0125Pb0.9875Se1,826,0.0030469,0.000017505,0.00016862,1.2475,0.90936,57126.5352756355,0.0016242619,0.0013020135
6006,10.1002/adma.201004200,80,1(a),124,Na0.0125Pb0.9875Se1,Na0.0125Pb0.9875Se1,826.5,0.003039,0.000017533,0.00016878,1.2465,0.91047,57035.3048537044,0.001624747,0.0013034472
6006,10.1002/adma.201004200,80,1(a),124,Na0.0125Pb0.9875Se1,Na0.0125Pb0.9875Se1,827,0.0030311,0.000017562,0.00016894,1.2454,0.91158,56941.1228789432,0.0016251408,0.0013049148
6006,10.1002/adma.201004200,80,1(a),124,Na0.0125Pb0.9875Se1,Na0.0125Pb0.9875Se1,827.5,0.0030232,0.000017591,0.00016911,1.2443,0.91269,56847.2514353931,0.0016257286,0.0013065407
6006,10.1002/adma.201004200,80,1(a),124,Na0.0125Pb0.9875Se1,Na0.0125Pb0.9875Se1,828,0.0030152,0.000017619,0.00016927,1.2433,0.91379,56756.9101538112,0.0016262179,0.0013079851
6006,10.1002/adma.201004200,80,1(a),124,Na0.0125Pb0.9875Se1,Na0.0125Pb0.9875Se1,828.5,0.0030073,0.000017648,0.00016943,1.2422,0.9149,56663.644605621,0.0016266163,0.0013094641
6006,10.1002/adma.201004200,80,1(a),124,Na0.0125Pb0.9875Se1,Na0.0125Pb0.9875Se1,829,0.0029994,0.000017677,0.00016959,1.2411,0.91601,56570.6850709962,0.0016270164,0.001310947
6006,10.1002/adma.201004200,80,1(a),124,Na0.0125Pb0.9875Se1,Na0.0125Pb0.9875Se1,829.5,0.0029915,0.000017706,0.00016975,1.2401,0.91712,56478.030046312,0.001627418,0.001312328
6006,10.1002/adma.201004200,80,1(a),124,Na0.0125Pb0.9875Se1,Na0.0125Pb0.9875Se1,830,0.0029836,0.000017735,0.00016991,1.239,0.91823,56385.6780377784,0.0016278212,0.0013138185
6006,10.1002/adma.201004200,80,1(a),124,Na0.0125Pb0.9875Se1,Na0.0125Pb0.9875Se1,830.5,0.0029757,0.000017764,0.00017007,1.2379,0.91933,56293.6275613601,0.0016282259,0.0013153129
6006,10.1002/adma.201004200,80,1(a),124,Na0.0125Pb0.9875Se1,Na0.0125Pb0.9875Se1,831,0.0029678,0.000017793,0.00017023,1.2369,0.92044,56201.8771426966,0.0016286322,0.0013167048
6006,10.1002/adma.201004200,80,1(a),124,Na0.0125Pb0.9875Se1,Na0.0125Pb0.9875Se1,831.5,0.0029598,0.000017821,0.00017039,1.2358,0.92155,56113.57387352,0.0016291315,0.0013182809
6006,10.1002/adma.201004200,80,1(a),124,Na0.0125Pb0.9875Se1,Na0.0125Pb0.9875Se1,832,0.0029519,0.00001785,0.00017055,1.2347,0.92266,56022.4089635854,0.0016295408,0.0013197868
6006,10.1002/adma.201004200,80,1(a),124,Na0.0125Pb0.9875Se1,Na0.0125Pb0.9875Se1,832.5,0.002944,0.000017879,0.0001707,1.2337,0.92376,55931.5397952906,0.0016297606,0.0013210348
6006,10.1002/adma.201004200,80,1(a),124,Na0.0125Pb0.9875Se1,Na0.0125Pb0.9875Se1,833,0.0029361,0.000017908,0.00017086,1.2326,0.92487,55840.964931874,0.0016301731,0.0013225483
6006,10.1002/adma.201004200,80,1(a),124,Na0.0125Pb0.9875Se1,Na0.0125Pb0.9875Se1,833.5,0.0029282,0.000017937,0.00017102,1.2315,0.92598,55750.6829458661,0.0016305871,0.0013240658
6006,10.1002/adma.201004200,80,1(a),124,Na0.0125Pb0.9875Se1,Na0.0125Pb0.9875Se1,834,0.0029203,0.000017966,0.00017117,1.2305,0.92709,55660.6924190137,0.001630812,0.0013253247
6006,10.1002/adma.201004200,80,1(a),124,Na0.0125Pb0.9875Se1,Na0.0125Pb0.9875Se1,834.5,0.0029124,0.000017995,0.00017133,1.2294,0.92819,55570.9919422062,0.0016312292,0.0013268498
6006,10.1002/adma.201004200,80,1(a),124,Na0.0125Pb0.9875Se1,Na0.0125Pb0.9875Se1,835,0.0029044,0.000018025,0.00017148,1.2284,0.9293,55478.5020804438,0.001631367,0.0013280422
6006,10.1002/adma.201004200,80,1(a),124,Na0.0125Pb0.9875Se1,Na0.0125Pb0.9875Se1,835.5,0.0028965,0.000018054,0.00017163,1.2273,0.93041,55389.3873933754,0.0016315973,0.0013294201
6006,10.1002/adma.201004200,80,1(a),124,Na0.0125Pb0.9875Se1,Na0.0125Pb0.9875Se1,836,0.0028886,0.000018083,0.00017178,1.2262,0.93152,55300.5585356412,0.0016318293,0.0013308019
6006,10.1002/adma.201004200,80,1(a),124,Na0.0125Pb0.9875Se1,Na0.0125Pb0.9875Se1,836.5,0.0028807,0.000018112,0.00017194,1.2252,0.93262,55212.0141342756,0.0016322528,0.0013322338
6006,10.1002/adma.201004200,80,1(a),124,Na0.0125Pb0.9875Se1,Na0.0125Pb0.9875Se1,837,0.0028728,0.000018141,0.00017209,1.2241,0.93373,55123.7528250923,0.0016324882,0.0013336232
6006,10.1002/adma.201004200,80,1(a),124,Na0.0125Pb0.9875Se1,Na0.0125Pb0.9875Se1,837.5,0.0028649,0.00001817,0.00017224,1.223,0.93484,55035.7732526142,0.0016327252,0.0013350165
6006,10.1002/adma.201004200,80,1(a),124,Na0.0125Pb0.9875Se1,Na0.0125Pb0.9875Se1,838,0.002857,0.000018199,0.00017239,1.222,0.93595,54948.0740700038,0.001632964,0.0013363044
6006,10.1002/adma.201004200,80,1(a),124,Na0.0125Pb0.9875Se1,Na0.0125Pb0.9875Se1,838.5,0.002849,0.000018229,0.00017253,1.2209,0.93705,54857.6444127489,0.0016329256,0.0013374769
6006,10.1002/adma.201004200,80,1(a),124,Na0.0125Pb0.9875Se1,Na0.0125Pb0.9875Se1,839,0.0028411,0.000018258,0.00017268,1.2198,0.93816,54770.5115565779,0.0016331681,0.0013388818
6006,10.1002/adma.201004200,80,1(a),124,Na0.0125Pb0.9875Se1,Na0.0125Pb0.9875Se1,839.5,0.0028332,0.000018287,0.00017283,1.2188,0.93927,54683.6550555039,0.0016334122,0.0013401807
6006,10.1002/adma.201004200,80,1(a),124,Na0.0125Pb0.9875Se1,Na0.0125Pb0.9875Se1,840,0.0028253,0.000018316,0.00017298,1.2177,0.94038,54597.0735968552,0.001633658,0.0013415932
6006,10.1002/adma.201004200,80,1(a),124,Na0.0125Pb0.9875Se1,Na0.0125Pb0.9875Se1,840.5,0.0028174,0.000018346,0.00017312,1.2166,0.94149,54507.7946146299,0.0016336277,0.0013427813
6006,10.1002/adma.201004200,80,1(a),124,Na0.0125Pb0.9875Se1,Na0.0125Pb0.9875Se1,841,0.0028095,0.000018375,0.00017327,1.2155,0.94259,54421.768707483,0.0016338772,0.0013442017
6006,10.1002/adma.201004200,80,1(a),124,Na0.0125Pb0.9875Se1,Na0.0125Pb0.9875Se1,841.5,0.0028016,0.000018404,0.00017341,1.2145,0.9437,54336.0139100196,0.0016339398,0.0013453601
6006,10.1002/adma.201004200,80,1(a),124,Na0.0125Pb0.9875Se1,Na0.0125Pb0.9875Se1,842,0.0027936,0.000018434,0.00017355,1.2134,0.94481,54247.5859824238,0.0016339157,0.0013465599
6006,10.1002/adma.201004200,80,1(a),124,Na0.0125Pb0.9875Se1,Na0.0125Pb0.9875Se1,842.5,0.0027857,0.000018463,0.0001737,1.2123,0.94592,54162.3788116774,0.0016341705,0.0013479918
6006,10.1002/adma.201004200,80,1(a),124,Na0.0125Pb0.9875Se1,Na0.0125Pb0.9875Se1,843,0.0027778,0.000018493,0.00017384,1.2113,0.94702,54074.5146812307,0.0016341505,0.0013490882
6006,10.1002/adma.201004200,80,1(a),124,Na0.0125Pb0.9875Se1,Na0.0125Pb0.9875Se1,843.5,0.0027699,0.000018522,0.00017398,1.2102,0.94813,53989.8499082173,0.0016342209,0.0013503726
6006,10.1002/adma.201004200,80,1(a),124,Na0.0125Pb0.9875Se1,Na0.0125Pb0.9875Se1,844,0.002762,0.000018551,0.00017412,1.2091,0.94924,53905.4498409789,0.0016342933,0.001351661
6006,10.1002/adma.201004200,80,1(a),124,Na0.0125Pb0.9875Se1,Na0.0125Pb0.9875Se1,844.5,0.0027541,0.000018581,0.00017426,1.208,0.95035,53818.4166621818,0.0016342795,0.0013528804
6006,10.1002/adma.201004200,80,1(a),124,Na0.0125Pb0.9875Se1,Na0.0125Pb0.9875Se1,845,0.0027462,,0.00017439,1.207,0.95145,,,
6006,10.1002/adma.201004200,80,1(a),124,Na0.0125Pb0.9875Se1,Na0.0125Pb0.9875Se1,845.5,0.0027382,,0.00017453,1.2059,0.95256,,,
6006,10.1002/adma.201004200,80,1(a),124,Na0.0125Pb0.9875Se1,Na0.0125Pb0.9875Se1,846,0.0027303,,0.00017467,1.2048,0.95367,,,
6006,10.1002/adma.201004200,80,1(a),124,Na0.0125Pb0.9875Se1,Na0.0125Pb0.9875Se1,846.5,0.0027224,,0.0001748,1.2037,0.95478,,,
6006,10.1002/adma.201004200,80,1(a),124,Na0.0125Pb0.9875Se1,Na0.0125Pb0.9875Se1,847,0.0027145,,0.00017494,1.2027,0.95588,,,
6006,10.1002/adma.201004200,80,1(a),124,Na0.0125Pb0.9875Se1,Na0.0125Pb0.9875Se1,847.5,0.0027066,,0.00017507,1.2016,,,,
6006,10.1002/adma.201004200,80,1(a),124,Na0.0125Pb0.9875Se1,Na0.0125Pb0.9875Se1,848,0.0026987,,0.00017521,1.2005,,,,
6006,10.1002/adma.201004200,80,1(a),124,Na0.0125Pb0.9875Se1,Na0.0125Pb0.9875Se1,848.5,0.0026908,,0.00017534,1.1994,,,,
6006,10.1002/adma.201004200,80,1(a),124,Na0.0125Pb0.9875Se1,Na0.0125Pb0.9875Se1,849,0.0026828,,0.00017547,1.1984,,,,
6006,10.1002/adma.201004200,80,1(a),124,Na0.0125Pb0.9875Se1,Na0.0125Pb0.9875Se1,849.5,0.0026749,,0.0001756,,,,,
6006,10.1002/adma.201004200,80,1(a),124,Na0.0125Pb0.9875Se1,Na0.0125Pb0.9875Se1,850,,,0.00017573,,,,,
6006,10.1002/adma.201004200,19,3(a),124,Na0.0125Pb0.9875Se1,Na0.0125Pb0.9875Se1,299.5,0.011381,,,3.9587,,,,
6006,10.1002/adma.201004200,19,3(a),124,Na0.0125Pb0.9875Se1,Na0.0125Pb0.9875Se1,300,0.011373,,,3.9522,,,,
6006,10.1002/adma.201004200,19,3(a),124,Na0.0125Pb0.9875Se1,Na0.0125Pb0.9875Se1,300.5,0.011365,,,3.9458,,,,
6006,10.1002/adma.201004200,19,3(a),124,Na0.0125Pb0.9875Se1,Na0.0125Pb0.9875Se1,301,0.011357,0.0000032311,,3.9393,,309492.1234254588,,
6006,10.1002/adma.201004200,19,3(a),124,Na0.0125Pb0.9875Se1,Na0.0125Pb0.9875Se1,301.5,0.011349,0.0000032332,,3.9329,,309291.1047878263,,
6006,10.1002/adma.201004200,19,3(a),124,Na0.0125Pb0.9875Se1,Na0.0125Pb0.9875Se1,302,0.011341,0.0000032355,,3.9265,,309071.2409210323,,
6006,10.1002/adma.201004200,19,3(a),124,Na0.0125Pb0.9875Se1,Na0.0125Pb0.9875Se1,302.5,0.011333,0.0000032377,,3.9202,,308861.2286499676,,
6006,10.1002/adma.201004200,19,3(a),124,Na0.0125Pb0.9875Se1,Na0.0125Pb0.9875Se1,303,0.011325,0.00000324,,3.9138,,308641.975308642,,
6006,10.1002/adma.201004200,19,3(a),124,Na0.0125Pb0.9875Se1,Na0.0125Pb0.9875Se1,303.5,0.011317,0.0000032424,,3.9075,,308413.520848754,,
6006,10.1002/adma.201004200,19,3(a),124,Na0.0125Pb0.9875Se1,Na0.0125Pb0.9875Se1,304,0.011309,0.0000032447,,3.9012,,308194.9024563134,,
6006,10.1002/adma.201004200,19,3(a),124,Na0.0125Pb0.9875Se1,Na0.0125Pb0.9875Se1,304.5,0.011302,0.0000032472,,3.8949,,307957.6250307958,,
6006,10.1002/adma.201004200,19,3(a),124,Na0.0125Pb0.9875Se1,Na0.0125Pb0.9875Se1,305,0.011294,0.0000032496,,3.8887,,307730.1821762678,,
6006,10.1002/adma.201004200,19,3(a),124,Na0.0125Pb0.9875Se1,Na0.0125Pb0.9875Se1,305.5,0.011286,0.0000032521,,3.8824,,307493.6195073952,,
6006,10.1002/adma.201004200,19,3(a),124,Na0.0125Pb0.9875Se1,Na0.0125Pb0.9875Se1,306,0.011278,0.0000032546,,3.8762,,307257.4202666995,,
6006,10.1002/adma.201004200,25442,2b,124,Na0.0125Pb0.9875Se1,Na0.0125Pb0.9875Se1,298,0.011404,,,,,,,
6006,10.1002/adma.201004200,25442,2b,124,Na0.0125Pb0.9875Se1,Na0.0125Pb0.9875Se1,298.5,0.011396,,,,,,,
6006,10.1002/adma.201004200,25442,2b,124,Na0.0125Pb0.9875Se1,Na0.0125Pb0.9875Se1,299,0.011389,,,,,,,
6006,10.1002/adma.201004200,80,1(a),367,Pb1Se1,Pb1Se1,309.5,,,0.0002901,1.6272,,,,
6006,10.1002/adma.201004200,80,1(a),367,Pb1Se1,Pb1Se1,310,,,0.00028949,1.6238,,,,
6006,10.1002/adma.201004200,80,1(a),367,Pb1Se1,Pb1Se1,310.5,,,0.00028889,1.6205,,,,
6006,10.1002/adma.201004200,80,1(a),367,Pb1Se1,Pb1Se1,311,,,0.00028829,1.6172,,,,
6006,10.1002/adma.201004200,80,1(a),367,Pb1Se1,Pb1Se1,311.5,,,0.0002877,1.6139,,,,
6006,10.1002/adma.201004200,80,1(a),367,Pb1Se1,Pb1Se1,312,,,0.00028712,1.6106,,,,
6006,10.1002/adma.201004200,80,1(a),367,Pb1Se1,Pb1Se1,312.5,,,0.00028655,1.6074,,,,
6006,10.1002/adma.201004200,80,1(a),367,Pb1Se1,Pb1Se1,313,,,0.00028599,1.6041,,,,
6006,10.1002/adma.201004200,80,1(a),367,Pb1Se1,Pb1Se1,313.5,,,0.00028544,1.6009,,,,
6006,10.1002/adma.201004200,80,1(a),367,Pb1Se1,Pb1Se1,314,,,0.00028489,1.5977,,,,
6006,10.1002/adma.201004200,80,1(a),367,Pb1Se1,Pb1Se1,314.5,,,0.00028435,1.5945,,,,
6006,10.1002/adma.201004200,80,1(a),367,Pb1Se1,Pb1Se1,315,,,0.00028382,1.5914,,,,
6006,10.1002/adma.201004200,80,1(a),367,Pb1Se1,Pb1Se1,315.5,,,0.0002833,1.5882,,,,
6006,10.1002/adma.201004200,80,1(a),367,Pb1Se1,Pb1Se1,316,,,0.00028279,1.5851,,,,
6006,10.1002/adma.201004200,80,1(a),367,Pb1Se1,Pb1Se1,316.5,,,0.00028228,1.582,,,,
6006,10.1002/adma.201004200,80,1(a),367,Pb1Se1,Pb1Se1,317,,,0.00028178,1.5789,,,,
6006,10.1002/adma.201004200,80,1(a),367,Pb1Se1,Pb1Se1,317.5,,,0.00028129,1.5758,,,,
6006,10.1002/adma.201004200,80,1(a),367,Pb1Se1,Pb1Se1,318,,,0.00028081,1.5728,,,,
6006,10.1002/adma.201004200,80,1(a),367,Pb1Se1,Pb1Se1,318.5,,,0.00028033,1.5697,,,,
6006,10.1002/adma.201004200,80,1(a),367,Pb1Se1,Pb1Se1,319,,,0.00027986,1.5667,,,,
6006,10.1002/adma.201004200,80,1(a),367,Pb1Se1,Pb1Se1,319.5,,,0.0002794,1.5637,,,,
6006,10.1002/adma.201004200,80,1(a),367,Pb1Se1,Pb1Se1,320,,,0.00027894,1.5607,,,,
6006,10.1002/adma.201004200,80,1(a),367,Pb1Se1,Pb1Se1,320.5,,,0.00027849,1.5577,,,,
6006,10.1002/adma.201004200,80,1(a),367,Pb1Se1,Pb1Se1,321,,,0.00027805,1.5548,,,,
6006,10.1002/adma.201004200,80,1(a),367,Pb1Se1,Pb1Se1,321.5,,,0.00027762,1.5519,,,,
6006,10.1002/adma.201004200,80,1(a),367,Pb1Se1,Pb1Se1,322,,,0.00027719,1.5489,,,,
6006,10.1002/adma.201004200,80,1(a),367,Pb1Se1,Pb1Se1,322.5,,,0.00027677,1.546,,,,
6006,10.1002/adma.201004200,80,1(a),367,Pb1Se1,Pb1Se1,323,,,0.00027635,1.5432,,,,
6006,10.1002/adma.201004200,80,1(a),367,Pb1Se1,Pb1Se1,323.5,,,0.00027594,1.5403,,,,
6006,10.1002/adma.201004200,80,1(a),367,Pb1Se1,Pb1Se1,324,,,0.00027554,1.5374,,,,
6006,10.1002/adma.201004200,80,1(a),367,Pb1Se1,Pb1Se1,324.5,,,0.00027515,1.5346,,,,
6006,10.1002/adma.201004200,80,1(a),367,Pb1Se1,Pb1Se1,325,,,0.00027476,1.5318,,,,
6006,10.1002/adma.201004200,80,1(a),367,Pb1Se1,Pb1Se1,325.5,,,0.00027438,1.529,,,,
6006,10.1002/adma.201004200,80,1(a),367,Pb1Se1,Pb1Se1,326,,,0.000274,1.5262,,,,
6006,10.1002/adma.201004200,80,1(a),367,Pb1Se1,Pb1Se1,326.5,,,0.00027363,1.5234,,,,
6006,10.1002/adma.201004200,80,1(a),367,Pb1Se1,Pb1Se1,327,,,0.00027326,1.5207,,,,
6006,10.1002/adma.201004200,80,1(a),367,Pb1Se1,Pb1Se1,327.5,,,0.00027291,1.518,,,,
6006,10.1002/adma.201004200,80,1(a),367,Pb1Se1,Pb1Se1,328,,,0.00027255,1.5152,,,,
6006,10.1002/adma.201004200,80,1(a),367,Pb1Se1,Pb1Se1,328.5,,,0.00027221,1.5125,,,,
6006,10.1002/adma.201004200,80,1(a),367,Pb1Se1,Pb1Se1,329,,,0.00027187,1.5099,,,,
6006,10.1002/adma.201004200,80,1(a),367,Pb1Se1,Pb1Se1,329.5,,,0.00027153,1.5072,,,,
6006,10.1002/adma.201004200,80,1(a),367,Pb1Se1,Pb1Se1,330,,,0.0002712,1.5045,,,,
6006,10.1002/adma.201004200,80,1(a),367,Pb1Se1,Pb1Se1,330.5,,,0.00027088,1.5019,,,,
6006,10.1002/adma.201004200,80,1(a),367,Pb1Se1,Pb1Se1,331,,,0.00027056,1.4993,,,,
6006,10.1002/adma.201004200,80,1(a),367,Pb1Se1,Pb1Se1,331.5,,,0.00027024,1.4967,,,,
6006,10.1002/adma.201004200,80,1(a),367,Pb1Se1,Pb1Se1,332,,,0.00026993,1.4941,,,,
6006,10.1002/adma.201004200,80,1(a),367,Pb1Se1,Pb1Se1,332.5,,,0.00026963,1.4915,,,,
6006,10.1002/adma.201004200,80,1(a),367,Pb1Se1,Pb1Se1,333,,,0.00026933,1.489,,,,
6006,10.1002/adma.201004200,80,1(a),367,Pb1Se1,Pb1Se1,333.5,,,0.00026904,1.4864,,,,
6006,10.1002/adma.201004200,80,1(a),367,Pb1Se1,Pb1Se1,334,,,0.00026875,1.4839,,,,
6006,10.1002/adma.201004200,80,1(a),367,Pb1Se1,Pb1Se1,334.5,,,0.00026847,1.4814,,,,
6006,10.1002/adma.201004200,80,1(a),367,Pb1Se1,Pb1Se1,335,,,0.00026819,1.4789,,,,
6006,10.1002/adma.201004200,80,1(a),367,Pb1Se1,Pb1Se1,335.5,,,0.00026792,1.4764,,,,
6006,10.1002/adma.201004200,80,1(a),367,Pb1Se1,Pb1Se1,336,,,0.00026765,1.4739,,,,
6006,10.1002/adma.201004200,80,1(a),367,Pb1Se1,Pb1Se1,336.5,,,0.00026739,1.4715,,,,
6006,10.1002/adma.201004200,80,1(a),367,Pb1Se1,Pb1Se1,337,,,0.00026713,1.4691,,,,
6006,10.1002/adma.201004200,80,1(a),367,Pb1Se1,Pb1Se1,337.5,,,0.00026687,1.4666,,,,
6006,10.1002/adma.201004200,80,1(a),367,Pb1Se1,Pb1Se1,338,,,0.00026662,1.4642,,,,
6006,10.1002/adma.201004200,80,1(a),367,Pb1Se1,Pb1Se1,338.5,,,0.00026637,1.4618,,,,
6006,10.1002/adma.201004200,80,1(a),367,Pb1Se1,Pb1Se1,339,,,0.00026613,1.4595,,,,
6006,10.1002/adma.201004200,80,1(a),367,Pb1Se1,Pb1Se1,339.5,,,0.0002659,1.4571,,,,
6006,10.1002/adma.201004200,80,1(a),367,Pb1Se1,Pb1Se1,340,,,0.00026566,1.4548,,,,
6006,10.1002/adma.201004200,80,1(a),367,Pb1Se1,Pb1Se1,340.5,,,0.00026543,1.4524,,,,
6006,10.1002/adma.201004200,80,1(a),367,Pb1Se1,Pb1Se1,341,,,0.00026521,1.4501,,,,
6006,10.1002/adma.201004200,80,1(a),367,Pb1Se1,Pb1Se1,341.5,,,0.00026499,1.4478,,,,
6006,10.1002/adma.201004200,80,1(a),367,Pb1Se1,Pb1Se1,342,,,0.00026477,1.4455,,,,
6006,10.1002/adma.201004200,80,1(a),367,Pb1Se1,Pb1Se1,342.5,,,0.00026456,1.4432,,,,
6006,10.1002/adma.201004200,80,1(a),367,Pb1Se1,Pb1Se1,343,,,0.00026435,1.441,,,,
6006,10.1002/adma.201004200,80,1(a),367,Pb1Se1,Pb1Se1,343.5,,,0.00026414,1.4387,,,,
6006,10.1002/adma.201004200,80,1(a),367,Pb1Se1,Pb1Se1,344,,,0.00026394,1.4365,,,,
6006,10.1002/adma.201004200,80,1(a),367,Pb1Se1,Pb1Se1,344.5,,,0.00026374,1.4343,,,,
6006,10.1002/adma.201004200,80,1(a),367,Pb1Se1,Pb1Se1,345,,,0.00026355,1.4321,,,,