sid,DOI,figureid,fignum,sampleid,samplename,composition,Temperature,Carrier mobility,Electrical resistivity,Seebeck coefficient,Thermal conductivity,ZT,Electrical conductivity,Power factor,Figure of merit Z
6006,10.1002/adma.201004200,80,1(a),324,Na0.007Pb0.993Se1,Na0.007Pb0.993Se1,694.5,0.0069555,0.00001476,0.00014844,1.361,0.75156,67750.6775067751,0.0014928478,0.0010968757
6006,10.1002/adma.201004200,80,1(a),324,Na0.007Pb0.993Se1,Na0.007Pb0.993Se1,695,0.0069406,0.000014791,0.00014865,1.3596,0.75275,67608.6809546346,0.001493937,0.0010988063
6006,10.1002/adma.201004200,80,1(a),324,Na0.007Pb0.993Se1,Na0.007Pb0.993Se1,695.5,0.0069258,0.000014823,0.00014886,1.3583,0.75394,67462.726843419,0.0014949268,0.0011005866
6006,10.1002/adma.201004200,80,1(a),324,Na0.007Pb0.993Se1,Na0.007Pb0.993Se1,696,0.006911,0.000014854,0.00014906,1.3569,0.75513,67321.9334859297,0.0014958182,0.0011023791
6006,10.1002/adma.201004200,80,1(a),324,Na0.007Pb0.993Se1,Na0.007Pb0.993Se1,696.5,0.0068962,0.000014886,0.00014927,1.3555,0.75632,67177.2134891845,0.0014968113,0.0011042503
6006,10.1002/adma.201004200,80,1(a),324,Na0.007Pb0.993Se1,Na0.007Pb0.993Se1,697,0.0068813,0.000014917,0.00014948,1.3542,0.75751,67037.6080981431,0.0014979064,0.0011061191
6006,10.1002/adma.201004200,80,1(a),324,Na0.007Pb0.993Se1,Na0.007Pb0.993Se1,697.5,0.0068665,0.000014949,0.00014969,1.3528,0.75869,66894.106629206,0.0014989027,0.0011080002
6006,10.1002/adma.201004200,80,1(a),324,Na0.007Pb0.993Se1,Na0.007Pb0.993Se1,698,0.0068517,0.00001498,0.0001499,1.3515,0.75988,66755.6742323097,0.0015000007,0.0011098784
6006,10.1002/adma.201004200,80,1(a),324,Na0.007Pb0.993Se1,Na0.007Pb0.993Se1,698.5,0.0068368,0.000015012,0.00015011,1.3501,0.76107,66613.375965894,0.001501,0.0011117695
6006,10.1002/adma.201004200,80,1(a),324,Na0.007Pb0.993Se1,Na0.007Pb0.993Se1,699,0.006822,0.000015044,0.00015032,1.3488,0.76226,66471.6830630152,0.001502001,0.0011135832
6006,10.1002/adma.201004200,80,1(a),324,Na0.007Pb0.993Se1,Na0.007Pb0.993Se1,699.5,0.0068072,0.000015076,0.00015053,1.3474,0.76345,66330.5916688777,0.0015030035,0.0011154843
6006,10.1002/adma.201004200,80,1(a),324,Na0.007Pb0.993Se1,Na0.007Pb0.993Se1,700,0.0067924,0.000015108,0.00015074,1.3461,0.76464,66190.097961345,0.0015040077,0.0011173075
6006,10.1002/adma.201004200,80,1(a),324,Na0.007Pb0.993Se1,Na0.007Pb0.993Se1,700.5,0.0067775,0.00001514,0.00015095,1.3448,0.76582,66050.1981505944,0.0015050134,0.0011191355
6006,10.1002/adma.201004200,80,1(a),324,Na0.007Pb0.993Se1,Na0.007Pb0.993Se1,701,0.0067627,0.000015172,0.00015116,1.3434,0.76701,65910.8884787767,0.0015060207,0.0011210516
6006,10.1002/adma.201004200,80,1(a),324,Na0.007Pb0.993Se1,Na0.007Pb0.993Se1,701.5,0.0067479,0.000015204,0.00015137,1.3421,0.7682,65772.165219679,0.0015070295,0.0011228891
6006,10.1002/adma.201004200,80,1(a),324,Na0.007Pb0.993Se1,Na0.007Pb0.993Se1,702,0.0067331,0.000015236,0.00015157,1.3408,0.76939,65634.0246783933,0.001507841,0.0011245831
6006,10.1002/adma.201004200,80,1(a),324,Na0.007Pb0.993Se1,Na0.007Pb0.993Se1,702.5,0.0067182,0.000015269,0.00015178,1.3394,0.77058,65492.1736852446,0.0015087542,0.0011264404
6006,10.1002/adma.201004200,80,1(a),324,Na0.007Pb0.993Se1,Na0.007Pb0.993Se1,703,0.0067034,0.000015301,0.00015199,1.3381,0.77177,65355.2055421214,0.001509768,0.0011282924
6006,10.1002/adma.201004200,80,1(a),324,Na0.007Pb0.993Se1,Na0.007Pb0.993Se1,703.5,0.0066886,0.000015334,0.0001522,1.3368,0.77295,65214.5558888744,0.0015106848,0.0011300754
6006,10.1002/adma.201004200,80,1(a),324,Na0.007Pb0.993Se1,Na0.007Pb0.993Se1,704,0.0066737,0.000015366,0.00015241,1.3355,0.77414,65078.745281791,0.0015117017,0.0011319369
6006,10.1002/adma.201004200,80,1(a),324,Na0.007Pb0.993Se1,Na0.007Pb0.993Se1,704.5,0.0066589,0.000015399,0.00015262,1.3342,0.77533,64939.2817715436,0.0015126219,0.0011337295
6006,10.1002/adma.201004200,80,1(a),324,Na0.007Pb0.993Se1,Na0.007Pb0.993Se1,705,0.0066441,0.000015432,0.00015283,1.3329,0.77652,64800.4147226542,0.0015135439,0.0011355269
6006,10.1002/adma.201004200,80,1(a),324,Na0.007Pb0.993Se1,Na0.007Pb0.993Se1,705.5,0.0066293,0.000015464,0.00015304,1.3315,0.77771,64666.3217796172,0.0015145655,0.0011374882
6006,10.1002/adma.201004200,80,1(a),324,Na0.007Pb0.993Se1,Na0.007Pb0.993Se1,706,0.0066144,0.000015497,0.00015325,1.3302,0.7789,64528.6184422791,0.0015154909,0.0011392955
6006,10.1002/adma.201004200,80,1(a),324,Na0.007Pb0.993Se1,Na0.007Pb0.993Se1,706.5,0.0065996,0.00001553,0.00015346,1.3289,0.78008,64391.5003219575,0.001516418,0.0011411077
6006,10.1002/adma.201004200,80,1(a),324,Na0.007Pb0.993Se1,Na0.007Pb0.993Se1,707,0.0065848,0.000015563,0.00015367,1.3276,0.78127,64254.9636959455,0.0015173468,0.0011429247
6006,10.1002/adma.201004200,80,1(a),324,Na0.007Pb0.993Se1,Na0.007Pb0.993Se1,707.5,0.0065699,0.000015596,0.00015388,1.3263,0.78246,64119.0048730444,0.0015182774,0.0011447466
6006,10.1002/adma.201004200,80,1(a),324,Na0.007Pb0.993Se1,Na0.007Pb0.993Se1,708,0.0065551,0.00001563,0.00015409,1.325,0.78365,63979.5265515035,0.0015191125,0.0011465
6006,10.1002/adma.201004200,80,1(a),324,Na0.007Pb0.993Se1,Na0.007Pb0.993Se1,708.5,0.0065403,0.000015663,0.0001543,1.3238,0.78484,63844.7296175701,0.0015200466,0.0011482449
6006,10.1002/adma.201004200,80,1(a),324,Na0.007Pb0.993Se1,Na0.007Pb0.993Se1,709,0.0065255,0.000015696,0.00015451,1.3225,0.78603,63710.499490316,0.0015209824,0.0011500812
6006,10.1002/adma.201004200,80,1(a),324,Na0.007Pb0.993Se1,Na0.007Pb0.993Se1,709.5,0.0065106,0.00001573,0.00015472,1.3212,0.78721,63572.7908455181,0.0015218232,0.0011518492
6006,10.1002/adma.201004200,80,1(a),324,Na0.007Pb0.993Se1,Na0.007Pb0.993Se1,710,0.0064958,0.000015763,0.00015492,1.3199,0.7884,63439.7005646133,0.0015225659,0.0011535464
6006,10.1002/adma.201004200,80,1(a),324,Na0.007Pb0.993Se1,Na0.007Pb0.993Se1,710.5,0.006481,0.000015797,0.00015513,1.3186,0.78959,63303.1588276255,0.0015234106,0.0011553243
6006,10.1002/adma.201004200,80,1(a),324,Na0.007Pb0.993Se1,Na0.007Pb0.993Se1,711,0.0064662,0.00001583,0.00015534,1.3174,0.79078,63171.1939355654,0.0015243535,0.0011570924
6006,10.1002/adma.201004200,80,1(a),324,Na0.007Pb0.993Se1,Na0.007Pb0.993Se1,711.5,0.0064513,0.000015864,0.00015555,1.3161,0.79197,63035.8043368633,0.0015252019,0.0011588799
6006,10.1002/adma.201004200,80,1(a),324,Na0.007Pb0.993Se1,Na0.007Pb0.993Se1,712,0.0064365,0.000015898,0.00015576,1.3148,0.79316,62900.9938357026,0.0015260522,0.0011606725
6006,10.1002/adma.201004200,80,1(a),324,Na0.007Pb0.993Se1,Na0.007Pb0.993Se1,712.5,0.0064217,0.000015932,0.00015597,1.3135,0.79434,62766.7587245795,0.0015269044,0.00116247
6006,10.1002/adma.201004200,80,1(a),324,Na0.007Pb0.993Se1,Na0.007Pb0.993Se1,713,0.0064068,0.000015966,0.00015618,1.3123,0.79553,62633.0953275711,0.0015277585,0.0011641839
6006,10.1002/adma.201004200,80,1(a),324,Na0.007Pb0.993Se1,Na0.007Pb0.993Se1,713.5,0.006392,0.000016,0.00015639,1.311,0.79672,62500,0.0015286145,0.0011659912
6006,10.1002/adma.201004200,80,1(a),324,Na0.007Pb0.993Se1,Na0.007Pb0.993Se1,714,0.0063772,0.000016034,0.0001566,1.3098,0.79791,62367.4691281028,0.0015294724,0.0011677144
6006,10.1002/adma.201004200,80,1(a),324,Na0.007Pb0.993Se1,Na0.007Pb0.993Se1,714.5,0.0063624,0.000016068,0.00015681,1.3085,0.7991,62235.499128703,0.0015303321,0.0011695316
6006,10.1002/adma.201004200,80,1(a),324,Na0.007Pb0.993Se1,Na0.007Pb0.993Se1,715,0.0063475,0.000016102,0.00015702,1.3073,0.80029,62104.0864488883,0.0015311937,0.0011712642
6006,10.1002/adma.201004200,80,1(a),324,Na0.007Pb0.993Se1,Na0.007Pb0.993Se1,715.5,0.0063327,0.000016136,0.00015723,1.306,0.80147,61973.2275656916,0.0015320571,0.0011730912
6006,10.1002/adma.201004200,80,1(a),324,Na0.007Pb0.993Se1,Na0.007Pb0.993Se1,716,0.0063179,0.000016171,0.00015744,1.3048,0.80266,61839.0946756539,0.0015328275,0.0011747605
6006,10.1002/adma.201004200,80,1(a),324,Na0.007Pb0.993Se1,Na0.007Pb0.993Se1,716.5,0.006303,0.000016205,0.00015765,1.3035,0.80385,61709.3489663684,0.0015336947,0.0011765974
6006,10.1002/adma.201004200,80,1(a),324,Na0.007Pb0.993Se1,Na0.007Pb0.993Se1,717,0.0062882,0.00001624,0.00015786,1.3023,0.80504,61576.354679803,0.0015344692,0.0011782763
6006,10.1002/adma.201004200,80,1(a),324,Na0.007Pb0.993Se1,Na0.007Pb0.993Se1,717.5,0.0062734,0.000016274,0.00015806,1.3011,0.80623,61447.7080004916,0.0015351459,0.0011798831
6006,10.1002/adma.201004200,80,1(a),324,Na0.007Pb0.993Se1,Na0.007Pb0.993Se1,718,0.0062586,0.000016309,0.00015827,1.2998,0.80742,61315.8378809246,0.0015359245,0.0011816622
6006,10.1002/adma.201004200,80,1(a),324,Na0.007Pb0.993Se1,Na0.007Pb0.993Se1,718.5,0.0062437,0.000016344,0.00015848,1.2986,0.8086,61184.5325501713,0.0015367052,0.0011833553
6006,10.1002/adma.201004200,80,1(a),324,Na0.007Pb0.993Se1,Na0.007Pb0.993Se1,719,0.0062289,0.000016379,0.00015869,1.2974,0.80979,61053.7883875694,0.001537488,0.0011850532
6006,10.1002/adma.201004200,80,1(a),324,Na0.007Pb0.993Se1,Na0.007Pb0.993Se1,719.5,0.0062141,0.000016414,0.0001589,1.2962,0.81098,60923.6018033386,0.0015382728,0.0011867558
6006,10.1002/adma.201004200,80,1(a),324,Na0.007Pb0.993Se1,Na0.007Pb0.993Se1,720,0.0061992,0.000016449,0.00015911,1.2949,0.81217,60793.9692382516,0.0015390596,0.0011885548
6006,10.1002/adma.201004200,80,1(a),324,Na0.007Pb0.993Se1,Na0.007Pb0.993Se1,720.5,0.0061844,0.000016484,0.00015932,1.2937,0.81336,60664.8871633099,0.0015398485,0.0011902671
6006,10.1002/adma.201004200,80,1(a),324,Na0.007Pb0.993Se1,Na0.007Pb0.993Se1,721,0.0061696,0.000016519,0.00015953,1.2925,0.81455,60536.3520794237,0.0015406393,0.001191984
6006,10.1002/adma.201004200,80,1(a),324,Na0.007Pb0.993Se1,Na0.007Pb0.993Se1,721.5,0.0061548,0.000016554,0.00015974,1.2913,0.81573,60408.3605170956,0.0015414321,0.0011937057
6006,10.1002/adma.201004200,80,1(a),324,Na0.007Pb0.993Se1,Na0.007Pb0.993Se1,722,0.0061399,0.00001659,0.00015995,1.2901,0.81692,60277.2754671489,0.001542134,0.00119536
6006,10.1002/adma.201004200,80,1(a),324,Na0.007Pb0.993Se1,Na0.007Pb0.993Se1,722.5,0.0061251,0.000016625,0.00016016,1.2889,0.81811,60150.3759398496,0.0015429309,0.0011970912
6006,10.1002/adma.201004200,80,1(a),324,Na0.007Pb0.993Se1,Na0.007Pb0.993Se1,723,0.0061103,0.00001666,0.00016037,1.2877,0.8193,60024.0096038415,0.0015437297,0.0011988271
6006,10.1002/adma.201004200,80,1(a),324,Na0.007Pb0.993Se1,Na0.007Pb0.993Se1,723.5,0.0060955,0.000016696,0.00016057,1.2865,0.82049,59894.5855294681,0.0015442456,0.0012003464
6006,10.1002/adma.201004200,80,1(a),324,Na0.007Pb0.993Se1,Na0.007Pb0.993Se1,724,0.0060806,0.000016732,0.00016078,1.2853,0.82168,59765.718383935,0.0015449563,0.00120202
6006,10.1002/adma.201004200,80,1(a),324,Na0.007Pb0.993Se1,Na0.007Pb0.993Se1,724.5,0.0060658,0.000016767,0.00016099,1.2841,0.82286,59640.961412298,0.0015457613,0.0012037702
6006,10.1002/adma.201004200,80,1(a),324,Na0.007Pb0.993Se1,Na0.007Pb0.993Se1,725,0.006051,0.000016803,0.0001612,1.2829,0.82405,59513.1821698506,0.0015464762,0.0012054534
6006,10.1002/adma.201004200,80,1(a),324,Na0.007Pb0.993Se1,Na0.007Pb0.993Se1,725.5,0.0060361,0.000016839,0.00016141,1.2817,0.82524,59385.9492843993,0.0015471933,0.0012071415
6006,10.1002/adma.201004200,80,1(a),324,Na0.007Pb0.993Se1,Na0.007Pb0.993Se1,726,0.0060213,0.000016875,0.00016162,1.2806,0.82643,59259.2592592593,0.0015479126,0.0012087401
6006,10.1002/adma.201004200,80,1(a),324,Na0.007Pb0.993Se1,Na0.007Pb0.993Se1,726.5,0.0060065,0.000016911,0.00016183,1.2794,0.82762,59133.1086275205,0.001548634,0.0012104377
6006,10.1002/adma.201004200,80,1(a),324,Na0.007Pb0.993Se1,Na0.007Pb0.993Se1,727,0.0059917,0.000016947,0.00016204,1.2782,0.82881,59007.4939517319,0.0015493575,0.0012121401
6006,10.1002/adma.201004200,80,1(a),324,Na0.007Pb0.993Se1,Na0.007Pb0.993Se1,727.5,0.0059768,0.000016983,0.00016224,1.277,0.83,58882.4118235883,0.0015498921,0.0012136978
6006,10.1002/adma.201004200,80,1(a),324,Na0.007Pb0.993Se1,Na0.007Pb0.993Se1,728,0.005962,0.00001702,0.00016245,1.2759,0.83118,58754.4065804935,0.0015505289,0.0012152433
6006,10.1002/adma.201004200,80,1(a),324,Na0.007Pb0.993Se1,Na0.007Pb0.993Se1,728.5,0.0059472,0.000017056,0.00016266,1.2747,0.83237,58630.3939962477,0.0015512591,0.0012169602
6006,10.1002/adma.201004200,80,1(a),324,Na0.007Pb0.993Se1,Na0.007Pb0.993Se1,729,0.0059323,0.000017093,0.00016287,1.2735,0.83356,58503.4809571169,0.0015519006,0.0012186106
6006,10.1002/adma.201004200,80,1(a),324,Na0.007Pb0.993Se1,Na0.007Pb0.993Se1,729.5,0.0059175,0.000017129,0.00016308,1.2724,0.83475,58380.5242571078,0.0015526351,0.0012202413
6006,10.1002/adma.201004200,80,1(a),324,Na0.007Pb0.993Se1,Na0.007Pb0.993Se1,730,0.0059027,0.000017166,0.00016329,1.2712,0.83594,58254.6895025049,0.0015532811,0.0012219015
6006,10.1002/adma.201004200,80,1(a),324,Na0.007Pb0.993Se1,Na0.007Pb0.993Se1,730.5,0.0058879,0.000017202,0.0001635,1.2701,0.83713,58132.7752586909,0.0015540199,0.0012235414
6006,10.1002/adma.201004200,80,1(a),324,Na0.007Pb0.993Se1,Na0.007Pb0.993Se1,731,0.005873,0.000017239,0.0001637,1.2689,0.83831,58008.0051047045,0.0015544805,0.0012250615
6006,10.1002/adma.201004200,80,1(a),324,Na0.007Pb0.993Se1,Na0.007Pb0.993Se1,731.5,0.0058582,0.000017276,0.00016391,1.2678,0.8395,57883.7693910627,0.0015551336,0.0012266395
6006,10.1002/adma.201004200,80,1(a),324,Na0.007Pb0.993Se1,Na0.007Pb0.993Se1,732,0.0058434,0.000017313,0.00016412,1.2666,0.84069,57760.0646912725,0.001555789,0.0012283191
6006,10.1002/adma.201004200,80,1(a),324,Na0.007Pb0.993Se1,Na0.007Pb0.993Se1,732.5,0.0058286,0.00001735,0.00016433,1.2655,0.84188,57636.8876080692,0.0015564466,0.0012299065
6006,10.1002/adma.201004200,80,1(a),324,Na0.007Pb0.993Se1,Na0.007Pb0.993Se1,733,0.0058137,0.000017387,0.00016454,1.2644,0.84307,57514.2347731063,0.0015571066,0.0012314984
6006,10.1002/adma.201004200,80,1(a),324,Na0.007Pb0.993Se1,Na0.007Pb0.993Se1,733.5,0.0057989,0.000017424,0.00016475,1.2632,0.84426,57392.1028466483,0.0015577687,0.0012331925
6006,10.1002/adma.201004200,80,1(a),324,Na0.007Pb0.993Se1,Na0.007Pb0.993Se1,734,0.0057841,0.000017461,0.00016495,1.2621,0.84544,57270.488517267,0.0015582442,0.001234644
6006,10.1002/adma.201004200,80,1(a),324,Na0.007Pb0.993Se1,Na0.007Pb0.993Se1,734.5,0.0057692,0.000017499,0.00016516,1.261,0.84663,57146.1226355792,0.001558822,0.0012361792
6006,10.1002/adma.201004200,80,1(a),324,Na0.007Pb0.993Se1,Na0.007Pb0.993Se1,735,0.0057544,0.000017536,0.00016537,1.2599,0.84782,57025.5474452555,0.0015594912,0.0012377896
6006,10.1002/adma.201004200,80,1(a),324,Na0.007Pb0.993Se1,Na0.007Pb0.993Se1,735.5,0.0057396,0.000017574,0.00016558,1.2587,0.84901,56902.2419483328,0.0015600738,0.0012394326
6006,10.1002/adma.201004200,80,1(a),324,Na0.007Pb0.993Se1,Na0.007Pb0.993Se1,736,0.0057248,0.000017611,0.00016579,1.2576,0.8502,56782.6926352848,0.0015607475,0.0012410524
6006,10.1002/adma.201004200,80,1(a),324,Na0.007Pb0.993Se1,Na0.007Pb0.993Se1,736.5,0.0057099,0.000017649,0.00016599,1.2565,0.85139,56660.4340189246,0.0015611468,0.0012424567
6006,10.1002/adma.201004200,80,1(a),324,Na0.007Pb0.993Se1,Na0.007Pb0.993Se1,737,0.0056951,0.000017686,0.0001662,1.2554,0.85257,56541.8975460817,0.0015618252,0.0012440857
6006,10.1002/adma.201004200,80,1(a),324,Na0.007Pb0.993Se1,Na0.007Pb0.993Se1,737.5,0.0056803,0.000017724,0.00016641,1.2543,0.85376,56420.6725344166,0.0015624175,0.001245649
6006,10.1002/adma.201004200,80,1(a),324,Na0.007Pb0.993Se1,Na0.007Pb0.993Se1,738,0.0056654,0.000017762,0.00016662,1.2532,0.85495,56299.9662200203,0.0015630123,0.001247217
6006,10.1002/adma.201004200,80,1(a),324,Na0.007Pb0.993Se1,Na0.007Pb0.993Se1,738.5,0.0056506,0.0000178,0.00016682,1.2521,0.85614,56179.7752808989,0.001563422,0.0012486399
6006,10.1002/adma.201004200,80,1(a),324,Na0.007Pb0.993Se1,Na0.007Pb0.993Se1,739,0.0056358,0.000017838,0.00016703,1.251,0.85733,56060.0964233658,0.0015640218,0.0012502173
6006,10.1002/adma.201004200,80,1(a),324,Na0.007Pb0.993Se1,Na0.007Pb0.993Se1,739.5,0.005621,0.000017876,0.00016724,1.2499,0.85852,55940.9263817409,0.0015646239,0.0012517993
6006,10.1002/adma.201004200,80,1(a),324,Na0.007Pb0.993Se1,Na0.007Pb0.993Se1,740,0.0056061,0.000017915,0.00016745,1.2488,0.8597,55819.1459670667,0.0015651411,0.001253316
6006,10.1002/adma.201004200,80,1(a),324,Na0.007Pb0.993Se1,Na0.007Pb0.993Se1,740.5,0.0055913,0.000017953,0.00016765,1.2477,0.86089,55700.9970478472,0.0015655613,0.0012547578
6006,10.1002/adma.201004200,80,1(a),324,Na0.007Pb0.993Se1,Na0.007Pb0.993Se1,741,0.0055765,0.000017991,0.00016786,1.2466,0.86208,55583.3472291701,0.0015661708,0.001256354
6006,10.1002/adma.201004200,80,1(a),324,Na0.007Pb0.993Se1,Na0.007Pb0.993Se1,741.5,0.0055616,0.00001803,0.00016807,1.2455,0.86327,55463.1170271769,0.0015666958,0.001257885
6006,10.1002/adma.201004200,80,1(a),324,Na0.007Pb0.993Se1,Na0.007Pb0.993Se1,742,0.0055468,0.000018068,0.00016827,1.2445,0.86446,55346.4688952845,0.0015671238,0.0012592397
6006,10.1002/adma.201004200,80,1(a),324,Na0.007Pb0.993Se1,Na0.007Pb0.993Se1,742.5,0.005532,0.000018107,0.00016848,1.2434,0.86565,55227.2601756227,0.001567654,0.0012607801
6006,10.1002/adma.201004200,80,1(a),324,Na0.007Pb0.993Se1,Na0.007Pb0.993Se1,743,0.0055172,0.000018146,0.00016869,1.2423,0.86683,55108.5638708255,0.0015681867,0.0012623253
6006,10.1002/adma.201004200,80,1(a),324,Na0.007Pb0.993Se1,Na0.007Pb0.993Se1,743.5,0.0055023,0.000018184,0.00016889,1.2412,0.86802,54993.400791905,0.0015686225,0.0012637951
6006,10.1002/adma.201004200,80,1(a),324,Na0.007Pb0.993Se1,Na0.007Pb0.993Se1,744,0.0054875,0.000018223,0.0001691,1.2402,0.86921,54875.7065247215,0.0015691604,0.0012652479
6006,10.1002/adma.201004200,80,1(a),324,Na0.007Pb0.993Se1,Na0.007Pb0.993Se1,744.5,0.0054727,0.000018262,0.00016931,1.2391,0.8704,54758.5149490746,0.0015697008,0.0012668072
6006,10.1002/adma.201004200,80,1(a),324,Na0.007Pb0.993Se1,Na0.007Pb0.993Se1,745,0.0054579,0.000018301,0.00016951,1.2381,0.87159,54641.8228512103,0.0015700585,0.0012681193
6006,10.1002/adma.201004200,80,1(a),324,Na0.007Pb0.993Se1,Na0.007Pb0.993Se1,745.5,0.005443,0.00001834,0.00016972,1.237,0.87278,54525.627044711,0.0015706041,0.001269688
6006,10.1002/adma.201004200,80,1(a),324,Na0.007Pb0.993Se1,Na0.007Pb0.993Se1,746,0.0054282,0.000018379,0.00016993,1.2359,0.87396,54409.9243702051,0.0015711521,0.0012712615
6006,10.1002/adma.201004200,80,1(a),324,Na0.007Pb0.993Se1,Na0.007Pb0.993Se1,746.5,0.0054134,0.000018419,0.00017013,1.2349,0.87515,54291.7639394104,0.0015714326,0.0012725181
6006,10.1002/adma.201004200,80,1(a),324,Na0.007Pb0.993Se1,Na0.007Pb0.993Se1,747,0.0053985,0.000018458,0.00017034,1.2339,0.87634,54177.0506013653,0.0015719859,0.0012739978
6006,10.1002/adma.201004200,80,1(a),324,Na0.007Pb0.993Se1,Na0.007Pb0.993Se1,747.5,0.0053837,0.000018498,0.00017055,1.2328,0.87753,54059.8983673911,0.0015724566,0.0012755164
6006,10.1002/adma.201004200,80,1(a),324,Na0.007Pb0.993Se1,Na0.007Pb0.993Se1,748,0.0053689,0.000018537,0.00017075,1.2318,0.87872,53946.1617305929,0.0015728307,0.0012768556
6006,10.1002/adma.201004200,80,1(a),324,Na0.007Pb0.993Se1,Na0.007Pb0.993Se1,748.5,0.0053541,0.000018577,0.00017096,1.2307,0.87991,53830.0048447004,0.0015733069,0.0012783837
6006,10.1002/adma.201004200,80,1(a),324,Na0.007Pb0.993Se1,Na0.007Pb0.993Se1,749,0.0053392,0.000018616,0.00017116,1.2297,0.88109,53717.2324881822,0.0015736864,0.0012797319
6006,10.1002/adma.201004200,80,1(a),324,Na0.007Pb0.993Se1,Na0.007Pb0.993Se1,749.5,0.0053244,0.000018656,0.00017137,1.2287,0.88228,53602.0583190395,0.0015741679,0.0012811654
6006,10.1002/adma.201004200,80,1(a),324,Na0.007Pb0.993Se1,Na0.007Pb0.993Se1,750,0.0053096,0.000018696,0.00017158,1.2276,0.88347,53487.376979033,0.0015746521,0.0012827078
6006,10.1002/adma.201004200,80,1(a),324,Na0.007Pb0.993Se1,Na0.007Pb0.993Se1,750.5,0.0052947,0.000018736,0.00017178,1.2266,0.88466,53373.1853116994,0.0015749556,0.001284001
6006,10.1002/adma.201004200,80,1(a),324,Na0.007Pb0.993Se1,Na0.007Pb0.993Se1,751,0.0052799,0.000018776,0.00017199,1.2256,0.88585,53259.4801874734,0.0015754453,0.0012854482
6006,10.1002/adma.201004200,80,1(a),324,Na0.007Pb0.993Se1,Na0.007Pb0.993Se1,751.5,0.0052651,0.000018816,0.00017219,1.2246,0.88704,53146.2585034014,0.0015757545,0.0012867503