sid,DOI,figureid,fignum,sampleid,samplename,composition,Temperature,Carrier mobility,Electrical resistivity,Seebeck coefficient,Thermal conductivity,ZT,Electrical conductivity,Power factor,Figure of merit Z
6006,10.1002/adma.201004200,80,1(a),102,Na0.025Pb0.975Se1,Na0.025Pb0.975Se1,346,0.0068896,0.0000038435,0.000020328,3.8155,-0.080525,260179.5238714713,0.0001075134,0.0000281781
6006,10.1002/adma.201004200,80,1(a),102,Na0.025Pb0.975Se1,Na0.025Pb0.975Se1,346.5,0.0068855,0.0000038486,0.000020358,3.8117,-0.079605,259834.7451021151,0.000107688,0.000028252
6006,10.1002/adma.201004200,80,1(a),102,Na0.025Pb0.975Se1,Na0.025Pb0.975Se1,347,0.0068814,0.0000038536,0.000020389,3.8079,-0.078684,259497.6126219639,0.0001078761,0.0000283296
6006,10.1002/adma.201004200,80,1(a),102,Na0.025Pb0.975Se1,Na0.025Pb0.975Se1,347.5,0.0068772,0.0000038587,0.000020421,3.8041,-0.077763,259154.6375722394,0.000108072,0.0000284093
6006,10.1002/adma.201004200,80,1(a),102,Na0.025Pb0.975Se1,Na0.025Pb0.975Se1,348,0.0068731,0.0000038637,0.000020454,3.8003,-0.076842,258819.2665061987,0.0001082812,0.0000284928
6006,10.1002/adma.201004200,80,1(a),102,Na0.025Pb0.975Se1,Na0.025Pb0.975Se1,348.5,0.006869,0.0000038688,0.000020489,3.7965,-0.075921,258478.0810587262,0.0001085089,0.0000285813
6006,10.1002/adma.201004200,80,1(a),102,Na0.025Pb0.975Se1,Na0.025Pb0.975Se1,349,0.0068648,0.0000038738,0.000020524,3.7927,-0.075001,258144.4576384945,0.0001087394,0.0000286707
6006,10.1002/adma.201004200,80,1(a),102,Na0.025Pb0.975Se1,Na0.025Pb0.975Se1,349.5,0.0068607,0.0000038789,0.00002056,3.7889,-0.07408,257805.0478228363,0.0001089777,0.0000287624
6006,10.1002/adma.201004200,80,1(a),102,Na0.025Pb0.975Se1,Na0.025Pb0.975Se1,350,0.0068565,0.0000038839,0.000020598,3.7851,-0.073159,257473.1584232344,0.0001092401,0.0000288606
6006,10.1002/adma.201004200,80,1(a),102,Na0.025Pb0.975Se1,Na0.025Pb0.975Se1,350.5,0.0068524,0.000003889,0.000020636,3.7814,-0.072238,257135.5104139881,0.0001094997,0.0000289575
6006,10.1002/adma.201004200,80,1(a),102,Na0.025Pb0.975Se1,Na0.025Pb0.975Se1,351,0.0068483,0.000003894,0.000020675,3.7776,-0.071317,256805.3415511042,0.0001097729,0.0000290589
6006,10.1002/adma.201004200,80,1(a),102,Na0.025Pb0.975Se1,Na0.025Pb0.975Se1,351.5,0.0068441,0.0000038991,0.000020715,3.7739,-0.070397,256469.4416660255,0.0001100539,0.0000291619
6006,10.1002/adma.201004200,80,1(a),102,Na0.025Pb0.975Se1,Na0.025Pb0.975Se1,352,0.00684,0.0000039042,0.000020757,3.7701,-0.069476,256134.4193432714,0.0001103563,0.0000292715
6006,10.1002/adma.201004200,80,1(a),102,Na0.025Pb0.975Se1,Na0.025Pb0.975Se1,352.5,0.0068359,0.0000039092,0.000020799,3.7664,-0.068555,255806.8146935434,0.0001106616,0.0000293813
6006,10.1002/adma.201004200,80,1(a),102,Na0.025Pb0.975Se1,Na0.025Pb0.975Se1,353,0.0068317,0.0000039143,0.000020842,3.7627,-0.067634,255473.5201696344,0.0001109749,0.0000294934
6006,10.1002/adma.201004200,80,1(a),102,Na0.025Pb0.975Se1,Na0.025Pb0.975Se1,353.5,0.0068276,0.0000039193,0.000020886,3.7589,-0.066714,255147.6028882709,0.0001113018,0.0000296102
6006,10.1002/adma.201004200,80,1(a),102,Na0.025Pb0.975Se1,Na0.025Pb0.975Se1,354,0.0068235,0.0000039244,0.000020931,3.7552,-0.065793,254816.0228315156,0.0001116366,0.0000297285
6006,10.1002/adma.201004200,80,1(a),102,Na0.025Pb0.975Se1,Na0.025Pb0.975Se1,354.5,0.0068193,0.0000039295,0.000020977,3.7515,-0.064872,254485.3034737244,0.0001119823,0.00002985
6006,10.1002/adma.201004200,80,1(a),102,Na0.025Pb0.975Se1,Na0.025Pb0.975Se1,355,0.0068152,0.0000039345,0.000021024,3.7478,-0.063951,254161.9011310205,0.0001123417,0.0000299754
6006,10.1002/adma.201004200,80,1(a),102,Na0.025Pb0.975Se1,Na0.025Pb0.975Se1,355.5,0.0068111,0.0000039396,0.000021072,3.7442,-0.06303,253832.8764341557,0.0001127092,0.0000301023
6006,10.1002/adma.201004200,80,1(a),102,Na0.025Pb0.975Se1,Na0.025Pb0.975Se1,356,0.0068069,0.0000039447,0.00002112,3.7405,-0.06211,253504.7025122316,0.0001130769,0.0000302304
6006,10.1002/adma.201004200,80,1(a),102,Na0.025Pb0.975Se1,Na0.025Pb0.975Se1,356.5,0.0068028,0.0000039498,0.00002117,3.7368,-0.061189,253177.3760696744,0.0001134662,0.0000303645
6006,10.1002/adma.201004200,80,1(a),102,Na0.025Pb0.975Se1,Na0.025Pb0.975Se1,357,0.0067986,0.0000039548,0.000021221,3.7331,-0.060268,252857.2873470214,0.0001138694,0.0000305026
6006,10.1002/adma.201004200,80,1(a),102,Na0.025Pb0.975Se1,Na0.025Pb0.975Se1,357.5,0.0067945,0.0000039599,0.000021272,3.7295,-0.059347,252531.6295866057,0.0001142701,0.0000306395
6006,10.1002/adma.201004200,80,1(a),102,Na0.025Pb0.975Se1,Na0.025Pb0.975Se1,358,0.0067904,0.000003965,0.000021324,3.7258,-0.058426,252206.8095838588,0.0001146817,0.0000307804
6006,10.1002/adma.201004200,80,1(a),102,Na0.025Pb0.975Se1,Na0.025Pb0.975Se1,358.5,0.0067862,0.0000039701,0.000021377,3.7222,-0.057506,251882.8241102239,0.0001151044,0.0000309238
6006,10.1002/adma.201004200,80,1(a),102,Na0.025Pb0.975Se1,Na0.025Pb0.975Se1,359,0.0067821,0.0000039751,0.000021432,3.7186,-0.056585,251565.9983396644,0.000115552,0.0000310741
6006,10.1002/adma.201004200,80,1(a),102,Na0.025Pb0.975Se1,Na0.025Pb0.975Se1,359.5,0.006778,0.0000039802,0.000021486,3.7149,-0.055664,251243.6560976836,0.0001159862,0.0000312219
6006,10.1002/adma.201004200,80,1(a),102,Na0.025Pb0.975Se1,Na0.025Pb0.975Se1,360,0.0067738,0.0000039853,0.000021542,3.7113,-0.054743,250922.1388603117,0.0001164424,0.0000313751
6006,10.1002/adma.201004200,80,1(a),102,Na0.025Pb0.975Se1,Na0.025Pb0.975Se1,360.5,0.0067697,0.0000039904,0.000021599,3.7077,-0.053823,250601.4434643144,0.0001169098,0.0000315316
6006,10.1002/adma.201004200,80,1(a),102,Na0.025Pb0.975Se1,Na0.025Pb0.975Se1,361,0.0067656,0.0000039955,0.000021656,3.7041,-0.052902,250281.5667626079,0.0001173776,0.0000316886
6006,10.1002/adma.201004200,80,1(a),102,Na0.025Pb0.975Se1,Na0.025Pb0.975Se1,361.5,0.0067614,0.0000040005,0.000021715,3.7005,-0.051981,249968.7539057618,0.0001178706,0.0000318526
6006,10.1002/adma.201004200,80,1(a),102,Na0.025Pb0.975Se1,Na0.025Pb0.975Se1,362,0.0067573,0.0000040056,0.000021774,3.6969,-0.05106,249650.489314959,0.0001183611,0.0000320163
6006,10.1002/adma.201004200,80,1(a),102,Na0.025Pb0.975Se1,Na0.025Pb0.975Se1,362.5,0.0067532,0.0000040107,0.000021834,3.6933,-0.050139,249333.0341336924,0.0001188629,0.0000321834
6006,10.1002/adma.201004200,80,1(a),102,Na0.025Pb0.975Se1,Na0.025Pb0.975Se1,363,0.006749,0.0000040158,0.000021895,3.6898,-0.049219,249016.3852781513,0.0001193762,0.000032353
6006,10.1002/adma.201004200,80,1(a),102,Na0.025Pb0.975Se1,Na0.025Pb0.975Se1,363.5,0.0067449,0.0000040209,0.000021956,3.6862,-0.048298,248700.5396801711,0.0001198901,0.000032524
6006,10.1002/adma.201004200,80,1(a),102,Na0.025Pb0.975Se1,Na0.025Pb0.975Se1,364,0.0067407,0.000004026,0.000022019,3.6826,-0.047377,248385.4942871336,0.0001204263,0.0000327014
6006,10.1002/adma.201004200,80,1(a),102,Na0.025Pb0.975Se1,Na0.025Pb0.975Se1,364.5,0.0067366,0.0000040311,0.000022082,3.6791,-0.046456,248071.246061869,0.0001209632,0.0000328785
6006,10.1002/adma.201004200,80,1(a),102,Na0.025Pb0.975Se1,Na0.025Pb0.975Se1,365,0.0067325,0.0000040362,0.000022146,3.6755,-0.045535,247757.7919825578,0.0001215116,0.0000330599
6006,10.1002/adma.201004200,80,1(a),102,Na0.025Pb0.975Se1,Na0.025Pb0.975Se1,365.5,0.0067283,0.0000040412,0.000022211,3.672,-0.044615,247451.2521033356,0.0001220748,0.0000332448
6006,10.1002/adma.201004200,80,1(a),102,Na0.025Pb0.975Se1,Na0.025Pb0.975Se1,366,0.0067242,0.0000040463,0.000022277,3.6684,-0.043694,247139.3618861676,0.0001226465,0.0000334333
6006,10.1002/adma.201004200,80,1(a),102,Na0.025Pb0.975Se1,Na0.025Pb0.975Se1,366.5,0.0067201,0.0000040514,0.000022343,3.6649,-0.042773,246828.2568988498,0.000123219,0.0000336214
6006,10.1002/adma.201004200,80,1(a),102,Na0.025Pb0.975Se1,Na0.025Pb0.975Se1,367,0.0067159,0.0000040565,0.00002241,3.6614,-0.041852,246517.9341797116,0.0001238033,0.0000338131
6006,10.1002/adma.201004200,80,1(a),102,Na0.025Pb0.975Se1,Na0.025Pb0.975Se1,367.5,0.0067118,0.0000040616,0.000022478,3.6579,-0.040932,246208.3907819578,0.0001243994,0.0000340084
6006,10.1002/adma.201004200,80,1(a),102,Na0.025Pb0.975Se1,Na0.025Pb0.975Se1,368,0.0067077,0.0000040667,0.000022547,3.6544,-0.040011,245899.6237735756,0.0001250073,0.0000342073
6006,10.1002/adma.201004200,80,1(a),102,Na0.025Pb0.975Se1,Na0.025Pb0.975Se1,368.5,0.0067035,0.0000040718,0.000022616,3.6509,-0.03909,245591.6302372415,0.0001256161,0.0000344069
6006,10.1002/adma.201004200,80,1(a),102,Na0.025Pb0.975Se1,Na0.025Pb0.975Se1,369,0.0066994,0.0000040769,0.000022686,3.6474,-0.038169,245284.4072702298,0.0001262367,0.0000346101
6006,10.1002/adma.201004200,80,1(a),102,Na0.025Pb0.975Se1,Na0.025Pb0.975Se1,369.5,0.0066953,0.000004082,0.000022757,3.6439,-0.037248,244977.9519843214,0.0001268694,0.0000348169
6006,10.1002/adma.201004200,80,1(a),102,Na0.025Pb0.975Se1,Na0.025Pb0.975Se1,370,0.0066911,0.0000040871,0.000022829,3.6404,-0.036328,244672.2615057131,0.0001275142,0.0000350275
6006,10.1002/adma.201004200,80,1(a),102,Na0.025Pb0.975Se1,Na0.025Pb0.975Se1,370.5,0.006687,0.0000040922,0.000022902,3.6369,-0.035407,244367.3329749279,0.0001281711,0.0000352418
6006,10.1002/adma.201004200,80,1(a),102,Na0.025Pb0.975Se1,Na0.025Pb0.975Se1,371,0.0066828,0.0000040972,0.000022975,3.6335,-0.034486,244069.1203748902,0.000128832,0.0000354567
6006,10.1002/adma.201004200,80,1(a),102,Na0.025Pb0.975Se1,Na0.025Pb0.975Se1,371.5,0.0066787,0.0000041023,0.000023048,3.63,-0.033565,243765.6924164493,0.0001294908,0.0000356724
6006,10.1002/adma.201004200,80,1(a),102,Na0.025Pb0.975Se1,Na0.025Pb0.975Se1,372,0.0066746,0.0000041074,0.000023123,3.6265,-0.032644,243463.0179675707,0.0001301731,0.000035895
6006,10.1002/adma.201004200,80,1(a),102,Na0.025Pb0.975Se1,Na0.025Pb0.975Se1,372.5,0.0066704,0.0000041125,0.000023198,3.6231,-0.031724,243161.094224924,0.0001308565,0.0000361173
6006,10.1002/adma.201004200,80,1(a),102,Na0.025Pb0.975Se1,Na0.025Pb0.975Se1,373,0.0066663,0.0000041176,0.000023274,3.6196,-0.030803,242859.9183990674,0.0001315521,0.0000363444
6006,10.1002/adma.201004200,80,1(a),102,Na0.025Pb0.975Se1,Na0.025Pb0.975Se1,373.5,0.0066622,0.0000041227,0.000023351,3.6162,-0.029882,242559.4877143619,0.0001322602,0.0000365744
6006,10.1002/adma.201004200,80,1(a),102,Na0.025Pb0.975Se1,Na0.025Pb0.975Se1,374,0.006658,0.0000041278,0.000023428,3.6128,-0.028961,242259.7994088861,0.0001329694,0.0000368051
6006,10.1002/adma.201004200,80,1(a),102,Na0.025Pb0.975Se1,Na0.025Pb0.975Se1,374.5,0.0066539,0.0000041329,0.000023506,3.6094,-0.028041,241960.8507343512,0.0001336911,0.0000370397
6006,10.1002/adma.201004200,80,1(a),102,Na0.025Pb0.975Se1,Na0.025Pb0.975Se1,375,0.0066498,0.000004138,0.000023585,3.6059,-0.02712,241662.6389560174,0.0001344254,0.0000372793
6006,10.1002/adma.201004200,80,1(a),102,Na0.025Pb0.975Se1,Na0.025Pb0.975Se1,375.5,0.0066456,0.0000041431,0.000023664,3.6025,-0.026199,241365.1613526104,0.0001351608,0.0000375186
6006,10.1002/adma.201004200,80,1(a),102,Na0.025Pb0.975Se1,Na0.025Pb0.975Se1,376,0.0066415,0.0000041482,0.000023745,3.5991,-0.025278,241068.4152162384,0.0001359204,0.0000377651
6006,10.1002/adma.201004200,80,1(a),102,Na0.025Pb0.975Se1,Na0.025Pb0.975Se1,376.5,0.0066374,0.0000041533,0.000023825,3.5957,-0.024357,240772.3978523102,0.0001366698,0.0000380092
6006,10.1002/adma.201004200,80,1(a),102,Na0.025Pb0.975Se1,Na0.025Pb0.975Se1,377,0.0066332,0.0000041584,0.000023907,3.5923,-0.023437,240477.1065794537,0.0001374434,0.0000382606
6006,10.1002/adma.201004200,80,1(a),102,Na0.025Pb0.975Se1,Na0.025Pb0.975Se1,377.5,0.0066291,0.0000041635,0.000023989,3.5889,-0.022516,240182.5387294344,0.0001382184,0.0000385127
6006,10.1002/adma.201004200,80,1(a),102,Na0.025Pb0.975Se1,Na0.025Pb0.975Se1,378,0.0066249,0.0000041686,0.000024071,3.5856,-0.021595,239888.6916470758,0.0001389946,0.0000387647
6006,10.1002/adma.201004200,80,1(a),102,Na0.025Pb0.975Se1,Na0.025Pb0.975Se1,378.5,0.0066208,0.0000041737,0.000024155,3.5822,-0.020674,239595.562690179,0.0001397954,0.000039025
6006,10.1002/adma.201004200,80,1(a),102,Na0.025Pb0.975Se1,Na0.025Pb0.975Se1,379,0.0066167,0.0000041788,0.000024239,3.5788,-0.019753,239303.1492294439,0.0001405976,0.0000392862
6006,10.1002/adma.201004200,80,1(a),102,Na0.025Pb0.975Se1,Na0.025Pb0.975Se1,379.5,0.0066125,0.0000041839,0.000024323,3.5754,-0.018833,239011.4486483903,0.0001414012,0.0000395483
6006,10.1002/adma.201004200,80,1(a),102,Na0.025Pb0.975Se1,Na0.025Pb0.975Se1,380,0.0066084,0.000004189,0.000024408,3.5721,-0.017912,238720.45834328,0.0001422178,0.0000398135
6006,10.1002/adma.201004200,80,1(a),102,Na0.025Pb0.975Se1,Na0.025Pb0.975Se1,380.5,0.0066043,0.0000041941,0.000024494,3.5687,-0.016991,238430.1757230395,0.0001430476,0.000040084
6006,10.1002/adma.201004200,80,1(a),102,Na0.025Pb0.975Se1,Na0.025Pb0.975Se1,381,0.0066001,0.0000041992,0.00002458,3.5654,-0.01607,238140.5982091827,0.0001438789,0.0000403542
6006,10.1002/adma.201004200,80,1(a),102,Na0.025Pb0.975Se1,Na0.025Pb0.975Se1,381.5,0.006596,0.0000042043,0.000024667,3.562,-0.015149,237851.7232357349,0.0001447235,0.0000406298
6006,10.1002/adma.201004200,80,1(a),102,Na0.025Pb0.975Se1,Na0.025Pb0.975Se1,382,0.0065919,0.0000042094,0.000024755,3.5587,-0.014229,237563.5482491567,0.0001455813,0.0000409086
6006,10.1002/adma.201004200,80,1(a),102,Na0.025Pb0.975Se1,Na0.025Pb0.975Se1,382.5,0.0065877,0.0000042145,0.000024843,3.5554,-0.013308,237276.0707082691,0.0001464408,0.0000411883
6006,10.1002/adma.201004200,80,1(a),102,Na0.025Pb0.975Se1,Na0.025Pb0.975Se1,383,0.0065836,0.0000042196,0.000024932,3.552,-0.012387,236989.2880841786,0.0001473136,0.0000414734
6006,10.1002/adma.201004200,80,1(a),102,Na0.025Pb0.975Se1,Na0.025Pb0.975Se1,383.5,0.0065795,0.0000042247,0.000025022,3.5487,-0.011466,236703.1978602031,0.0001482,0.0000417618
6006,10.1002/adma.201004200,80,1(a),102,Na0.025Pb0.975Se1,Na0.025Pb0.975Se1,384,0.0065753,0.0000042297,0.000025112,3.5454,-0.010546,236423.3870014422,0.0001490916,0.0000420521
6006,10.1002/adma.201004200,80,1(a),102,Na0.025Pb0.975Se1,Na0.025Pb0.975Se1,384.5,0.0065712,0.0000042348,0.000025202,3.5421,-0.0096248,236138.660621517,0.0001499813,0.0000423425
6006,10.1002/adma.201004200,80,1(a),102,Na0.025Pb0.975Se1,Na0.025Pb0.975Se1,385,0.006567,0.0000042399,0.000025293,3.5388,-0.008704,235854.6192127173,0.0001508847,0.0000426372
6006,10.1002/adma.201004200,80,1(a),102,Na0.025Pb0.975Se1,Na0.025Pb0.975Se1,385.5,0.0065629,0.000004245,0.000025385,3.5355,-0.0077832,235571.2603062426,0.0001518017,0.0000429364
6006,10.1002/adma.201004200,80,1(a),102,Na0.025Pb0.975Se1,Na0.025Pb0.975Se1,386,0.0065588,0.0000042501,0.000025477,3.5322,-0.0068624,235288.5814451425,0.0001527205,0.0000432367
6006,10.1002/adma.201004200,80,1(a),102,Na0.025Pb0.975Se1,Na0.025Pb0.975Se1,386.5,0.0065546,0.0000042552,0.00002557,3.5289,-0.0059416,235006.5801842451,0.0001536532,0.0000435414
6006,10.1002/adma.201004200,80,1(a),102,Na0.025Pb0.975Se1,Na0.025Pb0.975Se1,387,0.0065505,0.0000042603,0.000025663,3.5257,-0.0050208,234725.2540900876,0.0001545876,0.0000438459
6006,10.1002/adma.201004200,80,1(a),102,Na0.025Pb0.975Se1,Na0.025Pb0.975Se1,387.5,0.0065464,0.0000042654,0.000025757,3.5224,-0.0041,234444.6007408449,0.000155536,0.0000441562
6006,10.1002/adma.201004200,80,1(a),102,Na0.025Pb0.975Se1,Na0.025Pb0.975Se1,388,0.0065422,0.0000042705,0.000025852,3.5191,-0.0031793,234164.6177262616,0.0001564983,0.0000444711
6006,10.1002/adma.201004200,80,1(a),102,Na0.025Pb0.975Se1,Na0.025Pb0.975Se1,388.5,0.0065381,0.0000042756,0.000025947,3.5158,-0.0022585,233885.3026475816,0.0001574625,0.0000447871
6006,10.1002/adma.201004200,80,1(a),102,Na0.025Pb0.975Se1,Na0.025Pb0.975Se1,389,0.006534,0.0000042807,0.000026042,3.5126,-0.0013377,233606.6531174808,0.0001584287,0.000045103
6006,10.1002/adma.201004200,80,1(a),102,Na0.025Pb0.975Se1,Na0.025Pb0.975Se1,389.5,0.0065298,0.0000042858,0.000026138,3.5093,-0.00041689,233328.6667599982,0.000159409,0.0000454247
6006,10.1002/adma.201004200,80,1(a),102,Na0.025Pb0.975Se1,Na0.025Pb0.975Se1,390,0.0065257,0.0000042909,0.000026235,3.5061,0.0005039,233051.3412104687,0.0001604035,0.0000457498
6006,10.1002/adma.201004200,80,1(a),102,Na0.025Pb0.975Se1,Na0.025Pb0.975Se1,390.5,0.0065216,0.000004296,0.000026332,3.5028,0.0014247,232774.6741154562,0.0001614,0.0000460774
6006,10.1002/adma.201004200,80,1(a),102,Na0.025Pb0.975Se1,Na0.025Pb0.975Se1,391,0.0065174,0.0000043011,0.000026429,3.4996,0.0023455,232498.663132687,0.0001623985,0.0000464049
6006,10.1002/adma.201004200,80,1(a),102,Na0.025Pb0.975Se1,Na0.025Pb0.975Se1,391.5,0.0065133,0.0000043062,0.000026527,3.4964,0.0032663,232223.3059309832,0.0001634113,0.000046737
6006,10.1002/adma.201004200,80,1(a),102,Na0.025Pb0.975Se1,Na0.025Pb0.975Se1,392,0.0065092,0.0000043113,0.000026626,3.4931,0.004187,231948.6001901979,0.0001644385,0.0000470752
6006,10.1002/adma.201004200,80,1(a),102,Na0.025Pb0.975Se1,Na0.025Pb0.975Se1,392.5,0.006505,0.0000043164,0.000026725,3.4899,0.0051078,231674.5436011491,0.0001654679,0.0000474134
6006,10.1002/adma.201004200,80,1(a),102,Na0.025Pb0.975Se1,Na0.025Pb0.975Se1,393,0.0065009,0.0000043215,0.000026825,3.4867,0.0060286,231401.133865556,0.0001665118,0.0000477563
6006,10.1002/adma.201004200,80,1(a),102,Na0.025Pb0.975Se1,Na0.025Pb0.975Se1,393.5,0.0064967,0.0000043266,0.000026925,3.4835,0.0069494,231128.3686959737,0.0001675578,0.0000481004
6006,10.1002/adma.201004200,80,1(a),102,Na0.025Pb0.975Se1,Na0.025Pb0.975Se1,394,0.0064926,0.0000043316,0.000027025,3.4803,0.0078702,230861.5753993905,0.0001686099,0.0000484469
6006,10.1002/adma.201004200,80,1(a),102,Na0.025Pb0.975Se1,Na0.025Pb0.975Se1,394.5,0.0064885,0.0000043367,0.000027126,3.4771,0.008791,230590.0800147578,0.0001696728,0.0000487972
6006,10.1002/adma.201004200,80,1(a),102,Na0.025Pb0.975Se1,Na0.025Pb0.975Se1,395,0.0064843,0.0000043418,0.000027228,3.4739,0.0097118,230319.2224423051,0.0001707504,0.0000491524
6006,10.1002/adma.201004200,80,1(a),102,Na0.025Pb0.975Se1,Na0.025Pb0.975Se1,395.5,0.0064802,0.0000043469,0.00002733,3.4707,0.010633,230049.0004370931,0.0001718302,0.0000495088
6006,10.1002/adma.201004200,80,1(a),102,Na0.025Pb0.975Se1,Na0.025Pb0.975Se1,396,0.0064761,0.000004352,0.000027432,3.4675,0.011553,229779.4117647059,0.0001729124,0.0000498666
6006,10.1002/adma.201004200,80,1(a),102,Na0.025Pb0.975Se1,Na0.025Pb0.975Se1,396.5,0.0064719,0.0000043571,0.000027535,3.4643,0.012474,229510.4542011888,0.0001740094,0.0000502293
6006,10.1002/adma.201004200,80,1(a),102,Na0.025Pb0.975Se1,Na0.025Pb0.975Se1,397,0.0064678,0.0000043622,0.000027638,3.4611,0.013395,229242.1255329879,0.0001751087,0.0000505934
6006,10.1002/adma.201004200,80,1(a),102,Na0.025Pb0.975Se1,Na0.025Pb0.975Se1,397.5,0.0064637,0.0000043673,0.000027742,3.458,0.014316,228974.4235568887,0.000176223,0.000050961
6006,10.1002/adma.201004200,80,1(a),102,Na0.025Pb0.975Se1,Na0.025Pb0.975Se1,398,0.0064595,0.0000043724,0.000027846,3.4548,0.015236,228707.3460799561,0.0001773396,0.0000513314
6006,10.1002/adma.201004200,80,1(a),102,Na0.025Pb0.975Se1,Na0.025Pb0.975Se1,398.5,0.0064554,0.0000043775,0.000027951,3.4516,0.016157,228440.8909194746,0.0001784714,0.0000517069
6006,10.1002/adma.201004200,80,1(a),102,Na0.025Pb0.975Se1,Na0.025Pb0.975Se1,399,0.0064513,0.0000043826,0.000028056,3.4485,0.017078,228175.0559028887,0.0001796055,0.0000520822
6006,10.1002/adma.201004200,80,1(a),102,Na0.025Pb0.975Se1,Na0.025Pb0.975Se1,399.5,0.0064471,0.0000043877,0.000028162,3.4453,0.017999,227909.8388677439,0.0001807549,0.0000524642
6006,10.1002/adma.201004200,80,1(a),102,Na0.025Pb0.975Se1,Na0.025Pb0.975Se1,400,0.006443,0.0000043927,0.000028268,3.4422,0.01892,227650.4200150249,0.0001819109,0.0000528473
6006,10.1002/adma.201004200,80,1(a),102,Na0.025Pb0.975Se1,Na0.025Pb0.975Se1,400.5,0.0064388,0.0000043978,0.000028374,3.439,0.01984,227386.4204829688,0.0001830651,0.0000532321
6006,10.1002/adma.201004200,80,1(a),102,Na0.025Pb0.975Se1,Na0.025Pb0.975Se1,401,0.0064347,0.0000044029,0.000028481,3.4359,0.020761,227123.0325467306,0.0001842348,0.0000536205
6006,10.1002/adma.201004200,80,1(a),102,Na0.025Pb0.975Se1,Na0.025Pb0.975Se1,401.5,0.0064306,0.000004408,0.000028588,3.4327,0.021682,226860.2540834846,0.0001854069,0.000054012