sid,DOI,figureid,fignum,sampleid,samplename,composition,Temperature,Carrier mobility,Electrical resistivity,Seebeck coefficient,Thermal conductivity,ZT,Electrical conductivity,Power factor,Figure of merit Z
6006,10.1002/adma.201004200,80,1(a),73,Na0.005Pb0.995Se1,Na0.005Pb0.995Se1,777.5,0.0048716,0.000026788,0.00019363,1.1097,0.89605,37330.1478273854,0.0013996034,0.0012612449
6006,10.1002/adma.201004200,80,1(a),73,Na0.005Pb0.995Se1,Na0.005Pb0.995Se1,778,0.0048526,0.00002685,0.0001938,1.1092,0.89707,37243.947858473,0.0013988246,0.0012611112
6006,10.1002/adma.201004200,80,1(a),73,Na0.005Pb0.995Se1,Na0.005Pb0.995Se1,778.5,0.0048337,0.000026914,0.00019397,1.1086,0.89809,37155.3838151148,0.0013979476,0.0012610027
6006,10.1002/adma.201004200,80,1(a),73,Na0.005Pb0.995Se1,Na0.005Pb0.995Se1,779,0.0048147,0.000026977,0.00019413,1.1081,0.89911,37068.6140045224,0.0013969847,0.0012607028
6006,10.1002/adma.201004200,80,1(a),73,Na0.005Pb0.995Se1,Na0.005Pb0.995Se1,779.5,0.0047958,0.00002704,0.0001943,1.1075,0.90013,36982.2485207101,0.001396172,0.0012606519
6006,10.1002/adma.201004200,80,1(a),73,Na0.005Pb0.995Se1,Na0.005Pb0.995Se1,780,0.0047768,0.000027104,0.00019446,1.107,0.90115,36894.9232585596,0.0013951701,0.0012603163
6006,10.1002/adma.201004200,80,1(a),73,Na0.005Pb0.995Se1,Na0.005Pb0.995Se1,780.5,0.0047579,0.000027168,0.00019463,1.1064,0.90217,36808.0094228504,0.0013943182,0.0012602298
6006,10.1002/adma.201004200,80,1(a),73,Na0.005Pb0.995Se1,Na0.005Pb0.995Se1,781,0.004739,0.000027231,0.00019479,1.1059,0.90319,36722.8526311924,0.0013933805,0.0012599516
6006,10.1002/adma.201004200,80,1(a),73,Na0.005Pb0.995Se1,Na0.005Pb0.995Se1,781.5,0.00472,0.000027295,0.00019495,1.1054,0.90421,36636.7466568969,0.001392398,0.0012596327
6006,10.1002/adma.201004200,80,1(a),73,Na0.005Pb0.995Se1,Na0.005Pb0.995Se1,782,0.0047011,0.00002736,0.00019512,1.1049,0.90523,36549.7076023392,0.0013915137,0.0012594024
6006,10.1002/adma.201004200,80,1(a),73,Na0.005Pb0.995Se1,Na0.005Pb0.995Se1,782.5,0.0046821,0.000027424,0.00019528,1.1043,0.90625,36464.4107351225,0.001390544,0.0012592085
6006,10.1002/adma.201004200,80,1(a),73,Na0.005Pb0.995Se1,Na0.005Pb0.995Se1,783,0.0046632,0.000027488,0.00019544,1.1038,0.90727,36379.5110593714,0.0013895807,0.0012589062
6006,10.1002/adma.201004200,80,1(a),73,Na0.005Pb0.995Se1,Na0.005Pb0.995Se1,783.5,0.0046442,0.000027553,0.0001956,1.1033,0.90829,36293.6885275651,0.0013885733,0.0012585637
6006,10.1002/adma.201004200,80,1(a),73,Na0.005Pb0.995Se1,Na0.005Pb0.995Se1,784,0.0046253,0.000027617,0.00019576,1.1028,0.9093,36209.5810551472,0.0013876228,0.0012582724
6006,10.1002/adma.201004200,80,1(a),73,Na0.005Pb0.995Se1,Na0.005Pb0.995Se1,784.5,0.0046063,0.000027682,0.00019592,1.1023,0.91032,36124.5574741709,0.0013866284,0.001257941
6006,10.1002/adma.201004200,80,1(a),73,Na0.005Pb0.995Se1,Na0.005Pb0.995Se1,785,0.0045874,0.000027747,0.00019608,1.1018,0.91134,36039.9322449274,0.0013856405,0.0012576152
6006,10.1002/adma.201004200,80,1(a),73,Na0.005Pb0.995Se1,Na0.005Pb0.995Se1,785.5,0.0045684,0.000027812,0.00019624,1.1013,0.91236,35955.7025744283,0.0013846591,0.0012572951
6006,10.1002/adma.201004200,80,1(a),73,Na0.005Pb0.995Se1,Na0.005Pb0.995Se1,786,0.0045495,0.000027878,0.00019639,1.1008,0.91338,35870.5789511443,0.0013834935,0.0012568073
6006,10.1002/adma.201004200,80,1(a),73,Na0.005Pb0.995Se1,Na0.005Pb0.995Se1,786.5,0.0045305,0.000027943,0.00019655,1.1003,0.9144,35787.1381025659,0.0013825252,0.0012564984
6006,10.1002/adma.201004200,80,1(a),73,Na0.005Pb0.995Se1,Na0.005Pb0.995Se1,787,0.0045116,0.000028009,0.0001967,1.0998,0.91542,35702.8098111321,0.0013813735,0.0012560224
6006,10.1002/adma.201004200,80,1(a),73,Na0.005Pb0.995Se1,Na0.005Pb0.995Se1,787.5,0.0044927,0.000028074,0.00019686,1.0993,0.91644,35620.1467550046,0.0013804182,0.0012557247
6006,10.1002/adma.201004200,80,1(a),73,Na0.005Pb0.995Se1,Na0.005Pb0.995Se1,788,0.0044737,0.00002814,0.00019701,1.0988,0.91746,35536.6027007818,0.00137928,0.0012552603
6006,10.1002/adma.201004200,80,1(a),73,Na0.005Pb0.995Se1,Na0.005Pb0.995Se1,788.5,0.0044548,0.000028206,0.00019717,1.0983,0.91848,35453.4496206481,0.0013782886,0.0012549291
6006,10.1002/adma.201004200,80,1(a),73,Na0.005Pb0.995Se1,Na0.005Pb0.995Se1,789,0.0044358,0.000028272,0.00019732,1.0979,0.9195,35370.6847764573,0.0013771641,0.001254362
6006,10.1002/adma.201004200,80,1(a),73,Na0.005Pb0.995Se1,Na0.005Pb0.995Se1,789.5,0.0044169,0.000028338,0.00019747,1.0974,0.92052,35288.305455572,0.0013760463,0.001253915
6006,10.1002/adma.201004200,80,1(a),73,Na0.005Pb0.995Se1,Na0.005Pb0.995Se1,790,0.0043979,0.000028405,0.00019762,1.0969,0.92154,35205.0695300123,0.001374887,0.0012534296
6006,10.1002/adma.201004200,80,1(a),73,Na0.005Pb0.995Se1,Na0.005Pb0.995Se1,790.5,0.004379,0.000028471,0.00019777,1.0964,0.92255,35123.4589582382,0.0013737829,0.0012529943
6006,10.1002/adma.201004200,80,1(a),73,Na0.005Pb0.995Se1,Na0.005Pb0.995Se1,791,0.00436,0.000028538,0.00019792,1.096,0.92357,35040.9979676221,0.0013726374,0.0012524064
6006,10.1002/adma.201004200,80,1(a),73,Na0.005Pb0.995Se1,Na0.005Pb0.995Se1,791.5,0.0043411,0.000028605,0.00019807,1.0955,0.92459,34958.9232651634,0.0013714989,0.0012519387
6006,10.1002/adma.201004200,80,1(a),73,Na0.005Pb0.995Se1,Na0.005Pb0.995Se1,792,0.0043221,0.000028672,0.00019822,1.0951,0.92561,34877.2321428571,0.0013703672,0.0012513626
6006,10.1002/adma.201004200,80,1(a),73,Na0.005Pb0.995Se1,Na0.005Pb0.995Se1,792.5,0.0043032,0.000028739,0.00019837,1.0946,0.92663,34795.9219179512,0.0013692424,0.0012509066
6006,10.1002/adma.201004200,80,1(a),73,Na0.005Pb0.995Se1,Na0.005Pb0.995Se1,793,0.0042843,0.000028806,0.00019852,1.0942,0.92765,34714.9899326529,0.0013681244,0.0012503421
6006,10.1002/adma.201004200,80,1(a),73,Na0.005Pb0.995Se1,Na0.005Pb0.995Se1,793.5,0.0042653,0.000028874,0.00019866,1.0937,0.92867,34633.2340513957,0.0013668281,0.0012497286
6006,10.1002/adma.201004200,80,1(a),73,Na0.005Pb0.995Se1,Na0.005Pb0.995Se1,794,0.0042464,0.000028941,0.00019881,1.0933,0.92969,34553.0562178225,0.0013657239,0.0012491758
6006,10.1002/adma.201004200,80,1(a),73,Na0.005Pb0.995Se1,Na0.005Pb0.995Se1,794.5,0.0042274,0.000029009,0.00019895,1.0928,0.93071,34472.0603950498,0.0013644422,0.0012485744
6006,10.1002/adma.201004200,80,1(a),73,Na0.005Pb0.995Se1,Na0.005Pb0.995Se1,795,0.0042085,0.000029077,0.0001991,1.0924,0.93173,34391.4434088799,0.0013633047,0.0012479904
6006,10.1002/adma.201004200,80,1(a),73,Na0.005Pb0.995Se1,Na0.005Pb0.995Se1,795.5,0.0041895,0.000029145,0.00019924,1.092,0.93275,34311.2026076514,0.0013620373,0.0012472869
6006,10.1002/adma.201004200,80,1(a),73,Na0.005Pb0.995Se1,Na0.005Pb0.995Se1,796,0.0041706,0.000029213,0.00019938,1.0915,0.93377,34231.3353643926,0.0013607772,0.0012467038
6006,10.1002/adma.201004200,80,1(a),73,Na0.005Pb0.995Se1,Na0.005Pb0.995Se1,796.5,0.0041516,0.000029281,0.00019952,1.0911,0.93479,34151.8390765343,0.0013595243,0.0012460125
6006,10.1002/adma.201004200,80,1(a),73,Na0.005Pb0.995Se1,Na0.005Pb0.995Se1,797,0.0041327,0.000029349,0.00019966,1.0907,0.9358,34072.7111656275,0.0013582785,0.0012453273
6006,10.1002/adma.201004200,80,1(a),73,Na0.005Pb0.995Se1,Na0.005Pb0.995Se1,797.5,0.0041137,0.000029418,0.0001998,1.0903,0.93682,33992.7935277721,0.0013569937,0.0012446058
6006,10.1002/adma.201004200,80,1(a),73,Na0.005Pb0.995Se1,Na0.005Pb0.995Se1,798,0.0040948,0.000029487,0.00019994,1.0898,0.93784,33913.2499067386,0.0013557162,0.0012440046
6006,10.1002/adma.201004200,80,1(a),73,Na0.005Pb0.995Se1,Na0.005Pb0.995Se1,798.5,0.0040758,0.000029556,0.00020008,1.0894,0.93886,33834.0776830424,0.001354446,0.0012432954
6006,10.1002/adma.201004200,80,1(a),73,Na0.005Pb0.995Se1,Na0.005Pb0.995Se1,799,0.0040569,0.000029625,0.00020022,1.089,0.93988,33755.2742616034,0.0013531831,0.0012425923
6006,10.1002/adma.201004200,80,1(a),73,Na0.005Pb0.995Se1,Na0.005Pb0.995Se1,799.5,0.004038,0.000029694,0.00020035,1.0886,0.9409,33676.8370714623,0.0013517924,0.0012417714
6006,10.1002/adma.201004200,80,1(a),73,Na0.005Pb0.995Se1,Na0.005Pb0.995Se1,800,0.004019,0.000029763,0.00020049,1.0882,0.94192,33598.7635655008,0.001350544,0.0012410807
6006,10.1002/adma.201004200,80,1(a),73,Na0.005Pb0.995Se1,Na0.005Pb0.995Se1,800.5,0.0040001,0.000029832,0.00020062,1.0878,0.94294,33521.0512201663,0.0013491682,0.0012402723
6006,10.1002/adma.201004200,80,1(a),73,Na0.005Pb0.995Se1,Na0.005Pb0.995Se1,801,0.0039811,0.000029902,0.00020076,1.0874,0.94396,33442.5790916996,0.001347889,0.0012395522
6006,10.1002/adma.201004200,80,1(a),73,Na0.005Pb0.995Se1,Na0.005Pb0.995Se1,801.5,0.0039622,0.000029972,0.00020089,1.087,0.94498,33364.473508608,0.0013464831,0.0012387149
6006,10.1002/adma.201004200,80,1(a),73,Na0.005Pb0.995Se1,Na0.005Pb0.995Se1,802,0.0039432,0.000030042,0.00020102,1.0866,0.946,33286.7319086612,0.0013450849,0.0012378841
6006,10.1002/adma.201004200,80,1(a),73,Na0.005Pb0.995Se1,Na0.005Pb0.995Se1,802.5,0.0039243,0.000030112,0.00020115,1.0862,0.94702,33209.3517534538,0.0013436943,0.0012370597
6006,10.1002/adma.201004200,80,1(a),73,Na0.005Pb0.995Se1,Na0.005Pb0.995Se1,803,0.0039053,0.000030182,0.00020128,1.0858,0.94804,33132.3305281294,0.0013423113,0.0012362417
6006,10.1002/adma.201004200,80,1(a),73,Na0.005Pb0.995Se1,Na0.005Pb0.995Se1,803.5,0.0038864,0.000030252,0.00020141,1.0855,0.94905,33055.665741108,0.0013409357,0.0012353162
6006,10.1002/adma.201004200,80,1(a),73,Na0.005Pb0.995Se1,Na0.005Pb0.995Se1,804,0.0038674,0.000030323,0.00020154,1.0851,0.95007,32978.2673218349,0.0013395235,0.0012344701
6006,10.1002/adma.201004200,80,1(a),73,Na0.005Pb0.995Se1,Na0.005Pb0.995Se1,804.5,0.0038485,0.000030393,0.00020167,1.0847,0.95109,32902.3130326062,0.001338163,0.0012336711
6006,10.1002/adma.201004200,80,1(a),73,Na0.005Pb0.995Se1,Na0.005Pb0.995Se1,805,0.0038296,0.000030464,0.0002018,1.0843,0.95211,32825.6302521008,0.001336766,0.0012328378
6006,10.1002/adma.201004200,80,1(a),73,Na0.005Pb0.995Se1,Na0.005Pb0.995Se1,805.5,0.0038106,0.000030535,0.00020192,1.084,0.95313,32749.3040772884,0.0013352444,0.0012317752
6006,10.1002/adma.201004200,80,1(a),73,Na0.005Pb0.995Se1,Na0.005Pb0.995Se1,806,0.0037917,0.000030606,0.00020205,1.0836,0.95415,32673.3320264001,0.0013338627,0.0012309549
6006,10.1002/adma.201004200,80,1(a),73,Na0.005Pb0.995Se1,Na0.005Pb0.995Se1,806.5,0.0037727,0.000030677,0.00020217,1.0832,0.95517,32597.7116406428,0.0013323568,0.0012300192
6006,10.1002/adma.201004200,80,1(a),73,Na0.005Pb0.995Se1,Na0.005Pb0.995Se1,807,0.0037538,0.000030748,0.00020229,1.0829,0.95619,32522.4404839339,0.0013308587,0.0012289766
6006,10.1002/adma.201004200,80,1(a),73,Na0.005Pb0.995Se1,Na0.005Pb0.995Se1,807.5,0.0037348,0.00003082,0.00020242,1.0825,0.95721,32446.4633354964,0.0013294567,0.0012281355
6006,10.1002/adma.201004200,80,1(a),73,Na0.005Pb0.995Se1,Na0.005Pb0.995Se1,808,0.0037159,0.000030891,0.00020254,1.0822,0.95823,32371.8882522418,0.0013279742,0.0012271061
6006,10.1002/adma.201004200,80,1(a),73,Na0.005Pb0.995Se1,Na0.005Pb0.995Se1,808.5,0.0036969,0.000030963,0.00020266,1.0818,0.95925,32296.6120853922,0.0013264566,0.001226157
6006,10.1002/adma.201004200,80,1(a),73,Na0.005Pb0.995Se1,Na0.005Pb0.995Se1,809,0.003678,0.000031035,0.00020278,1.0815,0.96027,32221.6851941357,0.0013249469,0.0012251012
6006,10.1002/adma.201004200,80,1(a),73,Na0.005Pb0.995Se1,Na0.005Pb0.995Se1,809.5,0.003659,0.000031107,0.00020289,1.0811,0.96129,32147.105153181,0.0013233148,0.0012240447
6006,10.1002/adma.201004200,80,1(a),73,Na0.005Pb0.995Se1,Na0.005Pb0.995Se1,810,0.0036401,0.000031179,0.00020301,1.0808,0.9623,32072.8695596395,0.0013218211,0.0012230025
6006,10.1002/adma.201004200,80,1(a),73,Na0.005Pb0.995Se1,Na0.005Pb0.995Se1,810.5,0.0036211,0.000031252,0.00020313,1.0804,0.96332,31997.9521310636,0.001320293,0.0012220409
6006,10.1002/adma.201004200,80,1(a),73,Na0.005Pb0.995Se1,Na0.005Pb0.995Se1,811,0.0036022,0.000031324,0.00020324,1.0801,0.96434,31924.4030136636,0.0013186853,0.0012208918
6006,10.1002/adma.201004200,80,1(a),73,Na0.005Pb0.995Se1,Na0.005Pb0.995Se1,811.5,0.0035833,0.000031397,0.00020336,1.0798,0.96536,31850.1767684811,0.0013171733,0.0012198308
6006,10.1002/adma.201004200,80,1(a),73,Na0.005Pb0.995Se1,Na0.005Pb0.995Se1,812,0.0035643,0.00003147,0.00020347,1.0794,0.96638,31776.2948840165,0.0013155399,0.0012187696
6006,10.1002/adma.201004200,80,1(a),73,Na0.005Pb0.995Se1,Na0.005Pb0.995Se1,812.5,0.0035454,0.000031542,0.00020358,1.0791,0.9674,31703.7600659438,0.0013139565,0.0012176411
6006,10.1002/adma.201004200,80,1(a),73,Na0.005Pb0.995Se1,Na0.005Pb0.995Se1,813,0.0035264,0.000031616,0.00020369,1.0788,0.96842,31629.5546558704,0.0013122981,0.0012164424
6006,10.1002/adma.201004200,80,1(a),73,Na0.005Pb0.995Se1,Na0.005Pb0.995Se1,813.5,0.0035075,0.000031689,0.0002038,1.0785,0.96944,31556.691596453,0.0013106895,0.0012152893
6006,10.1002/adma.201004200,80,1(a),73,Na0.005Pb0.995Se1,Na0.005Pb0.995Se1,814,0.0034885,0.000031762,0.00020391,1.0781,0.97046,31484.1634657767,0.0013090891,0.0012142557
6006,10.1002/adma.201004200,80,1(a),73,Na0.005Pb0.995Se1,Na0.005Pb0.995Se1,814.5,0.0034696,0.000031836,0.00020402,1.0778,0.97148,31410.9812790552,0.0013074557,0.0012130782
6006,10.1002/adma.201004200,80,1(a),73,Na0.005Pb0.995Se1,Na0.005Pb0.995Se1,815,0.0034506,0.000031909,0.00020413,1.0775,0.9725,31339.1206242753,0.0013058716,0.0012119458
6006,10.1002/adma.201004200,80,1(a),73,Na0.005Pb0.995Se1,Na0.005Pb0.995Se1,815.5,0.0034317,0.000031983,0.00020423,1.0772,0.97352,31266.610386768,0.001304127,0.0012106637
6006,10.1002/adma.201004200,80,1(a),73,Na0.005Pb0.995Se1,Na0.005Pb0.995Se1,816,0.0034127,0.000032057,0.00020434,1.0769,0.97454,31194.4349128116,0.0013025185,0.0012095074
6006,10.1002/adma.201004200,80,1(a),73,Na0.005Pb0.995Se1,Na0.005Pb0.995Se1,816.5,0.0033938,0.000032131,0.00020444,1.0766,0.97555,31122.5918894526,0.0013007909,0.0012082398
6006,10.1002/adma.201004200,80,1(a),73,Na0.005Pb0.995Se1,Na0.005Pb0.995Se1,817,0.0033749,0.000032205,0.00020454,1.0763,0.97657,31051.0790249961,0.0012990719,0.0012069794
6006,10.1002/adma.201004200,80,1(a),73,Na0.005Pb0.995Se1,Na0.005Pb0.995Se1,817.5,0.0033559,0.00003228,0.00020465,1.076,0.97759,30978.9343246592,0.001297448,0.0012058067
6006,10.1002/adma.201004200,80,1(a),73,Na0.005Pb0.995Se1,Na0.005Pb0.995Se1,818,0.003337,0.000032354,0.00020475,1.0757,0.97861,30908.0793719478,0.0012957459,0.0012045606
6006,10.1002/adma.201004200,80,1(a),73,Na0.005Pb0.995Se1,Na0.005Pb0.995Se1,818.5,0.003318,0.000032429,0.00020485,1.0754,0.97963,30836.5968731691,0.0012940122,0.0012032846
6006,10.1002/adma.201004200,80,1(a),73,Na0.005Pb0.995Se1,Na0.005Pb0.995Se1,819,0.0032991,0.000032504,0.00020494,1.0751,0.98065,30765.444253015,0.0012921611,0.0012018985
6006,10.1002/adma.201004200,80,1(a),73,Na0.005Pb0.995Se1,Na0.005Pb0.995Se1,819.5,0.0032801,0.000032579,0.00020504,1.0748,0.98167,30694.6192332484,0.0012904448,0.0012006372
6006,10.1002/adma.201004200,80,1(a),73,Na0.005Pb0.995Se1,Na0.005Pb0.995Se1,820,0.0032612,0.000032654,0.00020514,1.0745,0.98269,30624.1195565627,0.001288737,0.001199383
6006,10.1002/adma.201004200,80,1(a),73,Na0.005Pb0.995Se1,Na0.005Pb0.995Se1,820.5,0.0032422,0.000032729,0.00020523,1.0743,0.98371,30553.9429863424,0.0012869123,0.0011979078
6006,10.1002/adma.201004200,80,1(a),73,Na0.005Pb0.995Se1,Na0.005Pb0.995Se1,821,0.0032233,0.000032805,0.00020533,1.074,0.98473,30483.1580551745,0.0012851824,0.0011966317
6006,10.1002/adma.201004200,80,1(a),73,Na0.005Pb0.995Se1,Na0.005Pb0.995Se1,821.5,0.0032043,0.00003288,0.00020542,1.0737,0.98575,30413.6253041363,0.0012833752,0.0011952828
6006,10.1002/adma.201004200,80,1(a),73,Na0.005Pb0.995Se1,Na0.005Pb0.995Se1,822,0.0031854,0.000032956,0.00020551,1.0734,0.98677,30343.4882874135,0.0012815378,0.0011939052
6006,10.1002/adma.201004200,80,1(a),73,Na0.005Pb0.995Se1,Na0.005Pb0.995Se1,822.5,0.0031664,0.000033032,0.0002056,1.0732,0.98778,30273.6740130782,0.0012797094,0.0011924239
6006,10.1002/adma.201004200,80,1(a),73,Na0.005Pb0.995Se1,Na0.005Pb0.995Se1,823,0.0031475,0.000033108,0.00020569,1.0729,0.9888,30204.1802585478,0.0012778898,0.0011910614
6006,10.1002/adma.201004200,80,1(a),73,Na0.005Pb0.995Se1,Na0.005Pb0.995Se1,823.5,0.0031286,0.000033184,0.00020578,1.0726,0.98982,30135.0048216008,0.0012760791,0.0011897064
6006,10.1002/adma.201004200,80,1(a),73,Na0.005Pb0.995Se1,Na0.005Pb0.995Se1,824,0.0031096,0.000033261,0.00020586,1.0724,0.99084,30065.241574216,0.001274115,0.0011880968
6006,10.1002/adma.201004200,80,1(a),73,Na0.005Pb0.995Se1,Na0.005Pb0.995Se1,824.5,0.0030907,0.000033337,0.00020595,1.0721,0.99186,29996.7003629601,0.0012723221,0.0011867569
6006,10.1002/adma.201004200,80,1(a),73,Na0.005Pb0.995Se1,Na0.005Pb0.995Se1,825,0.0030717,0.000033414,0.00020603,1.0718,0.99288,29927.5752678518,0.0012703765,0.0011852739
6006,10.1002/adma.201004200,80,1(a),73,Na0.005Pb0.995Se1,Na0.005Pb0.995Se1,825.5,0.0030528,0.00003349,0.00020612,1.0716,0.9939,29859.6595998806,0.0012686012,0.0011838384
6006,10.1002/adma.201004200,80,1(a),73,Na0.005Pb0.995Se1,Na0.005Pb0.995Se1,826,0.0030338,0.000033567,0.0002062,1.0713,0.99492,29791.1639407752,0.0012666738,0.0011823708
6006,10.1002/adma.201004200,80,1(a),73,Na0.005Pb0.995Se1,Na0.005Pb0.995Se1,826.5,0.0030149,0.000033644,0.00020628,1.0711,0.99594,29722.9818095351,0.0012647556,0.0011808007
6006,10.1002/adma.201004200,80,1(a),73,Na0.005Pb0.995Se1,Na0.005Pb0.995Se1,827,0.0029959,0.000033722,0.00020636,1.0708,0.99696,29654.2316588577,0.0012628091,0.0011793137
6006,10.1002/adma.201004200,80,1(a),73,Na0.005Pb0.995Se1,Na0.005Pb0.995Se1,827.5,0.002977,0.000033799,0.00020644,1.0706,0.99798,29586.6741619575,0.0012609093,0.0011777595
6006,10.1002/adma.201004200,80,1(a),73,Na0.005Pb0.995Se1,Na0.005Pb0.995Se1,828,0.002958,0.000033876,0.00020651,1.0703,0.999,29519.4237808478,0.0012588966,0.0011762091
6006,10.1002/adma.201004200,80,1(a),73,Na0.005Pb0.995Se1,Na0.005Pb0.995Se1,828.5,0.0029391,0.000033954,0.00020659,1.0701,1,29451.6110031219,0.0012569779,0.0011746359
6006,10.1002/adma.201004200,80,1(a),73,Na0.005Pb0.995Se1,Na0.005Pb0.995Se1,829,0.0029202,0.000034032,0.00020666,1.0699,1.001,29384.1090738129,0.001254947,0.0011729573
6006,10.1002/adma.201004200,80,1(a),73,Na0.005Pb0.995Se1,Na0.005Pb0.995Se1,829.5,0.0029012,0.00003411,0.00020674,1.0696,1.0021,29316.9158604515,0.0012530468,0.0011715098
6006,10.1002/adma.201004200,80,1(a),73,Na0.005Pb0.995Se1,Na0.005Pb0.995Se1,830,0.0028823,0.000034188,0.00020681,1.0694,1.0031,29250.0292500293,0.0012510348,0.0011698473
6006,10.1002/adma.201004200,80,1(a),73,Na0.005Pb0.995Se1,Na0.005Pb0.995Se1,830.5,0.0028633,0.000034266,0.00020688,1.0692,1.0041,29183.4471487772,0.0012490321,0.0011681931
6006,10.1002/adma.201004200,80,1(a),73,Na0.005Pb0.995Se1,Na0.005Pb0.995Se1,831,0.0028444,0.000034345,0.00020695,1.0689,1.0051,29116.3196971903,0.0012470025,0.0011666223
6006,10.1002/adma.201004200,80,1(a),73,Na0.005Pb0.995Se1,Na0.005Pb0.995Se1,831.5,0.0028254,0.000034423,0.00020702,1.0687,1.0061,29050.3442465793,0.0012450187,0.0011649843
6006,10.1002/adma.201004200,80,1(a),73,Na0.005Pb0.995Se1,Na0.005Pb0.995Se1,832,0.0028065,0.000034502,0.00020708,1.0685,1.0072,28983.8270245203,0.0012428881,0.0011632084
6006,10.1002/adma.201004200,80,1(a),73,Na0.005Pb0.995Se1,Na0.005Pb0.995Se1,832.5,0.0027875,0.000034581,0.00020715,1.0682,1.0082,28917.6137185159,0.0012408873,0.0011616619
6006,10.1002/adma.201004200,80,1(a),73,Na0.005Pb0.995Se1,Na0.005Pb0.995Se1,833,0.0027686,0.00003466,0.00020721,1.068,1.0092,28851.7022504328,0.0012387762,0.0011599028
6006,10.1002/adma.201004200,80,1(a),73,Na0.005Pb0.995Se1,Na0.005Pb0.995Se1,833.5,0.0027496,0.000034739,0.00020728,1.0678,1.0102,28786.0905610409,0.0012367943,0.001158264
6006,10.1002/adma.201004200,80,1(a),73,Na0.005Pb0.995Se1,Na0.005Pb0.995Se1,834,0.0027307,0.000034818,0.00020734,1.0676,1.0112,28720.7766097995,0.0012347026,0.0011565217
6006,10.1002/adma.201004200,80,1(a),73,Na0.005Pb0.995Se1,Na0.005Pb0.995Se1,834.5,0.0027117,0.000034897,0.0002074,1.0674,1.0122,28655.7583746454,0.0012326206,0.0011547879
6006,10.1002/adma.201004200,80,1(a),73,Na0.005Pb0.995Se1,Na0.005Pb0.995Se1,835,0.0026928,0.000034977,0.00020746,1.0672,1.0133,28590.2164279384,0.001230513,0.0011530294