sid,DOI,figureid,fignum,sampleid,samplename,composition,Temperature,Carrier mobility,Electrical resistivity,Seebeck coefficient,Thermal conductivity,ZT,Electrical conductivity,Power factor,Figure of merit Z
6006,10.1002/adma.201004200,80,1(a),124,Na0.0125Pb0.9875Se1,Na0.0125Pb0.9875Se1,425,0.0093942,0.0000045703,0.000039287,2.835,0.021052,218804.0172417565,0.0003377171,0.0001191242
6006,10.1002/adma.201004200,80,1(a),124,Na0.0125Pb0.9875Se1,Na0.0125Pb0.9875Se1,425.5,0.0093863,0.0000045778,0.000039426,2.8319,0.022159,218445.5415264975,0.0003395538,0.0001199032
6006,10.1002/adma.201004200,80,1(a),124,Na0.0125Pb0.9875Se1,Na0.0125Pb0.9875Se1,426,0.0093783,0.0000045853,0.000039565,2.8287,0.023267,218088.2385012976,0.000341393,0.000120689
6006,10.1002/adma.201004200,80,1(a),124,Na0.0125Pb0.9875Se1,Na0.0125Pb0.9875Se1,426.5,0.0093704,0.0000045928,0.000039704,2.8256,0.024374,217732.102421181,0.0003432345,0.0001214732
6006,10.1002/adma.201004200,80,1(a),124,Na0.0125Pb0.9875Se1,Na0.0125Pb0.9875Se1,427,0.0093625,0.0000046003,0.000039843,2.8225,0.025482,217377.1275786362,0.0003450785,0.0001222599
6006,10.1002/adma.201004200,80,1(a),124,Na0.0125Pb0.9875Se1,Na0.0125Pb0.9875Se1,427.5,0.0093546,0.0000046078,0.000039982,2.8193,0.02659,217023.3083033118,0.0003469249,0.0001230535
6006,10.1002/adma.201004200,80,1(a),124,Na0.0125Pb0.9875Se1,Na0.0125Pb0.9875Se1,428,0.0093467,0.0000046154,0.000040122,2.8162,0.027697,216665.9444468518,0.0003487834,0.0001238489
6006,10.1002/adma.201004200,80,1(a),124,Na0.0125Pb0.9875Se1,Na0.0125Pb0.9875Se1,428.5,0.0093388,0.0000046229,0.000040262,2.8131,0.028805,216314.434662225,0.0003506519,0.0001246496
6006,10.1002/adma.201004200,80,1(a),124,Na0.0125Pb0.9875Se1,Na0.0125Pb0.9875Se1,429,0.0093309,0.0000046305,0.000040402,2.81,0.029913,215959.399632869,0.0003525152,0.0001254502
6006,10.1002/adma.201004200,80,1(a),124,Na0.0125Pb0.9875Se1,Na0.0125Pb0.9875Se1,429.5,0.0093229,0.0000046381,0.000040542,2.8069,0.03102,215605.5281257412,0.0003543808,0.0001262535
6006,10.1002/adma.201004200,80,1(a),124,Na0.0125Pb0.9875Se1,Na0.0125Pb0.9875Se1,430,0.009315,0.0000046456,0.000040682,2.8038,0.032128,215257.4479076976,0.0003562565,0.000127062
6006,10.1002/adma.201004200,80,1(a),124,Na0.0125Pb0.9875Se1,Na0.0125Pb0.9875Se1,430.5,0.0093071,0.0000046532,0.000040823,2.8007,0.033235,214905.871228402,0.0003581444,0.0001278767
6006,10.1002/adma.201004200,80,1(a),124,Na0.0125Pb0.9875Se1,Na0.0125Pb0.9875Se1,431,0.0092992,0.0000046608,0.000040964,2.7976,0.034343,214555.441125987,0.0003600346,0.0001286941
6006,10.1002/adma.201004200,80,1(a),124,Na0.0125Pb0.9875Se1,Na0.0125Pb0.9875Se1,431.5,0.0092913,0.0000046685,0.000041105,2.7945,0.035451,214201.5636714148,0.0003619195,0.0001295113
6006,10.1002/adma.201004200,80,1(a),124,Na0.0125Pb0.9875Se1,Na0.0125Pb0.9875Se1,432,0.0092834,0.0000046761,0.000041246,2.7915,0.036558,213853.4248625992,0.0003638144,0.0001303294
6006,10.1002/adma.201004200,80,1(a),124,Na0.0125Pb0.9875Se1,Na0.0125Pb0.9875Se1,432.5,0.0092755,0.0000046837,0.000041388,2.7884,0.037666,213506.4158677968,0.0003657293,0.000131161
6006,10.1002/adma.201004200,80,1(a),124,Na0.0125Pb0.9875Se1,Na0.0125Pb0.9875Se1,433,0.0092675,0.0000046914,0.000041529,2.7853,0.038774,213155.9875516903,0.0003676211,0.0001319862
6006,10.1002/adma.201004200,80,1(a),124,Na0.0125Pb0.9875Se1,Na0.0125Pb0.9875Se1,433.5,0.0092596,0.000004699,0.000041671,2.7823,0.039881,212811.2364332837,0.0003695408,0.0001328185
6006,10.1002/adma.201004200,80,1(a),124,Na0.0125Pb0.9875Se1,Na0.0125Pb0.9875Se1,434,0.0092517,0.0000047067,0.000041813,2.7792,0.040989,212463.0845390613,0.0003714549,0.0001336553
6006,10.1002/adma.201004200,80,1(a),124,Na0.0125Pb0.9875Se1,Na0.0125Pb0.9875Se1,434.5,0.0092438,0.0000047144,0.000041955,2.7762,0.042096,212116.0699134566,0.0003733714,0.0001344901
6006,10.1002/adma.201004200,80,1(a),124,Na0.0125Pb0.9875Se1,Na0.0125Pb0.9875Se1,435,0.0092359,0.0000047221,0.000042098,2.7731,0.043204,211770.1869930751,0.0003753079,0.0001353388
6006,10.1002/adma.201004200,80,1(a),124,Na0.0125Pb0.9875Se1,Na0.0125Pb0.9875Se1,435.5,0.009228,0.0000047298,0.00004224,2.7701,0.044312,211425.4302507506,0.000377229,0.0001361788
6006,10.1002/adma.201004200,80,1(a),124,Na0.0125Pb0.9875Se1,Na0.0125Pb0.9875Se1,436,0.0092201,0.0000047375,0.000042383,2.7671,0.045419,211081.7941952507,0.0003791702,0.000137028
6006,10.1002/adma.201004200,80,1(a),124,Na0.0125Pb0.9875Se1,Na0.0125Pb0.9875Se1,436.5,0.0092121,0.0000047452,0.000042526,2.7641,0.046527,210739.2733709854,0.0003811137,0.0001378798
6006,10.1002/adma.201004200,80,1(a),124,Na0.0125Pb0.9875Se1,Na0.0125Pb0.9875Se1,437,0.0092042,0.000004753,0.000042669,2.761,0.047635,210393.4357248054,0.0003830515,0.0001387365
6006,10.1002/adma.201004200,80,1(a),124,Na0.0125Pb0.9875Se1,Na0.0125Pb0.9875Se1,437.5,0.0091963,0.0000047607,0.000042812,2.758,0.048742,210053.1434452917,0.0003849995,0.0001395937
6006,10.1002/adma.201004200,80,1(a),124,Na0.0125Pb0.9875Se1,Na0.0125Pb0.9875Se1,438,0.0091884,0.0000047685,0.000042955,2.755,0.04985,209709.5522701059,0.0003869418,0.0001404507
6006,10.1002/adma.201004200,80,1(a),124,Na0.0125Pb0.9875Se1,Na0.0125Pb0.9875Se1,438.5,0.0091805,0.0000047763,0.000043099,2.752,0.050957,209367.0833071624,0.0003889043,0.000141317
6006,10.1002/adma.201004200,80,1(a),124,Na0.0125Pb0.9875Se1,Na0.0125Pb0.9875Se1,439,0.0091726,0.0000047841,0.000043242,2.749,0.052065,209025.7310674944,0.0003908511,0.0001421794
6006,10.1002/adma.201004200,80,1(a),124,Na0.0125Pb0.9875Se1,Na0.0125Pb0.9875Se1,439.5,0.0091647,0.0000047918,0.000043386,2.746,0.053173,208689.8451521349,0.0003928263,0.000143054
6006,10.1002/adma.201004200,80,1(a),124,Na0.0125Pb0.9875Se1,Na0.0125Pb0.9875Se1,440,0.0091567,0.0000047997,0.00004353,2.7431,0.05428,208346.3549805196,0.0003947874,0.0001439201
6006,10.1002/adma.201004200,80,1(a),124,Na0.0125Pb0.9875Se1,Na0.0125Pb0.9875Se1,440.5,0.0091488,0.0000048075,0.000043674,2.7401,0.055388,208008.3203328133,0.0003967589,0.0001447972
6006,10.1002/adma.201004200,80,1(a),124,Na0.0125Pb0.9875Se1,Na0.0125Pb0.9875Se1,441,0.0091409,0.0000048153,0.000043818,2.7371,0.056495,207671.380807011,0.0003987326,0.000145677
6006,10.1002/adma.201004200,80,1(a),124,Na0.0125Pb0.9875Se1,Na0.0125Pb0.9875Se1,441.5,0.009133,0.0000048231,0.000043962,2.7341,0.057603,207335.5310899629,0.0004007086,0.0001465596
6006,10.1002/adma.201004200,80,1(a),124,Na0.0125Pb0.9875Se1,Na0.0125Pb0.9875Se1,442,0.0091251,0.000004831,0.000044107,2.7312,0.058711,206996.481059822,0.0004026966,0.0001474431
6006,10.1002/adma.201004200,80,1(a),124,Na0.0125Pb0.9875Se1,Na0.0125Pb0.9875Se1,442.5,0.0091172,0.0000048388,0.000044251,2.7282,0.059818,206662.8089608994,0.000404677,0.0001483311
6006,10.1002/adma.201004200,80,1(a),124,Na0.0125Pb0.9875Se1,Na0.0125Pb0.9875Se1,443,0.0091093,0.0000048467,0.000044396,2.7253,0.060926,206325.9537417212,0.0004066694,0.0001492201
6006,10.1002/adma.201004200,80,1(a),124,Na0.0125Pb0.9875Se1,Na0.0125Pb0.9875Se1,443.5,0.0091013,0.0000048546,0.000044541,2.7223,0.062034,205990.1948667243,0.0004086641,0.0001501172
6006,10.1002/adma.201004200,80,1(a),124,Na0.0125Pb0.9875Se1,Na0.0125Pb0.9875Se1,444,0.0090934,0.0000048625,0.000044686,2.7194,0.063141,205655.5269922879,0.0004106609,0.0001510116
6006,10.1002/adma.201004200,80,1(a),124,Na0.0125Pb0.9875Se1,Na0.0125Pb0.9875Se1,444.5,0.0090855,0.0000048704,0.000044831,2.7164,0.064249,205321.9448094612,0.0004126599,0.0001519142
6006,10.1002/adma.201004200,80,1(a),124,Na0.0125Pb0.9875Se1,Na0.0125Pb0.9875Se1,445,0.0090776,0.0000048783,0.000044976,2.7135,0.065356,204989.4430436832,0.000414661,0.0001528141
6006,10.1002/adma.201004200,80,1(a),124,Na0.0125Pb0.9875Se1,Na0.0125Pb0.9875Se1,445.5,0.0090697,0.0000048862,0.000045121,2.7106,0.066464,204658.0164545045,0.0004166642,0.0001537166
6006,10.1002/adma.201004200,80,1(a),124,Na0.0125Pb0.9875Se1,Na0.0125Pb0.9875Se1,446,0.0090618,0.0000048942,0.000045267,2.7076,0.067572,204323.4849413592,0.0004186795,0.0001546312
6006,10.1002/adma.201004200,80,1(a),124,Na0.0125Pb0.9875Se1,Na0.0125Pb0.9875Se1,446.5,0.0090539,0.0000049021,0.000045412,2.7047,0.068679,203994.2065645336,0.000420687,0.0001555392
6006,10.1002/adma.201004200,80,1(a),124,Na0.0125Pb0.9875Se1,Na0.0125Pb0.9875Se1,447,0.0090459,0.0000049101,0.000045558,2.7018,0.069787,203661.8398810615,0.0004227065,0.0001564537
6006,10.1002/adma.201004200,80,1(a),124,Na0.0125Pb0.9875Se1,Na0.0125Pb0.9875Se1,447.5,0.009038,0.0000049181,0.000045704,2.6989,0.070895,203330.5544824221,0.0004247282,0.0001573708
6006,10.1002/adma.201004200,80,1(a),124,Na0.0125Pb0.9875Se1,Na0.0125Pb0.9875Se1,448,0.0090301,0.000004926,0.00004585,2.696,0.072002,203004.4660982542,0.0004267606,0.000158294
6006,10.1002/adma.201004200,80,1(a),124,Na0.0125Pb0.9875Se1,Na0.0125Pb0.9875Se1,448.5,0.0090222,0.000004934,0.000045995,2.6931,0.07311,202675.3141467369,0.0004287677,0.0001592097
6006,10.1002/adma.201004200,80,1(a),124,Na0.0125Pb0.9875Se1,Na0.0125Pb0.9875Se1,449,0.0090143,0.000004942,0.000046141,2.6902,0.074217,202347.2278429786,0.0004307956,0.0001601352
6006,10.1002/adma.201004200,80,1(a),124,Na0.0125Pb0.9875Se1,Na0.0125Pb0.9875Se1,449.5,0.0090064,0.00000495,0.000046288,2.6873,0.075325,202020.202020202,0.0004328442,0.0001610703
6006,10.1002/adma.201004200,80,1(a),124,Na0.0125Pb0.9875Se1,Na0.0125Pb0.9875Se1,450,0.0089985,0.0000049581,0.000046434,2.6844,0.076433,201690.1635707227,0.0004348675,0.000161998
6006,10.1002/adma.201004200,80,1(a),124,Na0.0125Pb0.9875Se1,Na0.0125Pb0.9875Se1,450.5,0.0089905,0.0000049661,0.00004658,2.6815,0.07754,201365.2564386541,0.0004369015,0.0001629317
6006,10.1002/adma.201004200,80,1(a),124,Na0.0125Pb0.9875Se1,Na0.0125Pb0.9875Se1,451,0.0089826,0.0000049742,0.000046726,2.6787,0.078648,201037.3527401391,0.0004389287,0.0001638588
6006,10.1002/adma.201004200,80,1(a),124,Na0.0125Pb0.9875Se1,Na0.0125Pb0.9875Se1,451.5,0.0089747,0.0000049822,0.000046873,2.6758,0.079756,200714.543775842,0.0004409855,0.0001648051
6006,10.1002/adma.201004200,80,1(a),124,Na0.0125Pb0.9875Se1,Na0.0125Pb0.9875Se1,452,0.0089668,0.0000049903,0.000047019,2.6729,0.080863,200388.7541831152,0.0004430167,0.0001657438
6006,10.1002/adma.201004200,80,1(a),124,Na0.0125Pb0.9875Se1,Na0.0125Pb0.9875Se1,452.5,0.0089589,0.0000049984,0.000047166,2.6701,0.081971,200064.0204865557,0.0004450687,0.0001666862
6006,10.1002/adma.201004200,80,1(a),124,Na0.0125Pb0.9875Se1,Na0.0125Pb0.9875Se1,453,0.008951,0.0000050065,0.000047313,2.6672,0.083078,199740.3375611705,0.0004471227,0.0001676375
6006,10.1002/adma.201004200,80,1(a),124,Na0.0125Pb0.9875Se1,Na0.0125Pb0.9875Se1,453.5,0.0089431,0.0000050146,0.00004746,2.6643,0.084186,199417.7003150799,0.0004491787,0.0001685916
6006,10.1002/adma.201004200,80,1(a),124,Na0.0125Pb0.9875Se1,Na0.0125Pb0.9875Se1,454,0.0089351,0.0000050227,0.000047606,2.6615,0.085294,199096.1036892508,0.0004512177,0.0001695351
6006,10.1002/adma.201004200,80,1(a),124,Na0.0125Pb0.9875Se1,Na0.0125Pb0.9875Se1,454.5,0.0089272,0.0000050308,0.000047753,2.6586,0.086401,198775.5426572314,0.0004532776,0.0001704949
6006,10.1002/adma.201004200,80,1(a),124,Na0.0125Pb0.9875Se1,Na0.0125Pb0.9875Se1,455,0.0089193,0.0000050389,0.0000479,2.6558,0.087509,198456.0122248903,0.0004553395,0.000171451
6006,10.1002/adma.201004200,80,1(a),124,Na0.0125Pb0.9875Se1,Na0.0125Pb0.9875Se1,455.5,0.0089114,0.0000050471,0.000048047,2.653,0.088617,198133.5816607557,0.0004573942,0.0001724064
6006,10.1002/adma.201004200,80,1(a),124,Na0.0125Pb0.9875Se1,Na0.0125Pb0.9875Se1,456,0.0089035,0.0000050553,0.000048194,2.6501,0.089724,197812.1971000732,0.0004594508,0.0001733711
6006,10.1002/adma.201004200,80,1(a),124,Na0.0125Pb0.9875Se1,Na0.0125Pb0.9875Se1,456.5,0.0088956,0.0000050634,0.000048342,2.6473,0.090832,197495.7538412924,0.0004615375,0.0001743427
6006,10.1002/adma.201004200,80,1(a),124,Na0.0125Pb0.9875Se1,Na0.0125Pb0.9875Se1,457,0.0088877,0.0000050716,0.000048489,2.6445,0.091939,197176.4334726713,0.0004635979,0.0001753064
6006,10.1002/adma.201004200,80,1(a),124,Na0.0125Pb0.9875Se1,Na0.0125Pb0.9875Se1,457.5,0.0088797,0.0000050798,0.000048636,2.6417,0.093047,196858.1440214182,0.0004656602,0.0001762729
6006,10.1002/adma.201004200,80,1(a),124,Na0.0125Pb0.9875Se1,Na0.0125Pb0.9875Se1,458,0.0088718,0.000005088,0.000048783,2.6389,0.094155,196540.8805031446,0.0004677243,0.0001772421
6006,10.1002/adma.201004200,80,1(a),124,Na0.0125Pb0.9875Se1,Na0.0125Pb0.9875Se1,458.5,0.0088639,0.0000050962,0.000048931,2.636,0.095262,196224.637965543,0.0004698094,0.0001782282
6006,10.1002/adma.201004200,80,1(a),124,Na0.0125Pb0.9875Se1,Na0.0125Pb0.9875Se1,459,0.008856,0.0000051044,0.000049078,2.6332,0.09637,195909.4114881279,0.0004718772,0.000179203
6006,10.1002/adma.201004200,80,1(a),124,Na0.0125Pb0.9875Se1,Na0.0125Pb0.9875Se1,459.5,0.0088481,0.0000051127,0.000049226,2.6304,0.097477,195591.3705087331,0.0004739568,0.0001801843
6006,10.1002/adma.201004200,80,1(a),124,Na0.0125Pb0.9875Se1,Na0.0125Pb0.9875Se1,460,0.0088402,0.0000051209,0.000049373,2.6276,0.098585,195278.173758519,0.0004760283,0.0001811647
6006,10.1002/adma.201004200,80,1(a),124,Na0.0125Pb0.9875Se1,Na0.0125Pb0.9875Se1,460.5,0.0088323,0.0000051292,0.000049521,2.6248,0.099693,194962.1773375965,0.0004781115,0.0001821516
6006,10.1002/adma.201004200,80,1(a),124,Na0.0125Pb0.9875Se1,Na0.0125Pb0.9875Se1,461,0.0088243,0.0000051375,0.000049668,2.6221,0.1008,194647.201946472,0.0004801772,0.0001831269
6006,10.1002/adma.201004200,80,1(a),124,Na0.0125Pb0.9875Se1,Na0.0125Pb0.9875Se1,461.5,0.0088164,0.0000051457,0.000049816,2.6193,0.10191,194337.0192587986,0.0004822733,0.000184123
6006,10.1002/adma.201004200,80,1(a),124,Na0.0125Pb0.9875Se1,Na0.0125Pb0.9875Se1,462,0.0088085,0.000005154,0.000049964,2.6165,0.10302,194024.0589833139,0.0004843619,0.0001851183
6006,10.1002/adma.201004200,80,1(a),124,Na0.0125Pb0.9875Se1,Na0.0125Pb0.9875Se1,462.5,0.0088006,0.0000051623,0.000050112,2.6137,0.10412,193712.1050694458,0.0004864523,0.0001861163
6006,10.1002/adma.201004200,80,1(a),124,Na0.0125Pb0.9875Se1,Na0.0125Pb0.9875Se1,463,0.0087927,0.0000051707,0.000050259,2.6109,0.10523,193397.4123426228,0.0004885155,0.0001871062
6006,10.1002/adma.201004200,80,1(a),124,Na0.0125Pb0.9875Se1,Na0.0125Pb0.9875Se1,463.5,0.0087848,0.000005179,0.000050407,2.6082,0.10634,193087.4686232863,0.0004906093,0.0001881026
6006,10.1002/adma.201004200,80,1(a),124,Na0.0125Pb0.9875Se1,Na0.0125Pb0.9875Se1,464,0.0087769,0.0000051873,0.000050555,2.6054,0.10745,192778.516762092,0.0004927049,0.0001891091
6006,10.1002/adma.201004200,80,1(a),124,Na0.0125Pb0.9875Se1,Na0.0125Pb0.9875Se1,464.5,0.0087689,0.0000051957,0.000050703,2.6026,0.10855,192466.8475855034,0.0004947927,0.0001901148
6006,10.1002/adma.201004200,80,1(a),124,Na0.0125Pb0.9875Se1,Na0.0125Pb0.9875Se1,465,0.008761,0.000005204,0.000050851,2.5999,0.10966,192159.8770176787,0.0004968917,0.0001911195
6006,10.1002/adma.201004200,80,1(a),124,Na0.0125Pb0.9875Se1,Na0.0125Pb0.9875Se1,465.5,0.0087531,0.0000052124,0.000050999,2.5971,0.11077,191850.2033612156,0.0004989828,0.0001921308
6006,10.1002/adma.201004200,80,1(a),124,Na0.0125Pb0.9875Se1,Na0.0125Pb0.9875Se1,466,0.0087452,0.0000052208,0.000051147,2.5944,0.11188,191541.5262028808,0.0005010756,0.0001931374
6006,10.1002/adma.201004200,80,1(a),124,Na0.0125Pb0.9875Se1,Na0.0125Pb0.9875Se1,466.5,0.0087373,0.0000052292,0.000051295,2.5916,0.11298,191233.8407404574,0.0005031701,0.0001941542
6006,10.1002/adma.201004200,80,1(a),124,Na0.0125Pb0.9875Se1,Na0.0125Pb0.9875Se1,467,0.0087294,0.0000052376,0.000051443,2.5889,0.11409,190927.1422025355,0.0005052662,0.0001951664
6006,10.1002/adma.201004200,80,1(a),124,Na0.0125Pb0.9875Se1,Na0.0125Pb0.9875Se1,467.5,0.0087215,0.000005246,0.000051591,2.5861,0.1152,190621.4258482653,0.0005073639,0.0001961888
6006,10.1002/adma.201004200,80,1(a),124,Na0.0125Pb0.9875Se1,Na0.0125Pb0.9875Se1,468,0.0087135,0.0000052545,0.000051739,2.5834,0.11631,190313.0649919117,0.0005094536,0.0001972028
6006,10.1002/adma.201004200,80,1(a),124,Na0.0125Pb0.9875Se1,Na0.0125Pb0.9875Se1,468.5,0.0087056,0.0000052629,0.000051887,2.5807,0.11741,190009.3104562123,0.0005115546,0.0001982232
6006,10.1002/adma.201004200,80,1(a),124,Na0.0125Pb0.9875Se1,Na0.0125Pb0.9875Se1,469,0.0086977,0.0000052713,0.000052035,2.578,0.11852,189706.5240073606,0.0005136572,0.0001992464
6006,10.1002/adma.201004200,80,1(a),124,Na0.0125Pb0.9875Se1,Na0.0125Pb0.9875Se1,469.5,0.0086898,0.0000052798,0.000052183,2.5752,0.11963,189401.1136785484,0.0005157516,0.0002002763
6006,10.1002/adma.201004200,80,1(a),124,Na0.0125Pb0.9875Se1,Na0.0125Pb0.9875Se1,470,0.0086819,0.0000052883,0.000052331,2.5725,0.12074,189096.6851351096,0.0005178476,0.0002013013
6006,10.1002/adma.201004200,80,1(a),124,Na0.0125Pb0.9875Se1,Na0.0125Pb0.9875Se1,470.5,0.008674,0.0000052968,0.000052479,2.5698,0.12185,188793.233650506,0.0005199451,0.000202329
6006,10.1002/adma.201004200,80,1(a),124,Na0.0125Pb0.9875Se1,Na0.0125Pb0.9875Se1,471,0.0086661,0.0000053053,0.000052627,2.5671,0.12295,188490.7545284904,0.0005220442,0.0002033595
6006,10.1002/adma.201004200,80,1(a),124,Na0.0125Pb0.9875Se1,Na0.0125Pb0.9875Se1,471.5,0.0086581,0.0000053138,0.000052775,2.5644,0.12406,188189.2431028642,0.0005241448,0.0002043928
6006,10.1002/adma.201004200,80,1(a),124,Na0.0125Pb0.9875Se1,Na0.0125Pb0.9875Se1,472,0.0086502,0.0000053223,0.000052923,2.5617,0.12517,187888.6947372377,0.0005262469,0.0002054288
6006,10.1002/adma.201004200,80,1(a),124,Na0.0125Pb0.9875Se1,Na0.0125Pb0.9875Se1,472.5,0.0086423,0.0000053309,0.000053072,2.559,0.12628,187585.5859235776,0.0005283605,0.0002064715
6006,10.1002/adma.201004200,80,1(a),124,Na0.0125Pb0.9875Se1,Na0.0125Pb0.9875Se1,473,0.0086344,0.0000053394,0.00005322,2.5563,0.12738,187286.9610817695,0.0005304657,0.0002075131
6006,10.1002/adma.201004200,80,1(a),124,Na0.0125Pb0.9875Se1,Na0.0125Pb0.9875Se1,473.5,0.0086265,0.000005348,0.000053368,2.5536,0.12849,186985.7890800299,0.0005325623,0.0002085536
6006,10.1002/adma.201004200,80,1(a),124,Na0.0125Pb0.9875Se1,Na0.0125Pb0.9875Se1,474,0.0086186,0.0000053565,0.000053516,2.5509,0.1296,186689.0693549892,0.0005346704,0.0002096007
6006,10.1002/adma.201004200,80,1(a),124,Na0.0125Pb0.9875Se1,Na0.0125Pb0.9875Se1,474.5,0.0086107,0.0000053651,0.000053664,2.5482,0.13071,186389.8156604723,0.00053677,0.0002106467
6006,10.1002/adma.201004200,80,1(a),124,Na0.0125Pb0.9875Se1,Na0.0125Pb0.9875Se1,475,0.0086027,0.0000053737,0.000053812,2.5455,0.13181,186091.5198094423,0.000538871,0.0002116956
6006,10.1002/adma.201004200,80,1(a),124,Na0.0125Pb0.9875Se1,Na0.0125Pb0.9875Se1,475.5,0.0085948,0.0000053823,0.00005396,2.5428,0.13292,185794.1772104862,0.0005409735,0.0002127472
6006,10.1002/adma.201004200,80,1(a),124,Na0.0125Pb0.9875Se1,Na0.0125Pb0.9875Se1,476,0.0085869,0.0000053909,0.000054108,2.5401,0.13403,185497.7833014895,0.0005430773,0.0002138016
6006,10.1002/adma.201004200,80,1(a),124,Na0.0125Pb0.9875Se1,Na0.0125Pb0.9875Se1,476.5,0.008579,0.0000053996,0.000054257,2.5375,0.13514,185198.9036224906,0.0005451926,0.0002148542
6006,10.1002/adma.201004200,80,1(a),124,Na0.0125Pb0.9875Se1,Na0.0125Pb0.9875Se1,477,0.0085711,0.0000054082,0.000054405,2.5348,0.13624,184904.4044229134,0.0005472993,0.0002159142
6006,10.1002/adma.201004200,80,1(a),124,Na0.0125Pb0.9875Se1,Na0.0125Pb0.9875Se1,477.5,0.0085632,0.0000054169,0.000054553,2.5321,0.13735,184607.4322952242,0.0005493972,0.000216973
6006,10.1002/adma.201004200,80,1(a),124,Na0.0125Pb0.9875Se1,Na0.0125Pb0.9875Se1,478,0.0085553,0.0000054255,0.000054701,2.5295,0.13846,184314.809694959,0.0005515067,0.0002180299
6006,10.1002/adma.201004200,80,1(a),124,Na0.0125Pb0.9875Se1,Na0.0125Pb0.9875Se1,478.5,0.0085473,0.0000054342,0.000054849,2.5268,0.13957,184019.7269147252,0.0005536073,0.0002190942
6006,10.1002/adma.201004200,80,1(a),124,Na0.0125Pb0.9875Se1,Na0.0125Pb0.9875Se1,479,0.0085394,0.0000054429,0.000054997,2.5242,0.14067,183725.5874625659,0.0005557093,0.0002201526
6006,10.1002/adma.201004200,80,1(a),124,Na0.0125Pb0.9875Se1,Na0.0125Pb0.9875Se1,479.5,0.0085315,0.0000054516,0.000055145,2.5215,0.14178,183432.3868222173,0.0005578126,0.0002212225