sid,DOI,figureid,fignum,sampleid,samplename,composition,Temperature,Electrical conductivity,Power factor,Seebeck coefficient,Thermal conductivity,ZT,Electrical resistivity,Figure of merit Z
3503,10.1021/ja400069s,105,6(a),203,Pb0.96Ba0.03Na0.01Se1,Pb0.96Ba0.03Na0.01Se1,329.5,156780,0.00045966,0.00004244,2.3693,-0.055109,0.0000063784,0.0001940067
3503,10.1021/ja400069s,105,6(a),203,Pb0.96Ba0.03Na0.01Se1,Pb0.96Ba0.03Na0.01Se1,330,156540,0.00046052,0.000042555,2.3668,-0.054033,0.0000063881,0.000194575
3503,10.1021/ja400069s,105,6(a),203,Pb0.96Ba0.03Na0.01Se1,Pb0.96Ba0.03Na0.01Se1,330.5,156300,0.00046139,0.000042671,2.3642,-0.052957,0.000006398,0.0001951569
3503,10.1021/ja400069s,105,6(a),203,Pb0.96Ba0.03Na0.01Se1,Pb0.96Ba0.03Na0.01Se1,331,156060,0.00046225,0.000042786,2.3616,-0.051881,0.0000064078,0.0001957359
3503,10.1021/ja400069s,105,6(a),203,Pb0.96Ba0.03Na0.01Se1,Pb0.96Ba0.03Na0.01Se1,331.5,155830,0.00046311,0.000042901,2.359,-0.050805,0.0000064172,0.0001963162
3503,10.1021/ja400069s,105,6(a),203,Pb0.96Ba0.03Na0.01Se1,Pb0.96Ba0.03Na0.01Se1,332,155590,0.00046397,0.000043016,2.3564,-0.049729,0.0000064271,0.0001968978
3503,10.1021/ja400069s,105,6(a),203,Pb0.96Ba0.03Na0.01Se1,Pb0.96Ba0.03Na0.01Se1,332.5,155350,0.00046484,0.000043131,2.3538,-0.048653,0.0000064371,0.0001974849
3503,10.1021/ja400069s,105,6(a),203,Pb0.96Ba0.03Na0.01Se1,Pb0.96Ba0.03Na0.01Se1,333,155110,0.0004657,0.000043246,2.3512,-0.047577,0.000006447,0.0001980691
3503,10.1021/ja400069s,105,6(a),203,Pb0.96Ba0.03Na0.01Se1,Pb0.96Ba0.03Na0.01Se1,333.5,154880,0.00046656,0.000043362,2.3487,-0.046501,0.0000064566,0.0001986461
3503,10.1021/ja400069s,105,6(a),203,Pb0.96Ba0.03Na0.01Se1,Pb0.96Ba0.03Na0.01Se1,334,154640,0.00046743,0.000043477,2.3461,-0.045426,0.0000064666,0.000199237
3503,10.1021/ja400069s,105,6(a),203,Pb0.96Ba0.03Na0.01Se1,Pb0.96Ba0.03Na0.01Se1,334.5,154400,0.00046829,0.000043592,2.3435,-0.04435,0.0000064767,0.000199825
3503,10.1021/ja400069s,105,6(a),203,Pb0.96Ba0.03Na0.01Se1,Pb0.96Ba0.03Na0.01Se1,335,154170,0.00046915,0.000043707,2.341,-0.043274,0.0000064863,0.0002004058
3503,10.1021/ja400069s,105,6(a),203,Pb0.96Ba0.03Na0.01Se1,Pb0.96Ba0.03Na0.01Se1,335.5,153930,0.00047002,0.000043822,2.3384,-0.042198,0.0000064965,0.0002010007
3503,10.1021/ja400069s,105,6(a),203,Pb0.96Ba0.03Na0.01Se1,Pb0.96Ba0.03Na0.01Se1,336,153700,0.00047088,0.000043938,2.3358,-0.041122,0.0000065062,0.0002015926
3503,10.1021/ja400069s,105,6(a),203,Pb0.96Ba0.03Na0.01Se1,Pb0.96Ba0.03Na0.01Se1,336.5,153460,0.00047174,0.000044053,2.3333,-0.040046,0.0000065164,0.0002021772
3503,10.1021/ja400069s,105,6(a),203,Pb0.96Ba0.03Na0.01Se1,Pb0.96Ba0.03Na0.01Se1,337,153230,0.00047261,0.000044168,2.3307,-0.03897,0.0000065261,0.000202776
3503,10.1021/ja400069s,105,6(a),203,Pb0.96Ba0.03Na0.01Se1,Pb0.96Ba0.03Na0.01Se1,337.5,152990,0.00047347,0.000044284,2.3282,-0.037894,0.0000065364,0.0002033631
3503,10.1021/ja400069s,105,6(a),203,Pb0.96Ba0.03Na0.01Se1,Pb0.96Ba0.03Na0.01Se1,338,152750,0.00047433,0.000044399,2.3256,-0.036818,0.0000065466,0.0002039603
3503,10.1021/ja400069s,105,6(a),203,Pb0.96Ba0.03Na0.01Se1,Pb0.96Ba0.03Na0.01Se1,338.5,152520,0.0004752,0.000044515,2.3231,-0.035742,0.0000065565,0.0002045543
3503,10.1021/ja400069s,105,6(a),203,Pb0.96Ba0.03Na0.01Se1,Pb0.96Ba0.03Na0.01Se1,339,152290,0.00047606,0.00004463,2.3206,-0.034666,0.0000065664,0.0002051452
3503,10.1021/ja400069s,105,6(a),203,Pb0.96Ba0.03Na0.01Se1,Pb0.96Ba0.03Na0.01Se1,339.5,152050,0.00047692,0.000044746,2.318,-0.03359,0.0000065768,0.0002057463
3503,10.1021/ja400069s,105,6(a),203,Pb0.96Ba0.03Na0.01Se1,Pb0.96Ba0.03Na0.01Se1,340,151820,0.00047779,0.000044861,2.3155,-0.032514,0.0000065867,0.0002063442
3503,10.1021/ja400069s,105,6(a),203,Pb0.96Ba0.03Na0.01Se1,Pb0.96Ba0.03Na0.01Se1,340.5,151580,0.00047865,0.000044977,2.313,-0.031438,0.0000065972,0.000206939
3503,10.1021/ja400069s,105,6(a),203,Pb0.96Ba0.03Na0.01Se1,Pb0.96Ba0.03Na0.01Se1,341,151350,0.00047951,0.000045093,2.3104,-0.030362,0.0000066072,0.0002075441
3503,10.1021/ja400069s,105,6(a),203,Pb0.96Ba0.03Na0.01Se1,Pb0.96Ba0.03Na0.01Se1,341.5,151120,0.00048038,0.000045209,2.3079,-0.029286,0.0000066173,0.0002081459
3503,10.1021/ja400069s,105,6(a),203,Pb0.96Ba0.03Na0.01Se1,Pb0.96Ba0.03Na0.01Se1,342,150880,0.00048124,0.000045324,2.3054,-0.02821,0.0000066278,0.0002087447
3503,10.1021/ja400069s,105,6(a),203,Pb0.96Ba0.03Na0.01Se1,Pb0.96Ba0.03Na0.01Se1,342.5,150650,0.0004821,0.00004544,2.3029,-0.027134,0.0000066379,0.0002093447
3503,10.1021/ja400069s,105,6(a),203,Pb0.96Ba0.03Na0.01Se1,Pb0.96Ba0.03Na0.01Se1,343,150420,0.00048297,0.000045556,2.3004,-0.026058,0.0000066481,0.0002099504
3503,10.1021/ja400069s,105,6(a),203,Pb0.96Ba0.03Na0.01Se1,Pb0.96Ba0.03Na0.01Se1,343.5,150190,0.00048383,0.000045672,2.2978,-0.024982,0.0000066582,0.0002105623
3503,10.1021/ja400069s,105,6(a),203,Pb0.96Ba0.03Na0.01Se1,Pb0.96Ba0.03Na0.01Se1,344,149950,0.00048469,0.000045788,2.2953,-0.023906,0.0000066689,0.0002111663
3503,10.1021/ja400069s,105,6(a),203,Pb0.96Ba0.03Na0.01Se1,Pb0.96Ba0.03Na0.01Se1,344.5,149720,0.00048556,0.000045904,2.2928,-0.02283,0.0000066791,0.000211776
3503,10.1021/ja400069s,105,6(a),203,Pb0.96Ba0.03Na0.01Se1,Pb0.96Ba0.03Na0.01Se1,345,149490,0.00048642,0.000046021,2.2903,-0.021754,0.0000066894,0.0002123827
3503,10.1021/ja400069s,105,6(a),203,Pb0.96Ba0.03Na0.01Se1,Pb0.96Ba0.03Na0.01Se1,345.5,149260,0.00048728,0.000046137,2.2878,-0.020678,0.0000066997,0.0002129906
3503,10.1021/ja400069s,105,6(a),203,Pb0.96Ba0.03Na0.01Se1,Pb0.96Ba0.03Na0.01Se1,346,149030,0.00048815,0.000046253,2.2853,-0.019602,0.0000067101,0.0002136043
3503,10.1021/ja400069s,105,6(a),203,Pb0.96Ba0.03Na0.01Se1,Pb0.96Ba0.03Na0.01Se1,346.5,148790,0.00048901,0.00004637,2.2828,-0.018526,0.0000067209,0.000214215
3503,10.1021/ja400069s,105,6(a),203,Pb0.96Ba0.03Na0.01Se1,Pb0.96Ba0.03Na0.01Se1,347,148560,0.00048987,0.000046486,2.2803,-0.01745,0.0000067313,0.000214827
3503,10.1021/ja400069s,105,6(a),203,Pb0.96Ba0.03Na0.01Se1,Pb0.96Ba0.03Na0.01Se1,347.5,148330,0.00049074,0.000046603,2.2779,-0.016374,0.0000067417,0.0002154353
3503,10.1021/ja400069s,105,6(a),203,Pb0.96Ba0.03Na0.01Se1,Pb0.96Ba0.03Na0.01Se1,348,148100,0.0004916,0.00004672,2.2754,-0.015298,0.0000067522,0.0002160499
3503,10.1021/ja400069s,105,6(a),203,Pb0.96Ba0.03Na0.01Se1,Pb0.96Ba0.03Na0.01Se1,348.5,147870,0.00049246,0.000046836,2.2729,-0.014222,0.0000067627,0.0002166659
3503,10.1021/ja400069s,105,6(a),203,Pb0.96Ba0.03Na0.01Se1,Pb0.96Ba0.03Na0.01Se1,349,147640,0.00049333,0.000046953,2.2704,-0.013146,0.0000067732,0.0002172877
3503,10.1021/ja400069s,105,6(a),203,Pb0.96Ba0.03Na0.01Se1,Pb0.96Ba0.03Na0.01Se1,349.5,147410,0.00049419,0.00004707,2.2679,-0.01207,0.0000067838,0.0002179064
3503,10.1021/ja400069s,105,6(a),203,Pb0.96Ba0.03Na0.01Se1,Pb0.96Ba0.03Na0.01Se1,350,147180,0.00049505,0.000047187,2.2655,-0.010994,0.0000067944,0.0002185169
3503,10.1021/ja400069s,105,6(a),203,Pb0.96Ba0.03Na0.01Se1,Pb0.96Ba0.03Na0.01Se1,350.5,146950,0.00049592,0.000047304,2.263,-0.0099179,0.000006805,0.0002191427
3503,10.1021/ja400069s,105,6(a),203,Pb0.96Ba0.03Na0.01Se1,Pb0.96Ba0.03Na0.01Se1,351,146720,0.00049678,0.000047422,2.2605,-0.0088419,0.0000068157,0.0002197655
3503,10.1021/ja400069s,105,6(a),203,Pb0.96Ba0.03Na0.01Se1,Pb0.96Ba0.03Na0.01Se1,351.5,146490,0.00049764,0.000047539,2.2581,-0.0077659,0.0000068264,0.00022038
3503,10.1021/ja400069s,105,6(a),203,Pb0.96Ba0.03Na0.01Se1,Pb0.96Ba0.03Na0.01Se1,352,146270,0.00049851,0.000047656,2.2556,-0.0066899,0.0000068367,0.0002210099
3503,10.1021/ja400069s,105,6(a),203,Pb0.96Ba0.03Na0.01Se1,Pb0.96Ba0.03Na0.01Se1,352.5,146040,0.00049937,0.000047774,2.2532,-0.005614,0.0000068474,0.000221627
3503,10.1021/ja400069s,105,6(a),203,Pb0.96Ba0.03Na0.01Se1,Pb0.96Ba0.03Na0.01Se1,353,145810,0.00050023,0.000047892,2.2507,-0.004538,0.0000068582,0.0002222553
3503,10.1021/ja400069s,105,6(a),203,Pb0.96Ba0.03Na0.01Se1,Pb0.96Ba0.03Na0.01Se1,353.5,145580,0.0005011,0.000048009,2.2482,-0.003462,0.0000068691,0.0002228894
3503,10.1021/ja400069s,105,6(a),203,Pb0.96Ba0.03Na0.01Se1,Pb0.96Ba0.03Na0.01Se1,354,145350,0.00050196,0.000048127,2.2458,-0.002386,0.0000068799,0.0002235106
3503,10.1021/ja400069s,105,6(a),203,Pb0.96Ba0.03Na0.01Se1,Pb0.96Ba0.03Na0.01Se1,354.5,145130,0.00050282,0.000048245,2.2434,-0.00131,0.0000068904,0.000224133
3503,10.1021/ja400069s,105,6(a),203,Pb0.96Ba0.03Na0.01Se1,Pb0.96Ba0.03Na0.01Se1,355,144900,0.00050368,0.000048363,2.2409,-0.00023402,0.0000069013,0.0002247668
3503,10.1021/ja400069s,105,6(a),203,Pb0.96Ba0.03Na0.01Se1,Pb0.96Ba0.03Na0.01Se1,355.5,144670,0.00050455,0.000048482,2.2385,0.00084197,0.0000069123,0.0002253965
3503,10.1021/ja400069s,105,6(a),203,Pb0.96Ba0.03Na0.01Se1,Pb0.96Ba0.03Na0.01Se1,356,144440,0.00050541,0.0000486,2.236,0.001918,0.0000069233,0.0002260331
3503,10.1021/ja400069s,105,6(a),203,Pb0.96Ba0.03Na0.01Se1,Pb0.96Ba0.03Na0.01Se1,356.5,144220,0.00050627,0.000048719,2.2336,0.0029939,0.0000069339,0.000226661
3503,10.1021/ja400069s,105,6(a),203,Pb0.96Ba0.03Na0.01Se1,Pb0.96Ba0.03Na0.01Se1,357,143990,0.00050714,0.000048837,2.2312,0.0040699,0.0000069449,0.0002272947
3503,10.1021/ja400069s,105,6(a),203,Pb0.96Ba0.03Na0.01Se1,Pb0.96Ba0.03Na0.01Se1,357.5,143760,0.000508,0.000048956,2.2288,0.0051459,0.000006956,0.0002279253
3503,10.1021/ja400069s,105,6(a),203,Pb0.96Ba0.03Na0.01Se1,Pb0.96Ba0.03Na0.01Se1,358,143540,0.00050886,0.000049075,2.2263,0.0062219,0.0000069667,0.0002285676
3503,10.1021/ja400069s,105,6(a),203,Pb0.96Ba0.03Na0.01Se1,Pb0.96Ba0.03Na0.01Se1,358.5,143310,0.00050973,0.000049194,2.2239,0.0072979,0.0000069779,0.0002292054
3503,10.1021/ja400069s,105,6(a),203,Pb0.96Ba0.03Na0.01Se1,Pb0.96Ba0.03Na0.01Se1,359,143090,0.00051059,0.000049313,2.2215,0.0083739,0.0000069886,0.0002298402
3503,10.1021/ja400069s,105,6(a),203,Pb0.96Ba0.03Na0.01Se1,Pb0.96Ba0.03Na0.01Se1,359.5,142860,0.00051145,0.000049432,2.2191,0.0094499,0.0000069999,0.0002304763
3503,10.1021/ja400069s,105,6(a),203,Pb0.96Ba0.03Na0.01Se1,Pb0.96Ba0.03Na0.01Se1,360,142640,0.00051232,0.000049551,2.2167,0.010526,0.0000070107,0.0002311183
3503,10.1021/ja400069s,105,6(a),203,Pb0.96Ba0.03Na0.01Se1,Pb0.96Ba0.03Na0.01Se1,360.5,142410,0.00051318,0.000049671,2.2143,0.011602,0.000007022,0.0002317572
3503,10.1021/ja400069s,105,6(a),203,Pb0.96Ba0.03Na0.01Se1,Pb0.96Ba0.03Na0.01Se1,361,142190,0.00051404,0.000049791,2.2119,0.012678,0.0000070328,0.0002323975
3503,10.1021/ja400069s,105,6(a),203,Pb0.96Ba0.03Na0.01Se1,Pb0.96Ba0.03Na0.01Se1,361.5,141960,0.00051491,0.00004991,2.2095,0.013754,0.0000070442,0.0002330437
3503,10.1021/ja400069s,105,6(a),203,Pb0.96Ba0.03Na0.01Se1,Pb0.96Ba0.03Na0.01Se1,362,141740,0.00051577,0.00005003,2.2071,0.01483,0.0000070552,0.0002336867
3503,10.1021/ja400069s,105,6(a),203,Pb0.96Ba0.03Na0.01Se1,Pb0.96Ba0.03Na0.01Se1,362.5,141510,0.00051663,0.00005015,2.2047,0.015906,0.0000070666,0.0002343312
3503,10.1021/ja400069s,105,6(a),203,Pb0.96Ba0.03Na0.01Se1,Pb0.96Ba0.03Na0.01Se1,363,141290,0.0005175,0.000050271,2.2023,0.016982,0.0000070776,0.0002349816
3503,10.1021/ja400069s,105,6(a),203,Pb0.96Ba0.03Na0.01Se1,Pb0.96Ba0.03Na0.01Se1,363.5,141070,0.00051836,0.000050391,2.1999,0.018058,0.0000070887,0.0002356289
3503,10.1021/ja400069s,105,6(a),203,Pb0.96Ba0.03Na0.01Se1,Pb0.96Ba0.03Na0.01Se1,364,140840,0.00051922,0.000050512,2.1975,0.019134,0.0000071003,0.0002362776
3503,10.1021/ja400069s,105,6(a),203,Pb0.96Ba0.03Na0.01Se1,Pb0.96Ba0.03Na0.01Se1,364.5,140620,0.00052009,0.000050632,2.1951,0.02021,0.0000071114,0.0002369323
3503,10.1021/ja400069s,105,6(a),203,Pb0.96Ba0.03Na0.01Se1,Pb0.96Ba0.03Na0.01Se1,365,140400,0.00052095,0.000050753,2.1927,0.021286,0.0000071225,0.0002375838
3503,10.1021/ja400069s,105,6(a),203,Pb0.96Ba0.03Na0.01Se1,Pb0.96Ba0.03Na0.01Se1,365.5,140170,0.00052181,0.000050874,2.1904,0.022362,0.0000071342,0.0002382259
3503,10.1021/ja400069s,105,6(a),203,Pb0.96Ba0.03Na0.01Se1,Pb0.96Ba0.03Na0.01Se1,366,139950,0.00052268,0.000050995,2.188,0.023438,0.0000071454,0.0002388848
3503,10.1021/ja400069s,105,6(a),203,Pb0.96Ba0.03Na0.01Se1,Pb0.96Ba0.03Na0.01Se1,366.5,139730,0.00052354,0.000051117,2.1856,0.024514,0.0000071567,0.0002395406
3503,10.1021/ja400069s,105,6(a),203,Pb0.96Ba0.03Na0.01Se1,Pb0.96Ba0.03Na0.01Se1,367,139510,0.0005244,0.000051238,2.1832,0.02559,0.0000071679,0.0002401979
3503,10.1021/ja400069s,105,6(a),203,Pb0.96Ba0.03Na0.01Se1,Pb0.96Ba0.03Na0.01Se1,367.5,139290,0.00052527,0.00005136,2.1809,0.026666,0.0000071793,0.0002408501
3503,10.1021/ja400069s,105,6(a),203,Pb0.96Ba0.03Na0.01Se1,Pb0.96Ba0.03Na0.01Se1,368,139060,0.00052613,0.000051481,2.1785,0.027742,0.0000071911,0.0002415102
3503,10.1021/ja400069s,105,6(a),203,Pb0.96Ba0.03Na0.01Se1,Pb0.96Ba0.03Na0.01Se1,368.5,138840,0.00052699,0.000051603,2.1762,0.028818,0.0000072025,0.0002421606
3503,10.1021/ja400069s,105,6(a),203,Pb0.96Ba0.03Na0.01Se1,Pb0.96Ba0.03Na0.01Se1,369,138620,0.00052786,0.000051726,2.1738,0.029894,0.000007214,0.0002428282
3503,10.1021/ja400069s,105,6(a),203,Pb0.96Ba0.03Na0.01Se1,Pb0.96Ba0.03Na0.01Se1,369.5,138400,0.00052872,0.000051848,2.1715,0.03097,0.0000072254,0.0002434815
3503,10.1021/ja400069s,105,6(a),203,Pb0.96Ba0.03Na0.01Se1,Pb0.96Ba0.03Na0.01Se1,370,138180,0.00052958,0.00005197,2.1691,0.032046,0.0000072369,0.0002441473
3503,10.1021/ja400069s,105,6(a),203,Pb0.96Ba0.03Na0.01Se1,Pb0.96Ba0.03Na0.01Se1,370.5,137960,0.00053045,0.000052093,2.1668,0.033122,0.0000072485,0.000244808
3503,10.1021/ja400069s,105,6(a),203,Pb0.96Ba0.03Na0.01Se1,Pb0.96Ba0.03Na0.01Se1,371,137740,0.00053131,0.000052216,2.1644,0.034198,0.0000072601,0.0002454768
3503,10.1021/ja400069s,105,6(a),203,Pb0.96Ba0.03Na0.01Se1,Pb0.96Ba0.03Na0.01Se1,371.5,137520,0.00053217,0.000052339,2.1621,0.035274,0.0000072717,0.0002461357
3503,10.1021/ja400069s,105,6(a),203,Pb0.96Ba0.03Na0.01Se1,Pb0.96Ba0.03Na0.01Se1,372,137300,0.00053304,0.000052462,2.1597,0.03635,0.0000072833,0.0002468121
3503,10.1021/ja400069s,105,6(a),203,Pb0.96Ba0.03Na0.01Se1,Pb0.96Ba0.03Na0.01Se1,372.5,137080,0.0005339,0.000052585,2.1574,0.037426,0.000007295,0.0002474738
3503,10.1021/ja400069s,105,6(a),203,Pb0.96Ba0.03Na0.01Se1,Pb0.96Ba0.03Na0.01Se1,373,136860,0.00053476,0.000052709,2.1551,0.038502,0.0000073067,0.000248137
3503,10.1021/ja400069s,105,6(a),203,Pb0.96Ba0.03Na0.01Se1,Pb0.96Ba0.03Na0.01Se1,373.5,136640,0.00053563,0.000052833,2.1527,0.039578,0.0000073185,0.0002488178
3503,10.1021/ja400069s,105,6(a),203,Pb0.96Ba0.03Na0.01Se1,Pb0.96Ba0.03Na0.01Se1,374,136420,0.00053649,0.000052956,2.1504,0.040654,0.0000073303,0.0002494838
3503,10.1021/ja400069s,105,6(a),203,Pb0.96Ba0.03Na0.01Se1,Pb0.96Ba0.03Na0.01Se1,374.5,136200,0.00053735,0.000053081,2.1481,0.04173,0.0000073421,0.0002501513
3503,10.1021/ja400069s,105,6(a),203,Pb0.96Ba0.03Na0.01Se1,Pb0.96Ba0.03Na0.01Se1,375,135980,0.00053822,0.000053205,2.1458,0.042806,0.000007354,0.0002508249
3503,10.1021/ja400069s,105,6(a),203,Pb0.96Ba0.03Na0.01Se1,Pb0.96Ba0.03Na0.01Se1,375.5,135770,0.00053908,0.000053329,2.1435,0.043881,0.0000073654,0.0002514952
3503,10.1021/ja400069s,105,6(a),203,Pb0.96Ba0.03Na0.01Se1,Pb0.96Ba0.03Na0.01Se1,376,135550,0.00053994,0.000053454,2.1411,0.044957,0.0000073774,0.0002521788
3503,10.1021/ja400069s,105,6(a),203,Pb0.96Ba0.03Na0.01Se1,Pb0.96Ba0.03Na0.01Se1,376.5,135330,0.00054081,0.000053579,2.1388,0.046033,0.0000073893,0.0002528567
3503,10.1021/ja400069s,105,6(a),203,Pb0.96Ba0.03Na0.01Se1,Pb0.96Ba0.03Na0.01Se1,377,135110,0.00054167,0.000053704,2.1365,0.047109,0.0000074014,0.0002535315
3503,10.1021/ja400069s,105,6(a),203,Pb0.96Ba0.03Na0.01Se1,Pb0.96Ba0.03Na0.01Se1,377.5,134900,0.00054253,0.000053829,2.1342,0.048185,0.0000074129,0.0002542077
3503,10.1021/ja400069s,105,6(a),203,Pb0.96Ba0.03Na0.01Se1,Pb0.96Ba0.03Na0.01Se1,378,134680,0.0005434,0.000053955,2.1319,0.049261,0.000007425,0.00025489
3503,10.1021/ja400069s,105,6(a),203,Pb0.96Ba0.03Na0.01Se1,Pb0.96Ba0.03Na0.01Se1,378.5,134460,0.00054426,0.00005408,2.1296,0.050337,0.0000074372,0.0002555691
3503,10.1021/ja400069s,105,6(a),203,Pb0.96Ba0.03Na0.01Se1,Pb0.96Ba0.03Na0.01Se1,379,134240,0.00054512,0.000054206,2.1273,0.051413,0.0000074493,0.0002562497
3503,10.1021/ja400069s,105,6(a),203,Pb0.96Ba0.03Na0.01Se1,Pb0.96Ba0.03Na0.01Se1,379.5,134030,0.00054598,0.000054332,2.125,0.052489,0.000007461,0.0002569318
3503,10.1021/ja400069s,105,6(a),203,Pb0.96Ba0.03Na0.01Se1,Pb0.96Ba0.03Na0.01Se1,380,133810,0.00054685,0.000054458,2.1227,0.053565,0.0000074733,0.00025762
3503,10.1021/ja400069s,105,6(a),203,Pb0.96Ba0.03Na0.01Se1,Pb0.96Ba0.03Na0.01Se1,380.5,133600,0.00054771,0.000054585,2.1205,0.054641,0.000007485,0.0002582929
3503,10.1021/ja400069s,105,6(a),203,Pb0.96Ba0.03Na0.01Se1,Pb0.96Ba0.03Na0.01Se1,381,133380,0.00054857,0.000054711,2.1182,0.055717,0.0000074974,0.0002589793
3503,10.1021/ja400069s,105,6(a),203,Pb0.96Ba0.03Na0.01Se1,Pb0.96Ba0.03Na0.01Se1,381.5,133160,0.00054944,0.000054838,2.1159,0.056793,0.0000075098,0.000259672
3503,10.1021/ja400069s,105,6(a),203,Pb0.96Ba0.03Na0.01Se1,Pb0.96Ba0.03Na0.01Se1,382,132950,0.0005503,0.000054965,2.1136,0.057869,0.0000075216,0.0002603615
3503,10.1021/ja400069s,105,6(a),203,Pb0.96Ba0.03Na0.01Se1,Pb0.96Ba0.03Na0.01Se1,382.5,132730,0.00055116,0.000055092,2.1113,0.058945,0.0000075341,0.0002610524
3503,10.1021/ja400069s,105,6(a),203,Pb0.96Ba0.03Na0.01Se1,Pb0.96Ba0.03Na0.01Se1,383,132520,0.00055203,0.00005522,2.1091,0.060021,0.000007546,0.0002617372
3503,10.1021/ja400069s,105,6(a),203,Pb0.96Ba0.03Na0.01Se1,Pb0.96Ba0.03Na0.01Se1,383.5,132300,0.00055289,0.000055348,2.1068,0.061097,0.0000075586,0.0002624312
3503,10.1021/ja400069s,105,6(a),203,Pb0.96Ba0.03Na0.01Se1,Pb0.96Ba0.03Na0.01Se1,384,132090,0.00055375,0.000055475,2.1045,0.062173,0.0000075706,0.0002631266
3503,10.1021/ja400069s,105,6(a),203,Pb0.96Ba0.03Na0.01Se1,Pb0.96Ba0.03Na0.01Se1,384.5,131880,0.00055462,0.000055604,2.1023,0.063249,0.0000075827,0.0002638158
3503,10.1021/ja400069s,105,6(a),203,Pb0.96Ba0.03Na0.01Se1,Pb0.96Ba0.03Na0.01Se1,385,131660,0.00055548,0.000055732,2.1,0.064325,0.0000075953,0.0002645143
3503,10.1021/ja400069s,105,6(a),203,Pb0.96Ba0.03Na0.01Se1,Pb0.96Ba0.03Na0.01Se1,385.5,131450,0.00055634,0.00005586,2.0978,0.065401,0.0000076075,0.0002652016
3503,10.1021/ja400069s,105,6(a),203,Pb0.96Ba0.03Na0.01Se1,Pb0.96Ba0.03Na0.01Se1,386,131230,0.00055721,0.000055989,2.0955,0.066477,0.0000076202,0.0002659079
3503,10.1021/ja400069s,105,6(a),203,Pb0.96Ba0.03Na0.01Se1,Pb0.96Ba0.03Na0.01Se1,386.5,131020,0.00055807,0.000056118,2.0933,0.067553,0.0000076324,0.0002665982
3503,10.1021/ja400069s,105,6(a),203,Pb0.96Ba0.03Na0.01Se1,Pb0.96Ba0.03Na0.01Se1,387,130810,0.00055893,0.000056247,2.091,0.068629,0.0000076447,0.0002673027
3503,10.1021/ja400069s,105,6(a),203,Pb0.96Ba0.03Na0.01Se1,Pb0.96Ba0.03Na0.01Se1,387.5,130600,0.0005598,0.000056377,2.0888,0.069705,0.000007657,0.0002680008
3503,10.1021/ja400069s,105,6(a),203,Pb0.96Ba0.03Na0.01Se1,Pb0.96Ba0.03Na0.01Se1,388,130380,0.00056066,0.000056506,2.0865,0.070781,0.0000076699,0.0002687084
3503,10.1021/ja400069s,105,6(a),203,Pb0.96Ba0.03Na0.01Se1,Pb0.96Ba0.03Na0.01Se1,388.5,130170,0.00056152,0.000056636,2.0843,0.071857,0.0000076823,0.0002694046
3503,10.1021/ja400069s,105,6(a),203,Pb0.96Ba0.03Na0.01Se1,Pb0.96Ba0.03Na0.01Se1,389,129960,0.00056239,0.000056766,2.0821,0.072933,0.0000076947,0.0002701071
3503,10.1021/ja400069s,105,6(a),203,Pb0.96Ba0.03Na0.01Se1,Pb0.96Ba0.03Na0.01Se1,389.5,129750,0.00056325,0.000056897,2.0798,0.074009,0.0000077071,0.0002708193
3503,10.1021/ja400069s,105,6(a),203,Pb0.96Ba0.03Na0.01Se1,Pb0.96Ba0.03Na0.01Se1,390,129530,0.00056411,0.000057027,2.0776,0.075085,0.0000077202,0.00027152
3503,10.1021/ja400069s,105,6(a),203,Pb0.96Ba0.03Na0.01Se1,Pb0.96Ba0.03Na0.01Se1,390.5,129320,0.00056498,0.000057158,2.0754,0.076161,0.0000077328,0.000272227
3503,10.1021/ja400069s,105,6(a),203,Pb0.96Ba0.03Na0.01Se1,Pb0.96Ba0.03Na0.01Se1,391,129110,0.00056584,0.000057289,2.0732,0.077237,0.0000077453,0.0002729307
3503,10.1021/ja400069s,105,6(a),203,Pb0.96Ba0.03Na0.01Se1,Pb0.96Ba0.03Na0.01Se1,391.5,128900,0.0005667,0.00005742,2.0709,0.078313,0.000007758,0.0002736491
3503,10.1021/ja400069s,105,6(a),203,Pb0.96Ba0.03Na0.01Se1,Pb0.96Ba0.03Na0.01Se1,392,128690,0.00056757,0.000057552,2.0687,0.079389,0.0000077706,0.0002743607