sid,DOI,figureid,fignum,sampleid,samplename,composition,Temperature,Electrical conductivity,Power factor,Seebeck coefficient,Thermal conductivity,ZT,Electrical resistivity,Figure of merit Z
3503,10.1021/ja400069s,105,6(a),381,Pb0.98Ba0.01Na0.01Se1,Pb0.98Ba0.01Na0.01Se1,869.5,,0.0013882,0.00023595,1.0756,0.92865,,0.0012906285
3503,10.1021/ja400069s,105,6(a),381,Pb0.98Ba0.01Na0.01Se1,Pb0.98Ba0.01Na0.01Se1,870,,0.0013892,0.00023619,1.0751,0.92962,,0.0012921589
3503,10.1021/ja400069s,105,6(a),381,Pb0.98Ba0.01Na0.01Se1,Pb0.98Ba0.01Na0.01Se1,870.5,,0.0013902,0.00023644,1.0745,0.93059,,0.0012938111
3503,10.1021/ja400069s,105,6(a),381,Pb0.98Ba0.01Na0.01Se1,Pb0.98Ba0.01Na0.01Se1,871,,0.0013912,0.00023668,1.074,0.93156,,0.0012953445
3503,10.1021/ja400069s,105,6(a),381,Pb0.98Ba0.01Na0.01Se1,Pb0.98Ba0.01Na0.01Se1,871.5,,0.0013922,0.00023693,1.0734,0.93254,,0.0012970002
3503,10.1021/ja400069s,105,6(a),381,Pb0.98Ba0.01Na0.01Se1,Pb0.98Ba0.01Na0.01Se1,872,,0.0013932,0.00023718,1.0729,0.93351,,0.0012985367
3503,10.1021/ja400069s,105,6(a),381,Pb0.98Ba0.01Na0.01Se1,Pb0.98Ba0.01Na0.01Se1,872.5,,0.0013942,0.00023742,1.0723,0.93448,,0.0013001958
3503,10.1021/ja400069s,105,6(a),381,Pb0.98Ba0.01Na0.01Se1,Pb0.98Ba0.01Na0.01Se1,873,,0.0013952,0.00023767,1.0718,0.93545,,0.0013017354
3503,10.1021/ja400069s,105,6(a),381,Pb0.98Ba0.01Na0.01Se1,Pb0.98Ba0.01Na0.01Se1,873.5,,0.0013962,0.00023791,1.0713,0.93642,,0.0013032764
3503,10.1021/ja400069s,105,6(a),381,Pb0.98Ba0.01Na0.01Se1,Pb0.98Ba0.01Na0.01Se1,874,,0.0013972,0.00023816,1.0707,0.93739,,0.0013049407
3503,10.1021/ja400069s,105,6(a),381,Pb0.98Ba0.01Na0.01Se1,Pb0.98Ba0.01Na0.01Se1,874.5,,0.0013982,0.00023841,1.0702,0.93836,,0.0013064848
3503,10.1021/ja400069s,105,6(a),381,Pb0.98Ba0.01Na0.01Se1,Pb0.98Ba0.01Na0.01Se1,875,,0.0013992,0.00023865,1.0697,0.93933,,0.0013080303
3503,10.1021/ja400069s,105,6(a),381,Pb0.98Ba0.01Na0.01Se1,Pb0.98Ba0.01Na0.01Se1,875.5,,0.0014001,0.0002389,1.0691,0.94031,,0.0013096062
3503,10.1021/ja400069s,105,6(a),381,Pb0.98Ba0.01Na0.01Se1,Pb0.98Ba0.01Na0.01Se1,876,,0.0014011,0.00023914,1.0686,0.94128,,0.0013111548
3503,10.1021/ja400069s,105,6(a),381,Pb0.98Ba0.01Na0.01Se1,Pb0.98Ba0.01Na0.01Se1,876.5,,0.0014021,0.00023939,1.0681,0.94225,,0.0013127048
3503,10.1021/ja400069s,105,6(a),381,Pb0.98Ba0.01Na0.01Se1,Pb0.98Ba0.01Na0.01Se1,877,,0.0014031,0.00023964,1.0676,0.94322,,0.0013142563
3503,10.1021/ja400069s,105,6(a),381,Pb0.98Ba0.01Na0.01Se1,Pb0.98Ba0.01Na0.01Se1,877.5,,0.0014041,0.00023988,1.0671,0.94419,,0.0013158092
3503,10.1021/ja400069s,105,6(a),381,Pb0.98Ba0.01Na0.01Se1,Pb0.98Ba0.01Na0.01Se1,878,,0.0014051,0.00024013,1.0665,0.94516,,0.0013174871
3503,10.1021/ja400069s,105,6(a),381,Pb0.98Ba0.01Na0.01Se1,Pb0.98Ba0.01Na0.01Se1,878.5,,0.0014061,0.00024037,1.066,0.94613,,0.0013190432
3503,10.1021/ja400069s,105,6(a),381,Pb0.98Ba0.01Na0.01Se1,Pb0.98Ba0.01Na0.01Se1,879,,0.0014071,0.00024062,1.0655,0.9471,,0.0013206007
3503,10.1021/ja400069s,105,6(a),381,Pb0.98Ba0.01Na0.01Se1,Pb0.98Ba0.01Na0.01Se1,879.5,,0.0014081,0.00024086,1.065,0.94808,,0.0013221596
3503,10.1021/ja400069s,105,6(a),381,Pb0.98Ba0.01Na0.01Se1,Pb0.98Ba0.01Na0.01Se1,880,,0.0014091,0.00024111,1.0645,0.94905,,0.0013237201
3503,10.1021/ja400069s,105,6(a),381,Pb0.98Ba0.01Na0.01Se1,Pb0.98Ba0.01Na0.01Se1,880.5,,0.0014101,0.00024135,1.064,0.95002,,0.001325282
3503,10.1021/ja400069s,105,6(a),381,Pb0.98Ba0.01Na0.01Se1,Pb0.98Ba0.01Na0.01Se1,881,,0.0014111,0.0002416,1.0635,0.95099,,0.0013268453
3503,10.1021/ja400069s,105,6(a),381,Pb0.98Ba0.01Na0.01Se1,Pb0.98Ba0.01Na0.01Se1,881.5,,0.0014121,0.00024185,1.063,0.95196,,0.0013284102
3503,10.1021/ja400069s,105,6(a),381,Pb0.98Ba0.01Na0.01Se1,Pb0.98Ba0.01Na0.01Se1,882,,0.001413,0.00024209,1.0625,0.95293,,0.0013298824
3503,10.1021/ja400069s,105,6(a),381,Pb0.98Ba0.01Na0.01Se1,Pb0.98Ba0.01Na0.01Se1,882.5,,0.001414,0.00024234,1.062,0.9539,,0.0013314501
3503,10.1021/ja400069s,105,6(a),381,Pb0.98Ba0.01Na0.01Se1,Pb0.98Ba0.01Na0.01Se1,883,,0.001415,0.00024258,1.0615,0.95487,,0.0013330193
3503,10.1021/ja400069s,105,6(a),381,Pb0.98Ba0.01Na0.01Se1,Pb0.98Ba0.01Na0.01Se1,883.5,,0.001416,0.00024283,1.061,0.95585,,0.00133459
3503,10.1021/ja400069s,105,6(a),381,Pb0.98Ba0.01Na0.01Se1,Pb0.98Ba0.01Na0.01Se1,884,,0.001417,0.00024307,1.0605,0.95682,,0.0013361622
3503,10.1021/ja400069s,105,6(a),381,Pb0.98Ba0.01Na0.01Se1,Pb0.98Ba0.01Na0.01Se1,884.5,,0.001418,0.00024332,1.0601,0.95779,,0.0013376097
3503,10.1021/ja400069s,105,6(a),381,Pb0.98Ba0.01Na0.01Se1,Pb0.98Ba0.01Na0.01Se1,885,,0.001419,0.00024356,1.0596,0.95876,,0.0013391846
3503,10.1021/ja400069s,105,6(a),381,Pb0.98Ba0.01Na0.01Se1,Pb0.98Ba0.01Na0.01Se1,885.5,,0.00142,0.00024381,1.0591,0.95973,,0.001340761
3503,10.1021/ja400069s,105,6(a),381,Pb0.98Ba0.01Na0.01Se1,Pb0.98Ba0.01Na0.01Se1,886,,0.001421,0.00024405,1.0586,0.9607,,0.0013423389
3503,10.1021/ja400069s,105,6(a),381,Pb0.98Ba0.01Na0.01Se1,Pb0.98Ba0.01Na0.01Se1,886.5,,0.001422,0.0002443,1.0581,0.96167,,0.0013439183
3503,10.1021/ja400069s,105,6(a),381,Pb0.98Ba0.01Na0.01Se1,Pb0.98Ba0.01Na0.01Se1,887,,0.001423,0.00024454,1.0577,0.96264,,0.001345372
3503,10.1021/ja400069s,105,6(a),381,Pb0.98Ba0.01Na0.01Se1,Pb0.98Ba0.01Na0.01Se1,887.5,,0.001424,0.00024479,1.0572,0.96362,,0.0013469542
3503,10.1021/ja400069s,105,6(a),381,Pb0.98Ba0.01Na0.01Se1,Pb0.98Ba0.01Na0.01Se1,888,,0.0014249,0.00024503,1.0567,0.96459,,0.0013484433
3503,10.1021/ja400069s,105,6(a),381,Pb0.98Ba0.01Na0.01Se1,Pb0.98Ba0.01Na0.01Se1,888.5,,0.0014259,0.00024528,1.0563,0.96556,,0.0013499006
3503,10.1021/ja400069s,105,6(a),381,Pb0.98Ba0.01Na0.01Se1,Pb0.98Ba0.01Na0.01Se1,889,,0.0014269,0.00024552,1.0558,0.96653,,0.001351487
3503,10.1021/ja400069s,105,6(a),381,Pb0.98Ba0.01Na0.01Se1,Pb0.98Ba0.01Na0.01Se1,889.5,,0.0014279,0.00024576,1.0553,0.9675,,0.001353075
3503,10.1021/ja400069s,105,6(a),381,Pb0.98Ba0.01Na0.01Se1,Pb0.98Ba0.01Na0.01Se1,890,,0.0014289,0.00024601,1.0549,0.96847,,0.001354536
3503,10.1021/ja400069s,105,6(a),381,Pb0.98Ba0.01Na0.01Se1,Pb0.98Ba0.01Na0.01Se1,890.5,,0.0014299,0.00024625,1.0544,0.96944,,0.0013561267
3503,10.1021/ja400069s,105,6(a),381,Pb0.98Ba0.01Na0.01Se1,Pb0.98Ba0.01Na0.01Se1,891,,0.0014309,0.0002465,1.0539,0.97041,,0.0013577189
3503,10.1021/ja400069s,105,6(a),381,Pb0.98Ba0.01Na0.01Se1,Pb0.98Ba0.01Na0.01Se1,891.5,,0.0014319,0.00024674,1.0535,0.97139,,0.0013591837
3503,10.1021/ja400069s,105,6(a),381,Pb0.98Ba0.01Na0.01Se1,Pb0.98Ba0.01Na0.01Se1,892,,0.0014329,0.00024699,1.053,0.97236,,0.0013607787
3503,10.1021/ja400069s,105,6(a),381,Pb0.98Ba0.01Na0.01Se1,Pb0.98Ba0.01Na0.01Se1,892.5,,0.0014339,0.00024723,1.0526,0.97333,,0.0013622459
3503,10.1021/ja400069s,105,6(a),381,Pb0.98Ba0.01Na0.01Se1,Pb0.98Ba0.01Na0.01Se1,893,,0.0014349,0.00024748,1.0521,0.9743,,0.0013638437
3503,10.1021/ja400069s,105,6(a),381,Pb0.98Ba0.01Na0.01Se1,Pb0.98Ba0.01Na0.01Se1,893.5,,0.0014359,0.00024772,1.0517,0.97527,,0.0013653133
3503,10.1021/ja400069s,105,6(a),381,Pb0.98Ba0.01Na0.01Se1,Pb0.98Ba0.01Na0.01Se1,894,,0.0014368,0.00024796,1.0513,0.97624,,0.0013666889
3503,10.1021/ja400069s,105,6(a),381,Pb0.98Ba0.01Na0.01Se1,Pb0.98Ba0.01Na0.01Se1,894.5,,0.0014378,0.00024821,1.0508,0.97721,,0.0013682908
3503,10.1021/ja400069s,105,6(a),381,Pb0.98Ba0.01Na0.01Se1,Pb0.98Ba0.01Na0.01Se1,895,,0.0014388,0.00024845,1.0504,0.97818,,0.0013697639
3503,10.1021/ja400069s,105,6(a),381,Pb0.98Ba0.01Na0.01Se1,Pb0.98Ba0.01Na0.01Se1,895.5,,0.0014398,0.0002487,1.0499,0.97916,,0.0013713687
3503,10.1021/ja400069s,105,6(a),381,Pb0.98Ba0.01Na0.01Se1,Pb0.98Ba0.01Na0.01Se1,896,,0.0014408,0.00024894,1.0495,0.98013,,0.0013728442
3503,10.1021/ja400069s,105,6(a),381,Pb0.98Ba0.01Na0.01Se1,Pb0.98Ba0.01Na0.01Se1,896.5,,0.0014418,0.00024918,1.0491,0.9811,,0.0013743208
3503,10.1021/ja400069s,105,6(a),381,Pb0.98Ba0.01Na0.01Se1,Pb0.98Ba0.01Na0.01Se1,897,,0.0014428,0.00024943,1.0486,0.98207,,0.0013759298
3503,10.1021/ja400069s,105,6(a),381,Pb0.98Ba0.01Na0.01Se1,Pb0.98Ba0.01Na0.01Se1,897.5,,0.0014438,0.00024967,1.0482,0.98304,,0.0013774089
3503,10.1021/ja400069s,105,6(a),381,Pb0.98Ba0.01Na0.01Se1,Pb0.98Ba0.01Na0.01Se1,898,,0.0014448,0.00024991,1.0478,0.98401,,0.0013788891
3503,10.1021/ja400069s,105,6(a),381,Pb0.98Ba0.01Na0.01Se1,Pb0.98Ba0.01Na0.01Se1,898.5,,0.0014458,0.00025016,1.0474,0.98498,,0.0013803704
3503,10.1021/ja400069s,105,6(a),381,Pb0.98Ba0.01Na0.01Se1,Pb0.98Ba0.01Na0.01Se1,899,,0.0014468,0.0002504,1.0469,0.98595,,0.0013819849
3503,10.1021/ja400069s,105,6(a),381,Pb0.98Ba0.01Na0.01Se1,Pb0.98Ba0.01Na0.01Se1,899.5,,0.0014478,0.00025064,1.0465,0.98693,,0.0013834687
3503,10.1021/ja400069s,105,6(a),381,Pb0.98Ba0.01Na0.01Se1,Pb0.98Ba0.01Na0.01Se1,900,,0.0014487,0.00025089,1.0461,0.9879,,0.001384858
3503,10.1021/ja400069s,105,6(a),381,Pb0.98Ba0.01Na0.01Se1,Pb0.98Ba0.01Na0.01Se1,900.5,,0.0014497,0.00025113,1.0457,0.98887,,0.0013863441
3503,10.1021/ja400069s,105,6(a),381,Pb0.98Ba0.01Na0.01Se1,Pb0.98Ba0.01Na0.01Se1,901,,0.0014507,0.00025137,1.0453,0.98984,,0.0013878312
3503,10.1021/ja400069s,105,6(a),381,Pb0.98Ba0.01Na0.01Se1,Pb0.98Ba0.01Na0.01Se1,901.5,,0.0014517,0.00025162,1.0449,0.99081,,0.0013893196
3503,10.1021/ja400069s,105,6(a),381,Pb0.98Ba0.01Na0.01Se1,Pb0.98Ba0.01Na0.01Se1,902,,0.0014527,0.00025186,1.0445,0.99178,,0.001390809
3503,10.1021/ja400069s,105,6(a),381,Pb0.98Ba0.01Na0.01Se1,Pb0.98Ba0.01Na0.01Se1,902.5,,0.0014537,0.0002521,1.0441,0.99275,,0.0013922996
3503,10.1021/ja400069s,105,6(a),381,Pb0.98Ba0.01Na0.01Se1,Pb0.98Ba0.01Na0.01Se1,903,,0.0014547,0.00025235,1.0436,0.99372,,0.0013939249
3503,10.1021/ja400069s,105,6(a),381,Pb0.98Ba0.01Na0.01Se1,Pb0.98Ba0.01Na0.01Se1,903.5,,0.0014557,0.00025259,1.0432,0.9947,,0.0013954179
3503,10.1021/ja400069s,105,6(a),381,Pb0.98Ba0.01Na0.01Se1,Pb0.98Ba0.01Na0.01Se1,904,,0.0014567,0.00025283,1.0428,0.99567,,0.0013969122
3503,10.1021/ja400069s,171,5(a),381,Pb0.98Ba0.01Na0.01Se1,Pb0.98Ba0.01Na0.01Se1,301,270320,,,,,0.0000036993,
3503,10.1021/ja400069s,171,5(a),381,Pb0.98Ba0.01Na0.01Se1,Pb0.98Ba0.01Na0.01Se1,301.5,269850,,,,,0.0000037058,
3503,10.1021/ja400069s,171,5(a),381,Pb0.98Ba0.01Na0.01Se1,Pb0.98Ba0.01Na0.01Se1,302,269380,,,3.4981,,0.0000037122,
3503,10.1021/ja400069s,31,7(b),381,Pb0.98Ba0.01Na0.01Se1,Pb0.98Ba0.01Na0.01Se1,904.5,,0.0014577,,1.0425,0.99664,,0.0013982734
3503,10.1021/ja400069s,31,7(b),381,Pb0.98Ba0.01Na0.01Se1,Pb0.98Ba0.01Na0.01Se1,905,,0.0014587,,1.0421,0.99761,,0.0013997697
3503,10.1021/ja400069s,31,7(b),381,Pb0.98Ba0.01Na0.01Se1,Pb0.98Ba0.01Na0.01Se1,905.5,,0.0014597,,1.0417,0.99858,,0.0014012672
3503,10.1021/ja400069s,31,7(b),381,Pb0.98Ba0.01Na0.01Se1,Pb0.98Ba0.01Na0.01Se1,906,,0.0014607,,1.0413,0.99955,,0.0014027658
3503,10.1021/ja400069s,31,7(b),381,Pb0.98Ba0.01Na0.01Se1,Pb0.98Ba0.01Na0.01Se1,906.5,,0.0014616,,1.0409,1.0005,,0.0014041695
3503,10.1021/ja400069s,31,7(b),381,Pb0.98Ba0.01Na0.01Se1,Pb0.98Ba0.01Na0.01Se1,907,,0.0014626,,1.0405,1.0015,,0.0014056704
3503,10.1021/ja400069s,31,7(b),381,Pb0.98Ba0.01Na0.01Se1,Pb0.98Ba0.01Na0.01Se1,907.5,,0.0014636,,1.0401,1.0025,,0.0014071724
3503,10.1021/ja400069s,4875,7(a),381,Pb0.98Ba0.01Na0.01Se1,Pb0.98Ba0.01Na0.01Se1,908,,0.0014646,,,1.0034,,
3503,10.1021/ja400069s,4875,7(a),381,Pb0.98Ba0.01Na0.01Se1,Pb0.98Ba0.01Na0.01Se1,908.5,,0.0014656,,,1.0044,,
3503,10.1021/ja400069s,4876,16,381,Pb0.98Ba0.01Na0.01Se1,Pb0.98Ba0.01Na0.01Se1,909,,,,,1.0054,,
3503,10.1021/ja400069s,4876,16,381,Pb0.98Ba0.01Na0.01Se1,Pb0.98Ba0.01Na0.01Se1,909.5,,,,,1.0064,,
3503,10.1021/ja400069s,4876,16,381,Pb0.98Ba0.01Na0.01Se1,Pb0.98Ba0.01Na0.01Se1,910,,,,,1.0073,,
3503,10.1021/ja400069s,105,6(a),203,Pb0.96Ba0.03Na0.01Se1,Pb0.96Ba0.03Na0.01Se1,302.5,169980,0.00022196,0.000036136,2.5141,0.026707,0.000005883,0.0000882861
3503,10.1021/ja400069s,105,6(a),203,Pb0.96Ba0.03Na0.01Se1,Pb0.96Ba0.03Na0.01Se1,303,169730,0.0002231,0.000036255,2.5113,-0.11214,0.0000058917,0.0000888385
3503,10.1021/ja400069s,105,6(a),203,Pb0.96Ba0.03Na0.01Se1,Pb0.96Ba0.03Na0.01Se1,303.5,169480,0.00022425,0.000036375,2.5086,-0.11106,0.0000059004,0.0000893925
3503,10.1021/ja400069s,105,6(a),203,Pb0.96Ba0.03Na0.01Se1,Pb0.96Ba0.03Na0.01Se1,304,169230,0.00022539,0.000036495,2.5058,-0.10998,0.0000059091,0.0000899473
3503,10.1021/ja400069s,105,6(a),203,Pb0.96Ba0.03Na0.01Se1,Pb0.96Ba0.03Na0.01Se1,304.5,168980,0.0004165,0.000036614,2.5031,-0.10891,0.0000059179,0.0001663937
3503,10.1021/ja400069s,105,6(a),203,Pb0.96Ba0.03Na0.01Se1,Pb0.96Ba0.03Na0.01Se1,305,168730,0.00041736,0.000036733,2.5003,-0.10783,0.0000059266,0.000166924
3503,10.1021/ja400069s,105,6(a),203,Pb0.96Ba0.03Na0.01Se1,Pb0.96Ba0.03Na0.01Se1,305.5,168480,0.00041822,0.000036852,2.4976,-0.10676,0.0000059354,0.0001674488
3503,10.1021/ja400069s,105,6(a),203,Pb0.96Ba0.03Na0.01Se1,Pb0.96Ba0.03Na0.01Se1,306,168230,0.00041909,0.000036971,2.4948,-0.10568,0.0000059442,0.0001679854
3503,10.1021/ja400069s,105,6(a),203,Pb0.96Ba0.03Na0.01Se1,Pb0.96Ba0.03Na0.01Se1,306.5,167980,0.00041995,0.000037089,2.4921,-0.1046,0.0000059531,0.0001685125
3503,10.1021/ja400069s,105,6(a),203,Pb0.96Ba0.03Na0.01Se1,Pb0.96Ba0.03Na0.01Se1,307,167730,0.00042081,0.000037208,2.4893,-0.10353,0.000005962,0.0001690475
3503,10.1021/ja400069s,105,6(a),203,Pb0.96Ba0.03Na0.01Se1,Pb0.96Ba0.03Na0.01Se1,307.5,167480,0.00042167,0.000037326,2.4866,-0.10245,0.0000059709,0.0001695769
3503,10.1021/ja400069s,105,6(a),203,Pb0.96Ba0.03Na0.01Se1,Pb0.96Ba0.03Na0.01Se1,308,167240,0.00042254,0.000037445,2.4839,-0.10138,0.0000059794,0.0001701115
3503,10.1021/ja400069s,105,6(a),203,Pb0.96Ba0.03Na0.01Se1,Pb0.96Ba0.03Na0.01Se1,308.5,166990,0.0004234,0.000037563,2.4811,-0.1003,0.0000059884,0.0001706501
3503,10.1021/ja400069s,105,6(a),203,Pb0.96Ba0.03Na0.01Se1,Pb0.96Ba0.03Na0.01Se1,309,166740,0.00042426,0.000037681,2.4784,-0.099225,0.0000059974,0.000171183
3503,10.1021/ja400069s,105,6(a),203,Pb0.96Ba0.03Na0.01Se1,Pb0.96Ba0.03Na0.01Se1,309.5,166490,0.00042513,0.000037799,2.4757,-0.098149,0.0000060064,0.0001717211
3503,10.1021/ja400069s,105,6(a),203,Pb0.96Ba0.03Na0.01Se1,Pb0.96Ba0.03Na0.01Se1,310,166250,0.00042599,0.000037916,2.473,-0.097073,0.000006015,0.0001722564
3503,10.1021/ja400069s,105,6(a),203,Pb0.96Ba0.03Na0.01Se1,Pb0.96Ba0.03Na0.01Se1,310.5,166000,0.00042685,0.000038034,2.4703,-0.095997,0.0000060241,0.0001727928
3503,10.1021/ja400069s,105,6(a),203,Pb0.96Ba0.03Na0.01Se1,Pb0.96Ba0.03Na0.01Se1,311,165750,0.00042772,0.000038151,2.4675,-0.094921,0.0000060332,0.0001733414
3503,10.1021/ja400069s,105,6(a),203,Pb0.96Ba0.03Na0.01Se1,Pb0.96Ba0.03Na0.01Se1,311.5,165510,0.00042858,0.000038269,2.4648,-0.093845,0.0000060419,0.0001738802
3503,10.1021/ja400069s,105,6(a),203,Pb0.96Ba0.03Na0.01Se1,Pb0.96Ba0.03Na0.01Se1,312,165260,0.00042944,0.000038386,2.4621,-0.092769,0.0000060511,0.0001744202
3503,10.1021/ja400069s,105,6(a),203,Pb0.96Ba0.03Na0.01Se1,Pb0.96Ba0.03Na0.01Se1,312.5,165010,0.00043031,0.000038503,2.4594,-0.091693,0.0000060602,0.0001749654
3503,10.1021/ja400069s,105,6(a),203,Pb0.96Ba0.03Na0.01Se1,Pb0.96Ba0.03Na0.01Se1,313,164770,0.00043117,0.00003862,2.4567,-0.090617,0.0000060691,0.0001755078
3503,10.1021/ja400069s,105,6(a),203,Pb0.96Ba0.03Na0.01Se1,Pb0.96Ba0.03Na0.01Se1,313.5,164520,0.00043203,0.000038737,2.454,-0.089541,0.0000060783,0.0001760513
3503,10.1021/ja400069s,105,6(a),203,Pb0.96Ba0.03Na0.01Se1,Pb0.96Ba0.03Na0.01Se1,314,164280,0.0004329,0.000038854,2.4513,-0.088465,0.0000060872,0.0001766002
3503,10.1021/ja400069s,105,6(a),203,Pb0.96Ba0.03Na0.01Se1,Pb0.96Ba0.03Na0.01Se1,314.5,164030,0.00043376,0.00003897,2.4486,-0.087389,0.0000060964,0.0001771461
3503,10.1021/ja400069s,105,6(a),203,Pb0.96Ba0.03Na0.01Se1,Pb0.96Ba0.03Na0.01Se1,315,163790,0.00043462,0.000039087,2.446,-0.086313,0.0000061054,0.000177686
3503,10.1021/ja400069s,105,6(a),203,Pb0.96Ba0.03Na0.01Se1,Pb0.96Ba0.03Na0.01Se1,315.5,163540,0.00043549,0.000039203,2.4433,-0.085237,0.0000061147,0.0001782384
3503,10.1021/ja400069s,105,6(a),203,Pb0.96Ba0.03Na0.01Se1,Pb0.96Ba0.03Na0.01Se1,316,163300,0.00043635,0.00003932,2.4406,-0.084161,0.0000061237,0.000178788
3503,10.1021/ja400069s,105,6(a),203,Pb0.96Ba0.03Na0.01Se1,Pb0.96Ba0.03Na0.01Se1,316.5,163050,0.00043721,0.000039436,2.4379,-0.083085,0.0000061331,0.0001793388
3503,10.1021/ja400069s,105,6(a),203,Pb0.96Ba0.03Na0.01Se1,Pb0.96Ba0.03Na0.01Se1,317,162810,0.00043808,0.000039552,2.4352,-0.082009,0.0000061421,0.0001798949
3503,10.1021/ja400069s,105,6(a),203,Pb0.96Ba0.03Na0.01Se1,Pb0.96Ba0.03Na0.01Se1,317.5,162570,0.00043894,0.000039668,2.4326,-0.080933,0.0000061512,0.0001804407
3503,10.1021/ja400069s,105,6(a),203,Pb0.96Ba0.03Na0.01Se1,Pb0.96Ba0.03Na0.01Se1,318,162320,0.0004398,0.000039784,2.4299,-0.079857,0.0000061607,0.0001809951
3503,10.1021/ja400069s,105,6(a),203,Pb0.96Ba0.03Na0.01Se1,Pb0.96Ba0.03Na0.01Se1,318.5,162080,0.00044067,0.0000399,2.4272,-0.078781,0.0000061698,0.0001815549
3503,10.1021/ja400069s,105,6(a),203,Pb0.96Ba0.03Na0.01Se1,Pb0.96Ba0.03Na0.01Se1,319,161840,0.00044153,0.000040016,2.4246,-0.077705,0.0000061789,0.0001821043
3503,10.1021/ja400069s,105,6(a),203,Pb0.96Ba0.03Na0.01Se1,Pb0.96Ba0.03Na0.01Se1,319.5,161590,0.00044239,0.000040132,2.4219,-0.076629,0.0000061885,0.0001826624
3503,10.1021/ja400069s,105,6(a),203,Pb0.96Ba0.03Na0.01Se1,Pb0.96Ba0.03Na0.01Se1,320,161350,0.00044326,0.000040248,2.4192,-0.075553,0.0000061977,0.0001832259
3503,10.1021/ja400069s,105,6(a),203,Pb0.96Ba0.03Na0.01Se1,Pb0.96Ba0.03Na0.01Se1,320.5,161110,0.00044412,0.000040364,2.4166,-0.074477,0.0000062069,0.0001837789
3503,10.1021/ja400069s,105,6(a),203,Pb0.96Ba0.03Na0.01Se1,Pb0.96Ba0.03Na0.01Se1,321,160870,0.00044498,0.00004048,2.4139,-0.073401,0.0000062162,0.0001843407
3503,10.1021/ja400069s,105,6(a),203,Pb0.96Ba0.03Na0.01Se1,Pb0.96Ba0.03Na0.01Se1,321.5,160620,0.00044585,0.000040595,2.4113,-0.072325,0.0000062259,0.0001849003
3503,10.1021/ja400069s,105,6(a),203,Pb0.96Ba0.03Na0.01Se1,Pb0.96Ba0.03Na0.01Se1,322,160380,0.00044671,0.000040711,2.4086,-0.071249,0.0000062352,0.0001854646
3503,10.1021/ja400069s,105,6(a),203,Pb0.96Ba0.03Na0.01Se1,Pb0.96Ba0.03Na0.01Se1,322.5,160140,0.00044757,0.000040826,2.406,-0.070173,0.0000062445,0.0001860224
3503,10.1021/ja400069s,105,6(a),203,Pb0.96Ba0.03Na0.01Se1,Pb0.96Ba0.03Na0.01Se1,323,159900,0.00044844,0.000040942,2.4034,-0.069097,0.0000062539,0.0001865857
3503,10.1021/ja400069s,105,6(a),203,Pb0.96Ba0.03Na0.01Se1,Pb0.96Ba0.03Na0.01Se1,323.5,159660,0.0004493,0.000041057,2.4007,-0.068021,0.0000062633,0.0001871537
3503,10.1021/ja400069s,105,6(a),203,Pb0.96Ba0.03Na0.01Se1,Pb0.96Ba0.03Na0.01Se1,324,159420,0.00045016,0.000041173,2.3981,-0.066945,0.0000062727,0.0001877153
3503,10.1021/ja400069s,105,6(a),203,Pb0.96Ba0.03Na0.01Se1,Pb0.96Ba0.03Na0.01Se1,324.5,159180,0.00045103,0.000041288,2.3955,-0.065869,0.0000062822,0.0001882822
3503,10.1021/ja400069s,105,6(a),203,Pb0.96Ba0.03Na0.01Se1,Pb0.96Ba0.03Na0.01Se1,325,158930,0.00045189,0.000041403,2.3928,-0.064793,0.0000062921,0.0001888541
3503,10.1021/ja400069s,105,6(a),203,Pb0.96Ba0.03Na0.01Se1,Pb0.96Ba0.03Na0.01Se1,325.5,158690,0.00045275,0.000041519,2.3902,-0.063717,0.0000063016,0.0001894193
3503,10.1021/ja400069s,105,6(a),203,Pb0.96Ba0.03Na0.01Se1,Pb0.96Ba0.03Na0.01Se1,326,158450,0.00045362,0.000041634,2.3876,-0.062641,0.0000063111,0.0001899899
3503,10.1021/ja400069s,105,6(a),203,Pb0.96Ba0.03Na0.01Se1,Pb0.96Ba0.03Na0.01Se1,326.5,158210,0.00045448,0.000041749,2.385,-0.061565,0.0000063207,0.0001905577
3503,10.1021/ja400069s,105,6(a),203,Pb0.96Ba0.03Na0.01Se1,Pb0.96Ba0.03Na0.01Se1,327,157970,0.00045534,0.000041864,2.3824,-0.060489,0.0000063303,0.0001911266
3503,10.1021/ja400069s,105,6(a),203,Pb0.96Ba0.03Na0.01Se1,Pb0.96Ba0.03Na0.01Se1,327.5,157730,0.00045621,0.00004198,2.3798,-0.059413,0.0000063399,0.000191701
3503,10.1021/ja400069s,105,6(a),203,Pb0.96Ba0.03Na0.01Se1,Pb0.96Ba0.03Na0.01Se1,328,157500,0.00045707,0.000042095,2.3772,-0.058337,0.0000063492,0.0001922724
3503,10.1021/ja400069s,105,6(a),203,Pb0.96Ba0.03Na0.01Se1,Pb0.96Ba0.03Na0.01Se1,328.5,157260,0.00045793,0.00004221,2.3745,-0.057261,0.0000063589,0.0001928532
3503,10.1021/ja400069s,105,6(a),203,Pb0.96Ba0.03Na0.01Se1,Pb0.96Ba0.03Na0.01Se1,329,157020,0.0004588,0.000042325,2.3719,-0.056185,0.0000063686,0.0001934314