sid,DOI,figureid,fignum,sampleid,samplename,composition,Temperature,Electrical conductivity,Power factor,Seebeck coefficient,Thermal conductivity,ZT,Electrical resistivity,Figure of merit Z
3503,10.1021/ja400069s,105,6(a),393,Pb0.95Ba0.04Na0.01Se1,Pb0.95Ba0.04Na0.01Se1,558,76854,0.0007496,0.00010525,1.5348,0.40359,0.0000130117,0.0004884024
3503,10.1021/ja400069s,105,6(a),393,Pb0.95Ba0.04Na0.01Se1,Pb0.95Ba0.04Na0.01Se1,558.5,76699,0.00075038,0.00010545,1.5334,0.40453,0.000013038,0.000489357
3503,10.1021/ja400069s,105,6(a),393,Pb0.95Ba0.04Na0.01Se1,Pb0.95Ba0.04Na0.01Se1,559,76545,0.00075115,0.00010566,1.5319,0.40546,0.0000130642,0.0004903388
3503,10.1021/ja400069s,105,6(a),393,Pb0.95Ba0.04Na0.01Se1,Pb0.95Ba0.04Na0.01Se1,559.5,76390,0.00075193,0.00010586,1.5305,0.40639,0.0000130907,0.000491297
3503,10.1021/ja400069s,105,6(a),393,Pb0.95Ba0.04Na0.01Se1,Pb0.95Ba0.04Na0.01Se1,560,76236,0.0007527,0.00010607,1.5291,0.40733,0.0000131172,0.0004922503
3503,10.1021/ja400069s,105,6(a),393,Pb0.95Ba0.04Na0.01Se1,Pb0.95Ba0.04Na0.01Se1,560.5,76082,0.00075348,0.00010627,1.5276,0.40826,0.0000131437,0.0004932443
3503,10.1021/ja400069s,105,6(a),393,Pb0.95Ba0.04Na0.01Se1,Pb0.95Ba0.04Na0.01Se1,561,75928,0.00075425,0.00010648,1.5262,0.40919,0.0000131704,0.0004942013
3503,10.1021/ja400069s,105,6(a),393,Pb0.95Ba0.04Na0.01Se1,Pb0.95Ba0.04Na0.01Se1,561.5,75775,0.00075503,0.00010668,1.5248,0.41013,0.000013197,0.0004951666
3503,10.1021/ja400069s,105,6(a),393,Pb0.95Ba0.04Na0.01Se1,Pb0.95Ba0.04Na0.01Se1,562,75622,0.0007558,0.00010689,1.5233,0.41106,0.0000132237,0.0004961597
3503,10.1021/ja400069s,105,6(a),393,Pb0.95Ba0.04Na0.01Se1,Pb0.95Ba0.04Na0.01Se1,562.5,75469,0.00075658,0.0001071,1.5219,0.412,0.0000132505,0.0004971286
3503,10.1021/ja400069s,105,6(a),393,Pb0.95Ba0.04Na0.01Se1,Pb0.95Ba0.04Na0.01Se1,563,75316,0.00075735,0.0001073,1.5205,0.41293,0.0000132774,0.0004980927
3503,10.1021/ja400069s,105,6(a),393,Pb0.95Ba0.04Na0.01Se1,Pb0.95Ba0.04Na0.01Se1,563.5,75163,0.00075813,0.00010751,1.5191,0.41386,0.0000133044,0.0004990652
3503,10.1021/ja400069s,105,6(a),393,Pb0.95Ba0.04Na0.01Se1,Pb0.95Ba0.04Na0.01Se1,564,75011,0.0007589,0.00010772,1.5176,0.4148,0.0000133314,0.0005000659
3503,10.1021/ja400069s,105,6(a),393,Pb0.95Ba0.04Na0.01Se1,Pb0.95Ba0.04Na0.01Se1,564.5,74858,0.00075968,0.00010792,1.5162,0.41573,0.0000133586,0.0005010421
3503,10.1021/ja400069s,105,6(a),393,Pb0.95Ba0.04Na0.01Se1,Pb0.95Ba0.04Na0.01Se1,565,74706,0.00076045,0.00010813,1.5148,0.41667,0.0000133858,0.0005020135
3503,10.1021/ja400069s,105,6(a),393,Pb0.95Ba0.04Na0.01Se1,Pb0.95Ba0.04Na0.01Se1,565.5,74555,0.00076123,0.00010834,1.5134,0.4176,0.0000134129,0.0005029933
3503,10.1021/ja400069s,105,6(a),393,Pb0.95Ba0.04Na0.01Se1,Pb0.95Ba0.04Na0.01Se1,566,74403,0.000762,0.00010855,1.512,0.41853,0.0000134403,0.0005039683
3503,10.1021/ja400069s,105,6(a),393,Pb0.95Ba0.04Na0.01Se1,Pb0.95Ba0.04Na0.01Se1,566.5,74252,0.00076278,0.00010876,1.5106,0.41947,0.0000134677,0.0005049517
3503,10.1021/ja400069s,105,6(a),393,Pb0.95Ba0.04Na0.01Se1,Pb0.95Ba0.04Na0.01Se1,567,74101,0.00076356,0.00010896,1.5092,0.4204,0.0000134951,0.0005059369
3503,10.1021/ja400069s,105,6(a),393,Pb0.95Ba0.04Na0.01Se1,Pb0.95Ba0.04Na0.01Se1,567.5,73950,0.00076433,0.00010917,1.5077,0.42133,0.0000135227,0.000506951
3503,10.1021/ja400069s,105,6(a),393,Pb0.95Ba0.04Na0.01Se1,Pb0.95Ba0.04Na0.01Se1,568,73799,0.00076511,0.00010938,1.5063,0.42227,0.0000135503,0.00050794
3503,10.1021/ja400069s,105,6(a),393,Pb0.95Ba0.04Na0.01Se1,Pb0.95Ba0.04Na0.01Se1,568.5,73648,0.00076588,0.00010959,1.5049,0.4232,0.0000135781,0.0005089242
3503,10.1021/ja400069s,105,6(a),393,Pb0.95Ba0.04Na0.01Se1,Pb0.95Ba0.04Na0.01Se1,569,73498,0.00076666,0.0001098,1.5035,0.42414,0.0000136058,0.0005099169
3503,10.1021/ja400069s,105,6(a),393,Pb0.95Ba0.04Na0.01Se1,Pb0.95Ba0.04Na0.01Se1,569.5,73348,0.00076743,0.00011001,1.5021,0.42507,0.0000136336,0.0005109047
3503,10.1021/ja400069s,105,6(a),393,Pb0.95Ba0.04Na0.01Se1,Pb0.95Ba0.04Na0.01Se1,570,73198,0.00076821,0.00011022,1.5007,0.426,0.0000136616,0.0005119011
3503,10.1021/ja400069s,105,6(a),393,Pb0.95Ba0.04Na0.01Se1,Pb0.95Ba0.04Na0.01Se1,570.5,73049,0.00076898,0.00011043,1.4993,0.42694,0.0000136894,0.0005128927
3503,10.1021/ja400069s,105,6(a),393,Pb0.95Ba0.04Na0.01Se1,Pb0.95Ba0.04Na0.01Se1,571,72899,0.00076976,0.00011064,1.4979,0.42787,0.0000137176,0.0005138928
3503,10.1021/ja400069s,105,6(a),393,Pb0.95Ba0.04Na0.01Se1,Pb0.95Ba0.04Na0.01Se1,571.5,72750,0.00077053,0.00011085,1.4966,0.42881,0.0000137457,0.0005148537
3503,10.1021/ja400069s,105,6(a),393,Pb0.95Ba0.04Na0.01Se1,Pb0.95Ba0.04Na0.01Se1,572,72601,0.00077131,0.00011106,1.4952,0.42974,0.0000137739,0.0005158574
3503,10.1021/ja400069s,105,6(a),393,Pb0.95Ba0.04Na0.01Se1,Pb0.95Ba0.04Na0.01Se1,572.5,72453,0.00077208,0.00011127,1.4938,0.43067,0.0000138021,0.0005168563
3503,10.1021/ja400069s,105,6(a),393,Pb0.95Ba0.04Na0.01Se1,Pb0.95Ba0.04Na0.01Se1,573,72304,0.00077286,0.00011148,1.4924,0.43161,0.0000138305,0.0005178638
3503,10.1021/ja400069s,105,6(a),393,Pb0.95Ba0.04Na0.01Se1,Pb0.95Ba0.04Na0.01Se1,573.5,72156,0.00077363,0.0001117,1.491,0.43254,0.0000138589,0.0005188665
3503,10.1021/ja400069s,105,6(a),393,Pb0.95Ba0.04Na0.01Se1,Pb0.95Ba0.04Na0.01Se1,574,72008,0.00077441,0.00011191,1.4896,0.43347,0.0000138873,0.0005198778
3503,10.1021/ja400069s,105,6(a),393,Pb0.95Ba0.04Na0.01Se1,Pb0.95Ba0.04Na0.01Se1,574.5,71860,0.00077518,0.00011212,1.4882,0.43441,0.0000139159,0.0005208843
3503,10.1021/ja400069s,105,6(a),393,Pb0.95Ba0.04Na0.01Se1,Pb0.95Ba0.04Na0.01Se1,575,71712,0.00077596,0.00011233,1.4869,0.43534,0.0000139447,0.0005218643
3503,10.1021/ja400069s,105,6(a),393,Pb0.95Ba0.04Na0.01Se1,Pb0.95Ba0.04Na0.01Se1,575.5,71565,0.00077673,0.00011254,1.4855,0.43628,0.0000139733,0.0005228745
3503,10.1021/ja400069s,105,6(a),393,Pb0.95Ba0.04Na0.01Se1,Pb0.95Ba0.04Na0.01Se1,576,71418,0.00077751,0.00011276,1.4841,0.43721,0.0000140021,0.0005238933
3503,10.1021/ja400069s,105,6(a),393,Pb0.95Ba0.04Na0.01Se1,Pb0.95Ba0.04Na0.01Se1,576.5,71271,0.00077828,0.00011297,1.4827,0.43814,0.000014031,0.0005249073
3503,10.1021/ja400069s,105,6(a),393,Pb0.95Ba0.04Na0.01Se1,Pb0.95Ba0.04Na0.01Se1,577,71124,0.00077906,0.00011318,1.4814,0.43908,0.00001406,0.0005258944
3503,10.1021/ja400069s,105,6(a),393,Pb0.95Ba0.04Na0.01Se1,Pb0.95Ba0.04Na0.01Se1,577.5,70978,0.00077983,0.0001134,1.48,0.44001,0.0000140889,0.0005269122
3503,10.1021/ja400069s,105,6(a),393,Pb0.95Ba0.04Na0.01Se1,Pb0.95Ba0.04Na0.01Se1,578,70831,0.00078061,0.00011361,1.4786,0.44095,0.0000141181,0.0005279386
3503,10.1021/ja400069s,105,6(a),393,Pb0.95Ba0.04Na0.01Se1,Pb0.95Ba0.04Na0.01Se1,578.5,70685,0.00078139,0.00011382,1.4773,0.44188,0.0000141473,0.0005289312
3503,10.1021/ja400069s,105,6(a),393,Pb0.95Ba0.04Na0.01Se1,Pb0.95Ba0.04Na0.01Se1,579,70539,0.00078216,0.00011404,1.4759,0.44281,0.0000141766,0.0005299546
3503,10.1021/ja400069s,105,6(a),393,Pb0.95Ba0.04Na0.01Se1,Pb0.95Ba0.04Na0.01Se1,579.5,70394,0.00078294,0.00011425,1.4745,0.44375,0.0000142058,0.0005309868
3503,10.1021/ja400069s,105,6(a),393,Pb0.95Ba0.04Na0.01Se1,Pb0.95Ba0.04Na0.01Se1,580,70248,0.00078371,0.00011447,1.4732,0.44468,0.0000142353,0.000531978
3503,10.1021/ja400069s,105,6(a),393,Pb0.95Ba0.04Na0.01Se1,Pb0.95Ba0.04Na0.01Se1,580.5,70103,0.00078449,0.00011468,1.4718,0.44561,0.0000142647,0.000533014
3503,10.1021/ja400069s,105,6(a),393,Pb0.95Ba0.04Na0.01Se1,Pb0.95Ba0.04Na0.01Se1,581,69958,0.00078526,0.0001149,1.4704,0.44655,0.0000142943,0.0005340452
3503,10.1021/ja400069s,105,6(a),393,Pb0.95Ba0.04Na0.01Se1,Pb0.95Ba0.04Na0.01Se1,581.5,69813,0.00078604,0.00011511,1.4691,0.44748,0.000014324,0.0005350487
3503,10.1021/ja400069s,105,6(a),393,Pb0.95Ba0.04Na0.01Se1,Pb0.95Ba0.04Na0.01Se1,582,69669,0.00078681,0.00011533,1.4677,0.44842,0.0000143536,0.0005360837
3503,10.1021/ja400069s,105,6(a),393,Pb0.95Ba0.04Na0.01Se1,Pb0.95Ba0.04Na0.01Se1,582.5,69524,0.00078759,0.00011554,1.4664,0.44935,0.0000143835,0.0005370908
3503,10.1021/ja400069s,105,6(a),393,Pb0.95Ba0.04Na0.01Se1,Pb0.95Ba0.04Na0.01Se1,583,69380,0.00078836,0.00011576,1.465,0.45028,0.0000144134,0.0005381297
3503,10.1021/ja400069s,105,6(a),393,Pb0.95Ba0.04Na0.01Se1,Pb0.95Ba0.04Na0.01Se1,583.5,69236,0.00078914,0.00011598,1.4637,0.45122,0.0000144434,0.0005391405
3503,10.1021/ja400069s,105,6(a),393,Pb0.95Ba0.04Na0.01Se1,Pb0.95Ba0.04Na0.01Se1,584,69093,0.00078991,0.00011619,1.4623,0.45215,0.0000144732,0.0005401833
3503,10.1021/ja400069s,105,6(a),393,Pb0.95Ba0.04Na0.01Se1,Pb0.95Ba0.04Na0.01Se1,584.5,68949,0.00079069,0.00011641,1.461,0.45309,0.0000145035,0.0005411978
3503,10.1021/ja400069s,105,6(a),393,Pb0.95Ba0.04Na0.01Se1,Pb0.95Ba0.04Na0.01Se1,585,68806,0.00079146,0.00011662,1.4596,0.45402,0.0000145336,0.0005422445
3503,10.1021/ja400069s,105,6(a),393,Pb0.95Ba0.04Na0.01Se1,Pb0.95Ba0.04Na0.01Se1,585.5,68663,0.00079224,0.00011684,1.4583,0.45495,0.0000145639,0.0005432627
3503,10.1021/ja400069s,105,6(a),393,Pb0.95Ba0.04Na0.01Se1,Pb0.95Ba0.04Na0.01Se1,586,68520,0.00079301,0.00011706,1.457,0.45589,0.0000145943,0.0005442759
3503,10.1021/ja400069s,105,6(a),393,Pb0.95Ba0.04Na0.01Se1,Pb0.95Ba0.04Na0.01Se1,586.5,68378,0.00079379,0.00011728,1.4556,0.45682,0.0000146246,0.0005453353
3503,10.1021/ja400069s,105,6(a),393,Pb0.95Ba0.04Na0.01Se1,Pb0.95Ba0.04Na0.01Se1,587,68235,0.00079456,0.00011749,1.4543,0.45775,0.0000146552,0.0005463522
3503,10.1021/ja400069s,105,6(a),393,Pb0.95Ba0.04Na0.01Se1,Pb0.95Ba0.04Na0.01Se1,587.5,68093,0.00079534,0.00011771,1.453,0.45869,0.0000146858,0.0005473778
3503,10.1021/ja400069s,105,6(a),393,Pb0.95Ba0.04Na0.01Se1,Pb0.95Ba0.04Na0.01Se1,588,67951,0.00079611,0.00011793,1.4516,0.45962,0.0000147165,0.0005484362
3503,10.1021/ja400069s,105,6(a),393,Pb0.95Ba0.04Na0.01Se1,Pb0.95Ba0.04Na0.01Se1,588.5,67809,0.00079689,0.00011815,1.4503,0.46056,0.0000147473,0.0005494656
3503,10.1021/ja400069s,105,6(a),393,Pb0.95Ba0.04Na0.01Se1,Pb0.95Ba0.04Na0.01Se1,589,67668,0.00079766,0.00011837,1.449,0.46149,0.000014778,0.00055049
3503,10.1021/ja400069s,105,6(a),393,Pb0.95Ba0.04Na0.01Se1,Pb0.95Ba0.04Na0.01Se1,589.5,67527,0.00079844,0.00011858,1.4476,0.46242,0.0000148089,0.0005515612
3503,10.1021/ja400069s,105,6(a),393,Pb0.95Ba0.04Na0.01Se1,Pb0.95Ba0.04Na0.01Se1,590,67386,0.00079922,0.0001188,1.4463,0.46336,0.0000148399,0.0005525963
3503,10.1021/ja400069s,105,6(a),393,Pb0.95Ba0.04Na0.01Se1,Pb0.95Ba0.04Na0.01Se1,590.5,67245,0.00079999,0.00011902,1.445,0.46429,0.000014871,0.0005536263
3503,10.1021/ja400069s,105,6(a),393,Pb0.95Ba0.04Na0.01Se1,Pb0.95Ba0.04Na0.01Se1,591,67104,0.00080077,0.00011924,1.4437,0.46523,0.0000149022,0.0005546651
3503,10.1021/ja400069s,105,6(a),393,Pb0.95Ba0.04Na0.01Se1,Pb0.95Ba0.04Na0.01Se1,591.5,66964,0.00080154,0.00011946,1.4423,0.46616,0.0000149334,0.0005557374
3503,10.1021/ja400069s,105,6(a),393,Pb0.95Ba0.04Na0.01Se1,Pb0.95Ba0.04Na0.01Se1,592,66823,0.00080232,0.00011968,1.441,0.46709,0.0000149649,0.00055678
3503,10.1021/ja400069s,105,6(a),393,Pb0.95Ba0.04Na0.01Se1,Pb0.95Ba0.04Na0.01Se1,592.5,66683,0.00080309,0.0001199,1.4397,0.46803,0.0000149963,0.0005578176
3503,10.1021/ja400069s,105,6(a),393,Pb0.95Ba0.04Na0.01Se1,Pb0.95Ba0.04Na0.01Se1,593,66544,0.00080387,0.00012012,1.4384,0.46896,0.0000150277,0.000558864
3503,10.1021/ja400069s,105,6(a),393,Pb0.95Ba0.04Na0.01Se1,Pb0.95Ba0.04Na0.01Se1,593.5,66404,0.00080464,0.00012034,1.4371,0.46989,0.0000150593,0.0005599054
3503,10.1021/ja400069s,105,6(a),393,Pb0.95Ba0.04Na0.01Se1,Pb0.95Ba0.04Na0.01Se1,594,66265,0.00080542,0.00012056,1.4358,0.47083,0.0000150909,0.0005609556
3503,10.1021/ja400069s,105,6(a),393,Pb0.95Ba0.04Na0.01Se1,Pb0.95Ba0.04Na0.01Se1,594.5,66126,0.00080619,0.00012078,1.4345,0.47176,0.0000151226,0.0005620007
3503,10.1021/ja400069s,105,6(a),393,Pb0.95Ba0.04Na0.01Se1,Pb0.95Ba0.04Na0.01Se1,595,65987,0.00080697,0.000121,1.4332,0.4727,0.0000151545,0.0005630547
3503,10.1021/ja400069s,105,6(a),393,Pb0.95Ba0.04Na0.01Se1,Pb0.95Ba0.04Na0.01Se1,595.5,65848,0.00080774,0.00012122,1.4318,0.47363,0.0000151865,0.000564143
3503,10.1021/ja400069s,105,6(a),393,Pb0.95Ba0.04Na0.01Se1,Pb0.95Ba0.04Na0.01Se1,596,65710,0.00080852,0.00012144,1.4305,0.47456,0.0000152184,0.000565201
3503,10.1021/ja400069s,105,6(a),393,Pb0.95Ba0.04Na0.01Se1,Pb0.95Ba0.04Na0.01Se1,596.5,65571,0.00080929,0.00012166,1.4292,0.4755,0.0000152506,0.0005662538
3503,10.1021/ja400069s,105,6(a),393,Pb0.95Ba0.04Na0.01Se1,Pb0.95Ba0.04Na0.01Se1,597,65433,0.00081007,0.00012189,1.4279,0.47643,0.0000152828,0.0005673156
3503,10.1021/ja400069s,105,6(a),393,Pb0.95Ba0.04Na0.01Se1,Pb0.95Ba0.04Na0.01Se1,597.5,65296,0.00081084,0.00012211,1.4266,0.47737,0.0000153149,0.0005683724
3503,10.1021/ja400069s,105,6(a),393,Pb0.95Ba0.04Na0.01Se1,Pb0.95Ba0.04Na0.01Se1,598,65158,0.00081162,0.00012233,1.4253,0.4783,0.0000153473,0.000569438
3503,10.1021/ja400069s,105,6(a),393,Pb0.95Ba0.04Na0.01Se1,Pb0.95Ba0.04Na0.01Se1,598.5,65021,0.00081239,0.00012255,1.424,0.47923,0.0000153796,0.0005704986
3503,10.1021/ja400069s,105,6(a),393,Pb0.95Ba0.04Na0.01Se1,Pb0.95Ba0.04Na0.01Se1,599,64884,0.00081317,0.00012277,1.4227,0.48017,0.0000154121,0.0005715681
3503,10.1021/ja400069s,105,6(a),393,Pb0.95Ba0.04Na0.01Se1,Pb0.95Ba0.04Na0.01Se1,599.5,64747,0.00081394,0.000123,1.4215,0.4811,0.0000154447,0.0005725923
3503,10.1021/ja400069s,105,6(a),393,Pb0.95Ba0.04Na0.01Se1,Pb0.95Ba0.04Na0.01Se1,600,64610,0.00081472,0.00012322,1.4202,0.48203,0.0000154775,0.0005736657
3503,10.1021/ja400069s,105,6(a),393,Pb0.95Ba0.04Na0.01Se1,Pb0.95Ba0.04Na0.01Se1,600.5,64473,0.00081549,0.00012344,1.4189,0.48297,0.0000155104,0.0005747339
3503,10.1021/ja400069s,105,6(a),393,Pb0.95Ba0.04Na0.01Se1,Pb0.95Ba0.04Na0.01Se1,601,64337,0.00081627,0.00012367,1.4176,0.4839,0.0000155432,0.0005758112
3503,10.1021/ja400069s,105,6(a),393,Pb0.95Ba0.04Na0.01Se1,Pb0.95Ba0.04Na0.01Se1,601.5,64201,0.00081705,0.00012389,1.4163,0.48484,0.0000155761,0.0005768905
3503,10.1021/ja400069s,105,6(a),393,Pb0.95Ba0.04Na0.01Se1,Pb0.95Ba0.04Na0.01Se1,602,64065,0.00081782,0.00012411,1.415,0.48577,0.0000156091,0.0005779647
3503,10.1021/ja400069s,105,6(a),393,Pb0.95Ba0.04Na0.01Se1,Pb0.95Ba0.04Na0.01Se1,602.5,63930,0.0008186,0.00012434,1.4137,0.4867,0.0000156421,0.0005790479
3503,10.1021/ja400069s,105,6(a),393,Pb0.95Ba0.04Na0.01Se1,Pb0.95Ba0.04Na0.01Se1,603,63794,0.00081937,0.00012456,1.4124,0.48764,0.0000156755,0.000580126
3503,10.1021/ja400069s,105,6(a),393,Pb0.95Ba0.04Na0.01Se1,Pb0.95Ba0.04Na0.01Se1,603.5,63659,0.00082015,0.00012478,1.4112,0.48857,0.0000157087,0.0005811721
3503,10.1021/ja400069s,105,6(a),393,Pb0.95Ba0.04Na0.01Se1,Pb0.95Ba0.04Na0.01Se1,604,63524,0.00082092,0.00012501,1.4099,0.48951,0.0000157421,0.0005822541
3503,10.1021/ja400069s,105,6(a),393,Pb0.95Ba0.04Na0.01Se1,Pb0.95Ba0.04Na0.01Se1,604.5,63389,0.0008217,0.00012523,1.4086,0.49044,0.0000157756,0.0005833452
3503,10.1021/ja400069s,105,6(a),393,Pb0.95Ba0.04Na0.01Se1,Pb0.95Ba0.04Na0.01Se1,605,63255,0.00082247,0.00012546,1.4073,0.49137,0.000015809,0.0005844312
3503,10.1021/ja400069s,105,6(a),393,Pb0.95Ba0.04Na0.01Se1,Pb0.95Ba0.04Na0.01Se1,605.5,63120,0.00082325,0.00012568,1.4061,0.49231,0.0000158428,0.0005854847
3503,10.1021/ja400069s,105,6(a),393,Pb0.95Ba0.04Na0.01Se1,Pb0.95Ba0.04Na0.01Se1,606,62986,0.00082402,0.0001259,1.4048,0.49324,0.0000158765,0.0005865746
3503,10.1021/ja400069s,105,6(a),393,Pb0.95Ba0.04Na0.01Se1,Pb0.95Ba0.04Na0.01Se1,606.5,62852,0.0008248,0.00012613,1.4035,0.49417,0.0000159104,0.0005876737
3503,10.1021/ja400069s,105,6(a),393,Pb0.95Ba0.04Na0.01Se1,Pb0.95Ba0.04Na0.01Se1,607,62719,0.00082557,0.00012635,1.4022,0.49511,0.0000159441,0.0005887677
3503,10.1021/ja400069s,105,6(a),393,Pb0.95Ba0.04Na0.01Se1,Pb0.95Ba0.04Na0.01Se1,607.5,62585,0.00082635,0.00012658,1.401,0.49604,0.0000159783,0.0005898287
3503,10.1021/ja400069s,105,6(a),393,Pb0.95Ba0.04Na0.01Se1,Pb0.95Ba0.04Na0.01Se1,608,62452,0.00082712,0.00012681,1.3997,0.49698,0.0000160123,0.0005909266
3503,10.1021/ja400069s,105,6(a),393,Pb0.95Ba0.04Na0.01Se1,Pb0.95Ba0.04Na0.01Se1,608.5,62319,0.0008279,0.00012703,1.3985,0.49791,0.0000160465,0.0005919914
3503,10.1021/ja400069s,105,6(a),393,Pb0.95Ba0.04Na0.01Se1,Pb0.95Ba0.04Na0.01Se1,609,62186,0.00082867,0.00012726,1.3972,0.49884,0.0000160808,0.0005930933
3503,10.1021/ja400069s,105,6(a),393,Pb0.95Ba0.04Na0.01Se1,Pb0.95Ba0.04Na0.01Se1,609.5,62054,0.00082945,0.00012748,1.3959,0.49978,0.000016115,0.0005942045
3503,10.1021/ja400069s,105,6(a),393,Pb0.95Ba0.04Na0.01Se1,Pb0.95Ba0.04Na0.01Se1,610,61921,0.00083022,0.00012771,1.3947,0.50071,0.0000161496,0.0005952678
3503,10.1021/ja400069s,105,6(a),393,Pb0.95Ba0.04Na0.01Se1,Pb0.95Ba0.04Na0.01Se1,610.5,61789,0.000831,0.00012794,1.3934,0.50165,0.0000161841,0.0005963829
3503,10.1021/ja400069s,105,6(a),393,Pb0.95Ba0.04Na0.01Se1,Pb0.95Ba0.04Na0.01Se1,611,61657,0.00083177,0.00012816,1.3922,0.50258,0.0000162188,0.0005974501
3503,10.1021/ja400069s,105,6(a),393,Pb0.95Ba0.04Na0.01Se1,Pb0.95Ba0.04Na0.01Se1,611.5,61525,0.00083255,0.00012839,1.3909,0.50351,0.0000162536,0.0005985693
3503,10.1021/ja400069s,105,6(a),393,Pb0.95Ba0.04Na0.01Se1,Pb0.95Ba0.04Na0.01Se1,612,61394,0.00083332,0.00012861,1.3896,0.50445,0.0000162882,0.0005996834
3503,10.1021/ja400069s,105,6(a),393,Pb0.95Ba0.04Na0.01Se1,Pb0.95Ba0.04Na0.01Se1,612.5,61263,0.0008341,0.00012884,1.3884,0.50538,0.0000163231,0.0006007635
3503,10.1021/ja400069s,105,6(a),393,Pb0.95Ba0.04Na0.01Se1,Pb0.95Ba0.04Na0.01Se1,613,61132,0.00083488,0.00012907,1.3871,0.50631,0.000016358,0.0006018888
3503,10.1021/ja400069s,105,6(a),393,Pb0.95Ba0.04Na0.01Se1,Pb0.95Ba0.04Na0.01Se1,613.5,61001,0.00083565,0.0001293,1.3859,0.50725,0.0000163932,0.0006029656
3503,10.1021/ja400069s,105,6(a),393,Pb0.95Ba0.04Na0.01Se1,Pb0.95Ba0.04Na0.01Se1,614,60870,0.00083643,0.00012952,1.3847,0.50818,0.0000164285,0.0006040514
3503,10.1021/ja400069s,105,6(a),393,Pb0.95Ba0.04Na0.01Se1,Pb0.95Ba0.04Na0.01Se1,614.5,60740,0.0008372,0.00012975,1.3834,0.50912,0.0000164636,0.0006051757
3503,10.1021/ja400069s,105,6(a),393,Pb0.95Ba0.04Na0.01Se1,Pb0.95Ba0.04Na0.01Se1,615,60609,0.00083798,0.00012998,1.3822,0.51005,0.0000164992,0.0006062654
3503,10.1021/ja400069s,105,6(a),393,Pb0.95Ba0.04Na0.01Se1,Pb0.95Ba0.04Na0.01Se1,615.5,60479,0.00083875,0.00013021,1.3809,0.51098,0.0000165347,0.0006073937
3503,10.1021/ja400069s,105,6(a),393,Pb0.95Ba0.04Na0.01Se1,Pb0.95Ba0.04Na0.01Se1,616,60350,0.00083953,0.00013043,1.3797,0.51192,0.00001657,0.0006084874
3503,10.1021/ja400069s,105,6(a),393,Pb0.95Ba0.04Na0.01Se1,Pb0.95Ba0.04Na0.01Se1,616.5,60220,0.0008403,0.00013066,1.3784,0.51285,0.0000166058,0.0006096198
3503,10.1021/ja400069s,105,6(a),393,Pb0.95Ba0.04Na0.01Se1,Pb0.95Ba0.04Na0.01Se1,617,60091,0.00084108,0.00013089,1.3772,0.51379,0.0000166414,0.0006107174
3503,10.1021/ja400069s,105,6(a),393,Pb0.95Ba0.04Na0.01Se1,Pb0.95Ba0.04Na0.01Se1,617.5,59962,0.00084185,0.00013112,1.376,0.51472,0.0000166772,0.0006118096
3503,10.1021/ja400069s,105,6(a),393,Pb0.95Ba0.04Na0.01Se1,Pb0.95Ba0.04Na0.01Se1,618,59833,0.00084263,0.00013135,1.3747,0.51565,0.0000167132,0.0006129556
3503,10.1021/ja400069s,105,6(a),393,Pb0.95Ba0.04Na0.01Se1,Pb0.95Ba0.04Na0.01Se1,618.5,59704,0.0008434,0.00013158,1.3735,0.51659,0.0000167493,0.0006140517
3503,10.1021/ja400069s,105,6(a),393,Pb0.95Ba0.04Na0.01Se1,Pb0.95Ba0.04Na0.01Se1,619,59576,0.00084418,0.00013181,1.3723,0.51752,0.0000167853,0.000615157
3503,10.1021/ja400069s,105,6(a),393,Pb0.95Ba0.04Na0.01Se1,Pb0.95Ba0.04Na0.01Se1,619.5,59447,0.00084495,0.00013203,1.371,0.51845,0.0000168217,0.000616302
3503,10.1021/ja400069s,105,6(a),393,Pb0.95Ba0.04Na0.01Se1,Pb0.95Ba0.04Na0.01Se1,620,59319,0.00084573,0.00013226,1.3698,0.51939,0.000016858,0.0006174113
3503,10.1021/ja400069s,105,6(a),393,Pb0.95Ba0.04Na0.01Se1,Pb0.95Ba0.04Na0.01Se1,620.5,59192,0.0008465,0.00013249,1.3686,0.52032,0.0000168942,0.0006185153
3503,10.1021/ja400069s,105,6(a),393,Pb0.95Ba0.04Na0.01Se1,Pb0.95Ba0.04Na0.01Se1,621,59064,0.00084728,0.00013272,1.3674,0.52126,0.0000169308,0.0006196285
3503,10.1021/ja400069s,105,6(a),393,Pb0.95Ba0.04Na0.01Se1,Pb0.95Ba0.04Na0.01Se1,621.5,58937,0.00084805,0.00013295,1.3661,0.52219,0.0000169673,0.0006207818
3503,10.1021/ja400069s,105,6(a),393,Pb0.95Ba0.04Na0.01Se1,Pb0.95Ba0.04Na0.01Se1,622,58810,0.00084883,0.00013318,1.3649,0.52312,0.0000170039,0.000621899