sid,DOI,figureid,fignum,sampleid,samplename,composition,Temperature,Electrical conductivity,Power factor,Seebeck coefficient,Thermal conductivity,ZT,Electrical resistivity,Figure of merit Z
3503,10.1021/ja400069s,105,6(a),286,Pb0.98Sr0.01Na0.01Se1,Pb0.98Sr0.01Na0.01Se1,427,188410,0.00053932,0.000050298,2.8266,0.066933,0.0000053076,0.0001908017
3503,10.1021/ja400069s,105,6(a),286,Pb0.98Sr0.01Na0.01Se1,Pb0.98Sr0.01Na0.01Se1,427.5,188060,0.00054033,0.000050412,2.8233,0.067907,0.0000053175,0.0001913824
3503,10.1021/ja400069s,105,6(a),286,Pb0.98Sr0.01Na0.01Se1,Pb0.98Sr0.01Na0.01Se1,428,187720,0.00054135,0.000050526,2.8201,0.068882,0.0000053271,0.0001919613
3503,10.1021/ja400069s,105,6(a),286,Pb0.98Sr0.01Na0.01Se1,Pb0.98Sr0.01Na0.01Se1,428.5,187380,0.00054236,0.000050641,2.8168,0.069857,0.0000053367,0.0001925447
3503,10.1021/ja400069s,105,6(a),286,Pb0.98Sr0.01Na0.01Se1,Pb0.98Sr0.01Na0.01Se1,429,187040,0.00054338,0.000050755,2.8136,0.070832,0.0000053464,0.0001931262
3503,10.1021/ja400069s,105,6(a),286,Pb0.98Sr0.01Na0.01Se1,Pb0.98Sr0.01Na0.01Se1,429.5,186700,0.00054439,0.00005087,2.8104,0.071807,0.0000053562,0.0001937055
3503,10.1021/ja400069s,105,6(a),286,Pb0.98Sr0.01Na0.01Se1,Pb0.98Sr0.01Na0.01Se1,430,186360,0.00054541,0.000050986,2.8071,0.072782,0.000005366,0.0001942966
3503,10.1021/ja400069s,105,6(a),286,Pb0.98Sr0.01Na0.01Se1,Pb0.98Sr0.01Na0.01Se1,430.5,186020,0.00054642,0.000051101,2.8039,0.073756,0.0000053758,0.0001948786
3503,10.1021/ja400069s,105,6(a),286,Pb0.98Sr0.01Na0.01Se1,Pb0.98Sr0.01Na0.01Se1,431,185680,0.00054744,0.000051217,2.8007,0.074731,0.0000053856,0.0001954654
3503,10.1021/ja400069s,105,6(a),286,Pb0.98Sr0.01Na0.01Se1,Pb0.98Sr0.01Na0.01Se1,431.5,185340,0.00054845,0.000051333,2.7975,0.075706,0.0000053955,0.00019605
3503,10.1021/ja400069s,105,6(a),286,Pb0.98Sr0.01Na0.01Se1,Pb0.98Sr0.01Na0.01Se1,432,185000,0.00054947,0.00005145,2.7943,0.076681,0.0000054054,0.0001966396
3503,10.1021/ja400069s,105,6(a),286,Pb0.98Sr0.01Na0.01Se1,Pb0.98Sr0.01Na0.01Se1,432.5,184660,0.00055049,0.000051567,2.791,0.077656,0.0000054154,0.0001972375
3503,10.1021/ja400069s,105,6(a),286,Pb0.98Sr0.01Na0.01Se1,Pb0.98Sr0.01Na0.01Se1,433,184320,0.0005515,0.000051684,2.7878,0.078631,0.0000054253,0.0001978262
3503,10.1021/ja400069s,105,6(a),286,Pb0.98Sr0.01Na0.01Se1,Pb0.98Sr0.01Na0.01Se1,433.5,183980,0.00055252,0.000051801,2.7846,0.079605,0.0000054354,0.0001984199
3503,10.1021/ja400069s,105,6(a),286,Pb0.98Sr0.01Na0.01Se1,Pb0.98Sr0.01Na0.01Se1,434,183650,0.00055353,0.000051919,2.7814,0.08058,0.0000054451,0.0001990113
3503,10.1021/ja400069s,105,6(a),286,Pb0.98Sr0.01Na0.01Se1,Pb0.98Sr0.01Na0.01Se1,434.5,183310,0.00055455,0.000052037,2.7782,0.081555,0.0000054552,0.0001996077
3503,10.1021/ja400069s,105,6(a),286,Pb0.98Sr0.01Na0.01Se1,Pb0.98Sr0.01Na0.01Se1,435,182970,0.00055556,0.000052155,2.775,0.08253,0.0000054654,0.0002002018
3503,10.1021/ja400069s,105,6(a),286,Pb0.98Sr0.01Na0.01Se1,Pb0.98Sr0.01Na0.01Se1,435.5,182640,0.00055658,0.000052274,2.7718,0.083505,0.0000054753,0.0002008009
3503,10.1021/ja400069s,105,6(a),286,Pb0.98Sr0.01Na0.01Se1,Pb0.98Sr0.01Na0.01Se1,436,182300,0.00055759,0.000052392,2.7686,0.08448,0.0000054855,0.0002013978
3503,10.1021/ja400069s,105,6(a),286,Pb0.98Sr0.01Na0.01Se1,Pb0.98Sr0.01Na0.01Se1,436.5,181970,0.00055861,0.000052511,2.7655,0.085454,0.0000054954,0.0002019924
3503,10.1021/ja400069s,105,6(a),286,Pb0.98Sr0.01Na0.01Se1,Pb0.98Sr0.01Na0.01Se1,437,181630,0.00055962,0.000052631,2.7623,0.086429,0.0000055057,0.000202592
3503,10.1021/ja400069s,105,6(a),286,Pb0.98Sr0.01Na0.01Se1,Pb0.98Sr0.01Na0.01Se1,437.5,181300,0.00056064,0.000052751,2.7591,0.087404,0.0000055157,0.0002031967
3503,10.1021/ja400069s,105,6(a),286,Pb0.98Sr0.01Na0.01Se1,Pb0.98Sr0.01Na0.01Se1,438,180960,0.00056165,0.000052871,2.7559,0.088379,0.0000055261,0.0002037991
3503,10.1021/ja400069s,105,6(a),286,Pb0.98Sr0.01Na0.01Se1,Pb0.98Sr0.01Na0.01Se1,438.5,180630,0.00056267,0.000052991,2.7527,0.089354,0.0000055362,0.0002044066
3503,10.1021/ja400069s,105,6(a),286,Pb0.98Sr0.01Na0.01Se1,Pb0.98Sr0.01Na0.01Se1,439,180300,0.00056368,0.000053111,2.7496,0.090329,0.0000055463,0.0002050044
3503,10.1021/ja400069s,105,6(a),286,Pb0.98Sr0.01Na0.01Se1,Pb0.98Sr0.01Na0.01Se1,439.5,179960,0.0005647,0.000053232,2.7464,0.091303,0.0000055568,0.0002056146
3503,10.1021/ja400069s,105,6(a),286,Pb0.98Sr0.01Na0.01Se1,Pb0.98Sr0.01Na0.01Se1,440,179630,0.00056572,0.000053353,2.7432,0.092278,0.000005567,0.0002062263
3503,10.1021/ja400069s,105,6(a),286,Pb0.98Sr0.01Na0.01Se1,Pb0.98Sr0.01Na0.01Se1,440.5,179300,0.00056673,0.000053475,2.7401,0.093253,0.0000055772,0.0002068282
3503,10.1021/ja400069s,105,6(a),286,Pb0.98Sr0.01Na0.01Se1,Pb0.98Sr0.01Na0.01Se1,441,178970,0.00056775,0.000053596,2.7369,0.094228,0.0000055875,0.0002074427
3503,10.1021/ja400069s,105,6(a),286,Pb0.98Sr0.01Na0.01Se1,Pb0.98Sr0.01Na0.01Se1,441.5,178640,0.00056876,0.000053718,2.7337,0.095203,0.0000055979,0.000208055
3503,10.1021/ja400069s,105,6(a),286,Pb0.98Sr0.01Na0.01Se1,Pb0.98Sr0.01Na0.01Se1,442,178310,0.00056978,0.000053841,2.7306,0.096178,0.0000056082,0.0002086648
3503,10.1021/ja400069s,105,6(a),286,Pb0.98Sr0.01Na0.01Se1,Pb0.98Sr0.01Na0.01Se1,442.5,177980,0.00057079,0.000053963,2.7274,0.097152,0.0000056186,0.0002092799
3503,10.1021/ja400069s,105,6(a),286,Pb0.98Sr0.01Na0.01Se1,Pb0.98Sr0.01Na0.01Se1,443,177650,0.00057181,0.000054086,2.7243,0.098127,0.000005629,0.0002098924
3503,10.1021/ja400069s,105,6(a),286,Pb0.98Sr0.01Na0.01Se1,Pb0.98Sr0.01Na0.01Se1,443.5,177320,0.00057282,0.000054209,2.7211,0.099102,0.0000056395,0.0002105105
3503,10.1021/ja400069s,105,6(a),286,Pb0.98Sr0.01Na0.01Se1,Pb0.98Sr0.01Na0.01Se1,444,176990,0.00057384,0.000054333,2.718,0.10008,0.00000565,0.0002111258
3503,10.1021/ja400069s,105,6(a),286,Pb0.98Sr0.01Na0.01Se1,Pb0.98Sr0.01Na0.01Se1,444.5,176660,0.00057485,0.000054456,2.7149,0.10105,0.0000056606,0.0002117389
3503,10.1021/ja400069s,105,6(a),286,Pb0.98Sr0.01Na0.01Se1,Pb0.98Sr0.01Na0.01Se1,445,176330,0.00057587,0.00005458,2.7117,0.10203,0.0000056712,0.0002123649
3503,10.1021/ja400069s,105,6(a),286,Pb0.98Sr0.01Na0.01Se1,Pb0.98Sr0.01Na0.01Se1,445.5,176000,0.00057688,0.000054705,2.7086,0.103,0.0000056818,0.0002129809
3503,10.1021/ja400069s,105,6(a),286,Pb0.98Sr0.01Na0.01Se1,Pb0.98Sr0.01Na0.01Se1,446,175680,0.0005779,0.000054829,2.7055,0.10398,0.0000056922,0.0002136019
3503,10.1021/ja400069s,105,6(a),286,Pb0.98Sr0.01Na0.01Se1,Pb0.98Sr0.01Na0.01Se1,446.5,175350,0.00057891,0.000054954,2.7023,0.10495,0.0000057029,0.0002142286
3503,10.1021/ja400069s,105,6(a),286,Pb0.98Sr0.01Na0.01Se1,Pb0.98Sr0.01Na0.01Se1,447,175020,0.00057993,0.000055079,2.6992,0.10593,0.0000057136,0.0002148525
3503,10.1021/ja400069s,105,6(a),286,Pb0.98Sr0.01Na0.01Se1,Pb0.98Sr0.01Na0.01Se1,447.5,174700,0.00058094,0.000055205,2.6961,0.1069,0.0000057241,0.0002154742
3503,10.1021/ja400069s,105,6(a),286,Pb0.98Sr0.01Na0.01Se1,Pb0.98Sr0.01Na0.01Se1,448,174370,0.00058196,0.00005533,2.693,0.10788,0.0000057349,0.000216101
3503,10.1021/ja400069s,105,6(a),286,Pb0.98Sr0.01Na0.01Se1,Pb0.98Sr0.01Na0.01Se1,448.5,174040,0.00058298,0.000055456,2.6899,0.10885,0.0000057458,0.0002167292
3503,10.1021/ja400069s,105,6(a),286,Pb0.98Sr0.01Na0.01Se1,Pb0.98Sr0.01Na0.01Se1,449,173720,0.00058399,0.000055583,2.6868,0.10983,0.0000057564,0.0002173552
3503,10.1021/ja400069s,105,6(a),286,Pb0.98Sr0.01Na0.01Se1,Pb0.98Sr0.01Na0.01Se1,449.5,173390,0.00058501,0.000055709,2.6837,0.1108,0.0000057673,0.0002179864
3503,10.1021/ja400069s,105,6(a),286,Pb0.98Sr0.01Na0.01Se1,Pb0.98Sr0.01Na0.01Se1,450,173070,0.00058602,0.000055836,2.6805,0.11177,0.000005778,0.0002186234
3503,10.1021/ja400069s,105,6(a),286,Pb0.98Sr0.01Na0.01Se1,Pb0.98Sr0.01Na0.01Se1,450.5,172750,0.00058704,0.000055963,2.6774,0.11275,0.0000057887,0.0002192575
3503,10.1021/ja400069s,105,6(a),286,Pb0.98Sr0.01Na0.01Se1,Pb0.98Sr0.01Na0.01Se1,451,172420,0.00058805,0.000056091,2.6743,0.11372,0.0000057998,0.0002198893
3503,10.1021/ja400069s,105,6(a),286,Pb0.98Sr0.01Na0.01Se1,Pb0.98Sr0.01Na0.01Se1,451.5,172100,0.00058907,0.000056219,2.6713,0.1147,0.0000058106,0.0002205181
3503,10.1021/ja400069s,105,6(a),286,Pb0.98Sr0.01Na0.01Se1,Pb0.98Sr0.01Na0.01Se1,452,171780,0.00059008,0.000056347,2.6682,0.11567,0.0000058214,0.0002211528
3503,10.1021/ja400069s,105,6(a),286,Pb0.98Sr0.01Na0.01Se1,Pb0.98Sr0.01Na0.01Se1,452.5,171450,0.0005911,0.000056475,2.6651,0.11665,0.0000058326,0.0002217928
3503,10.1021/ja400069s,105,6(a),286,Pb0.98Sr0.01Na0.01Se1,Pb0.98Sr0.01Na0.01Se1,453,171130,0.00059211,0.000056603,2.662,0.11762,0.0000058435,0.0002224305
3503,10.1021/ja400069s,105,6(a),286,Pb0.98Sr0.01Na0.01Se1,Pb0.98Sr0.01Na0.01Se1,453.5,170810,0.00059313,0.000056732,2.6589,0.1186,0.0000058545,0.0002230735
3503,10.1021/ja400069s,105,6(a),286,Pb0.98Sr0.01Na0.01Se1,Pb0.98Sr0.01Na0.01Se1,454,170490,0.00059414,0.000056862,2.6558,0.11957,0.0000058654,0.0002237141
3503,10.1021/ja400069s,105,6(a),286,Pb0.98Sr0.01Na0.01Se1,Pb0.98Sr0.01Na0.01Se1,454.5,170170,0.00059516,0.000056991,2.6527,0.12055,0.0000058765,0.0002243601
3503,10.1021/ja400069s,105,6(a),286,Pb0.98Sr0.01Na0.01Se1,Pb0.98Sr0.01Na0.01Se1,455,169850,0.00059617,0.000057121,2.6497,0.12152,0.0000058875,0.0002249953
3503,10.1021/ja400069s,105,6(a),286,Pb0.98Sr0.01Na0.01Se1,Pb0.98Sr0.01Na0.01Se1,455.5,169530,0.00059719,0.000057251,2.6466,0.1225,0.0000058987,0.0002256442
3503,10.1021/ja400069s,105,6(a),286,Pb0.98Sr0.01Na0.01Se1,Pb0.98Sr0.01Na0.01Se1,456,169210,0.0005982,0.000057381,2.6435,0.12347,0.0000059098,0.0002262909
3503,10.1021/ja400069s,105,6(a),286,Pb0.98Sr0.01Na0.01Se1,Pb0.98Sr0.01Na0.01Se1,456.5,168890,0.00059922,0.000057512,2.6405,0.12445,0.000005921,0.0002269343
3503,10.1021/ja400069s,105,6(a),286,Pb0.98Sr0.01Na0.01Se1,Pb0.98Sr0.01Na0.01Se1,457,168570,0.00060024,0.000057642,2.6374,0.12542,0.0000059323,0.0002275878
3503,10.1021/ja400069s,105,6(a),286,Pb0.98Sr0.01Na0.01Se1,Pb0.98Sr0.01Na0.01Se1,457.5,168260,0.00060125,0.000057774,2.6343,0.1264,0.0000059432,0.000228239
3503,10.1021/ja400069s,105,6(a),286,Pb0.98Sr0.01Na0.01Se1,Pb0.98Sr0.01Na0.01Se1,458,167940,0.00060227,0.000057905,2.6313,0.12737,0.0000059545,0.0002288869
3503,10.1021/ja400069s,105,6(a),286,Pb0.98Sr0.01Na0.01Se1,Pb0.98Sr0.01Na0.01Se1,458.5,167620,0.00060328,0.000058037,2.6282,0.12835,0.0000059659,0.0002295411
3503,10.1021/ja400069s,105,6(a),286,Pb0.98Sr0.01Na0.01Se1,Pb0.98Sr0.01Na0.01Se1,459,167300,0.0006043,0.000058169,2.6252,0.12932,0.0000059773,0.000230192
3503,10.1021/ja400069s,105,6(a),286,Pb0.98Sr0.01Na0.01Se1,Pb0.98Sr0.01Na0.01Se1,459.5,166990,0.00060531,0.000058301,2.6221,0.1303,0.0000059884,0.0002308493
3503,10.1021/ja400069s,105,6(a),286,Pb0.98Sr0.01Na0.01Se1,Pb0.98Sr0.01Na0.01Se1,460,166670,0.00060633,0.000058434,2.6191,0.13127,0.0000059999,0.0002315032
3503,10.1021/ja400069s,105,6(a),286,Pb0.98Sr0.01Na0.01Se1,Pb0.98Sr0.01Na0.01Se1,460.5,166350,0.00060734,0.000058566,2.6161,0.13225,0.0000060114,0.0002321547
3503,10.1021/ja400069s,105,6(a),286,Pb0.98Sr0.01Na0.01Se1,Pb0.98Sr0.01Na0.01Se1,461,166040,0.00060836,0.0000587,2.613,0.13322,0.0000060226,0.0002328205
3503,10.1021/ja400069s,105,6(a),286,Pb0.98Sr0.01Na0.01Se1,Pb0.98Sr0.01Na0.01Se1,461.5,165720,0.00060937,0.000058833,2.61,0.1342,0.0000060343,0.0002334751
3503,10.1021/ja400069s,105,6(a),286,Pb0.98Sr0.01Na0.01Se1,Pb0.98Sr0.01Na0.01Se1,462,165410,0.00061039,0.000058967,2.607,0.13517,0.0000060456,0.000234135
3503,10.1021/ja400069s,105,6(a),286,Pb0.98Sr0.01Na0.01Se1,Pb0.98Sr0.01Na0.01Se1,462.5,165100,0.0006114,0.000059101,2.6039,0.13615,0.0000060569,0.0002348016
3503,10.1021/ja400069s,105,6(a),286,Pb0.98Sr0.01Na0.01Se1,Pb0.98Sr0.01Na0.01Se1,463,164780,0.00061242,0.000059235,2.6009,0.13712,0.0000060687,0.0002354646
3503,10.1021/ja400069s,105,6(a),286,Pb0.98Sr0.01Na0.01Se1,Pb0.98Sr0.01Na0.01Se1,463.5,164470,0.00061343,0.00005937,2.5979,0.1381,0.0000060801,0.0002361253
3503,10.1021/ja400069s,105,6(a),286,Pb0.98Sr0.01Na0.01Se1,Pb0.98Sr0.01Na0.01Se1,464,164160,0.00061445,0.000059504,2.5949,0.13907,0.0000060916,0.0002367914
3503,10.1021/ja400069s,105,6(a),286,Pb0.98Sr0.01Na0.01Se1,Pb0.98Sr0.01Na0.01Se1,464.5,163840,0.00061547,0.000059639,2.5919,0.14005,0.0000061035,0.000237459
3503,10.1021/ja400069s,105,6(a),286,Pb0.98Sr0.01Na0.01Se1,Pb0.98Sr0.01Na0.01Se1,465,163530,0.00061648,0.000059775,2.5888,0.14102,0.0000061151,0.0002381335
3503,10.1021/ja400069s,105,6(a),286,Pb0.98Sr0.01Na0.01Se1,Pb0.98Sr0.01Na0.01Se1,465.5,163220,0.0006175,0.000059911,2.5858,0.14199,0.0000061267,0.0002388042
3503,10.1021/ja400069s,105,6(a),286,Pb0.98Sr0.01Na0.01Se1,Pb0.98Sr0.01Na0.01Se1,466,162910,0.00061851,0.000060046,2.5828,0.14297,0.0000061384,0.0002394727
3503,10.1021/ja400069s,105,6(a),286,Pb0.98Sr0.01Na0.01Se1,Pb0.98Sr0.01Na0.01Se1,466.5,162600,0.00061953,0.000060183,2.5798,0.14394,0.0000061501,0.0002401465
3503,10.1021/ja400069s,105,6(a),286,Pb0.98Sr0.01Na0.01Se1,Pb0.98Sr0.01Na0.01Se1,467,162290,0.00062054,0.000060319,2.5768,0.14492,0.0000061618,0.0002408181
3503,10.1021/ja400069s,105,6(a),286,Pb0.98Sr0.01Na0.01Se1,Pb0.98Sr0.01Na0.01Se1,467.5,161980,0.00062156,0.000060456,2.5738,0.14589,0.0000061736,0.0002414951
3503,10.1021/ja400069s,105,6(a),286,Pb0.98Sr0.01Na0.01Se1,Pb0.98Sr0.01Na0.01Se1,468,161670,0.00062257,0.000060593,2.5708,0.14687,0.0000061854,0.0002421698
3503,10.1021/ja400069s,105,6(a),286,Pb0.98Sr0.01Na0.01Se1,Pb0.98Sr0.01Na0.01Se1,468.5,161360,0.00062359,0.00006073,2.5678,0.14784,0.0000061973,0.0002428499
3503,10.1021/ja400069s,105,6(a),286,Pb0.98Sr0.01Na0.01Se1,Pb0.98Sr0.01Na0.01Se1,469,161050,0.0006246,0.000060868,2.5648,0.14882,0.0000062093,0.0002435278
3503,10.1021/ja400069s,105,6(a),286,Pb0.98Sr0.01Na0.01Se1,Pb0.98Sr0.01Na0.01Se1,469.5,160740,0.00062562,0.000061006,2.5619,0.14979,0.0000062212,0.0002442016
3503,10.1021/ja400069s,105,6(a),286,Pb0.98Sr0.01Na0.01Se1,Pb0.98Sr0.01Na0.01Se1,470,160430,0.00062663,0.000061144,2.5589,0.15077,0.0000062332,0.0002448826
3503,10.1021/ja400069s,105,6(a),286,Pb0.98Sr0.01Na0.01Se1,Pb0.98Sr0.01Na0.01Se1,470.5,160130,0.00062765,0.000061283,2.5559,0.15174,0.0000062449,0.0002455691
3503,10.1021/ja400069s,105,6(a),286,Pb0.98Sr0.01Na0.01Se1,Pb0.98Sr0.01Na0.01Se1,471,159820,0.00062866,0.000061421,2.5529,0.15272,0.000006257,0.0002462533
3503,10.1021/ja400069s,105,6(a),286,Pb0.98Sr0.01Na0.01Se1,Pb0.98Sr0.01Na0.01Se1,471.5,159510,0.00062968,0.00006156,2.55,0.15369,0.0000062692,0.0002469333
3503,10.1021/ja400069s,105,6(a),286,Pb0.98Sr0.01Na0.01Se1,Pb0.98Sr0.01Na0.01Se1,472,159210,0.00063069,0.0000617,2.547,0.15467,0.000006281,0.0002476207
3503,10.1021/ja400069s,105,6(a),286,Pb0.98Sr0.01Na0.01Se1,Pb0.98Sr0.01Na0.01Se1,472.5,158900,0.00063171,0.000061839,2.544,0.15564,0.0000062933,0.0002483137
3503,10.1021/ja400069s,105,6(a),286,Pb0.98Sr0.01Na0.01Se1,Pb0.98Sr0.01Na0.01Se1,473,158590,0.00063273,0.000061979,2.5411,0.15662,0.0000063056,0.0002489985
3503,10.1021/ja400069s,105,6(a),286,Pb0.98Sr0.01Na0.01Se1,Pb0.98Sr0.01Na0.01Se1,473.5,158290,0.00063374,0.000062119,2.5381,0.15759,0.0000063175,0.0002496907
3503,10.1021/ja400069s,105,6(a),286,Pb0.98Sr0.01Na0.01Se1,Pb0.98Sr0.01Na0.01Se1,474,157980,0.00063476,0.00006226,2.5351,0.15857,0.0000063299,0.0002503885
3503,10.1021/ja400069s,105,6(a),286,Pb0.98Sr0.01Na0.01Se1,Pb0.98Sr0.01Na0.01Se1,474.5,157680,0.00063577,0.0000624,2.5322,0.15954,0.000006342,0.0002510742
3503,10.1021/ja400069s,105,6(a),286,Pb0.98Sr0.01Na0.01Se1,Pb0.98Sr0.01Na0.01Se1,475,157380,0.00063679,0.000062541,2.5292,0.16052,0.000006354,0.0002517753
3503,10.1021/ja400069s,105,6(a),286,Pb0.98Sr0.01Na0.01Se1,Pb0.98Sr0.01Na0.01Se1,475.5,157070,0.0006378,0.000062683,2.5263,0.16149,0.0000063666,0.0002524641
3503,10.1021/ja400069s,105,6(a),286,Pb0.98Sr0.01Na0.01Se1,Pb0.98Sr0.01Na0.01Se1,476,156770,0.00063882,0.000062824,2.5233,0.16247,0.0000063788,0.0002531685
3503,10.1021/ja400069s,105,6(a),286,Pb0.98Sr0.01Na0.01Se1,Pb0.98Sr0.01Na0.01Se1,476.5,156470,0.00063983,0.000062966,2.5204,0.16344,0.000006391,0.0002538605
3503,10.1021/ja400069s,105,6(a),286,Pb0.98Sr0.01Na0.01Se1,Pb0.98Sr0.01Na0.01Se1,477,156160,0.00064085,0.000063108,2.5175,0.16442,0.0000064037,0.0002545581
3503,10.1021/ja400069s,105,6(a),286,Pb0.98Sr0.01Na0.01Se1,Pb0.98Sr0.01Na0.01Se1,477.5,155860,0.00064186,0.00006325,2.5145,0.16539,0.000006416,0.0002552635
3503,10.1021/ja400069s,105,6(a),286,Pb0.98Sr0.01Na0.01Se1,Pb0.98Sr0.01Na0.01Se1,478,155560,0.00064288,0.000063393,2.5116,0.16637,0.0000064284,0.0002559643
3503,10.1021/ja400069s,105,6(a),286,Pb0.98Sr0.01Na0.01Se1,Pb0.98Sr0.01Na0.01Se1,478.5,155260,0.00064389,0.000063536,2.5087,0.16734,0.0000064408,0.0002566628
3503,10.1021/ja400069s,105,6(a),286,Pb0.98Sr0.01Na0.01Se1,Pb0.98Sr0.01Na0.01Se1,479,154960,0.00064491,0.000063679,2.5057,0.16832,0.0000064533,0.0002573772
3503,10.1021/ja400069s,105,6(a),286,Pb0.98Sr0.01Na0.01Se1,Pb0.98Sr0.01Na0.01Se1,479.5,154660,0.00064592,0.000063822,2.5028,0.16929,0.0000064658,0.000258079
3503,10.1021/ja400069s,105,6(a),286,Pb0.98Sr0.01Na0.01Se1,Pb0.98Sr0.01Na0.01Se1,480,154360,0.00064694,0.000063966,2.4999,0.17026,0.0000064784,0.0002587864
3503,10.1021/ja400069s,105,6(a),286,Pb0.98Sr0.01Na0.01Se1,Pb0.98Sr0.01Na0.01Se1,480.5,154060,0.00064795,0.00006411,2.497,0.17124,0.000006491,0.0002594914
3503,10.1021/ja400069s,105,6(a),286,Pb0.98Sr0.01Na0.01Se1,Pb0.98Sr0.01Na0.01Se1,481,153760,0.00064897,0.000064254,2.494,0.17221,0.0000065036,0.0002602125
3503,10.1021/ja400069s,105,6(a),286,Pb0.98Sr0.01Na0.01Se1,Pb0.98Sr0.01Na0.01Se1,481.5,153460,0.00064999,0.000064399,2.4911,0.17319,0.0000065164,0.0002609249
3503,10.1021/ja400069s,105,6(a),286,Pb0.98Sr0.01Na0.01Se1,Pb0.98Sr0.01Na0.01Se1,482,153160,0.000651,0.000064544,2.4882,0.17416,0.0000065291,0.0002616349
3503,10.1021/ja400069s,105,6(a),286,Pb0.98Sr0.01Na0.01Se1,Pb0.98Sr0.01Na0.01Se1,482.5,152860,0.00065202,0.000064689,2.4853,0.17514,0.0000065419,0.0002623506
3503,10.1021/ja400069s,105,6(a),286,Pb0.98Sr0.01Na0.01Se1,Pb0.98Sr0.01Na0.01Se1,483,152570,0.00065303,0.000064834,2.4824,0.17611,0.0000065544,0.000263064
3503,10.1021/ja400069s,105,6(a),286,Pb0.98Sr0.01Na0.01Se1,Pb0.98Sr0.01Na0.01Se1,483.5,152270,0.00065405,0.00006498,2.4795,0.17709,0.0000065673,0.000263783
3503,10.1021/ja400069s,105,6(a),286,Pb0.98Sr0.01Na0.01Se1,Pb0.98Sr0.01Na0.01Se1,484,151970,0.00065506,0.000065125,2.4766,0.17806,0.0000065802,0.0002644997
3503,10.1021/ja400069s,105,6(a),286,Pb0.98Sr0.01Na0.01Se1,Pb0.98Sr0.01Na0.01Se1,484.5,151680,0.00065608,0.000065272,2.4737,0.17904,0.0000065928,0.0002652221
3503,10.1021/ja400069s,105,6(a),286,Pb0.98Sr0.01Na0.01Se1,Pb0.98Sr0.01Na0.01Se1,485,151380,0.00065709,0.000065418,2.4708,0.18001,0.0000066059,0.0002659422
3503,10.1021/ja400069s,105,6(a),286,Pb0.98Sr0.01Na0.01Se1,Pb0.98Sr0.01Na0.01Se1,485.5,151080,0.00065811,0.000065565,2.468,0.18099,0.000006619,0.0002666572
3503,10.1021/ja400069s,105,6(a),286,Pb0.98Sr0.01Na0.01Se1,Pb0.98Sr0.01Na0.01Se1,486,150790,0.00065912,0.000065712,2.4651,0.18196,0.0000066317,0.0002673806
3503,10.1021/ja400069s,105,6(a),286,Pb0.98Sr0.01Na0.01Se1,Pb0.98Sr0.01Na0.01Se1,486.5,150490,0.00066014,0.000065859,2.4622,0.18294,0.000006645,0.0002681098
3503,10.1021/ja400069s,105,6(a),286,Pb0.98Sr0.01Na0.01Se1,Pb0.98Sr0.01Na0.01Se1,487,150200,0.00066115,0.000066006,2.4593,0.18391,0.0000066578,0.0002688367
3503,10.1021/ja400069s,105,6(a),286,Pb0.98Sr0.01Na0.01Se1,Pb0.98Sr0.01Na0.01Se1,487.5,149910,0.00066217,0.000066154,2.4564,0.18489,0.0000066707,0.0002695693
3503,10.1021/ja400069s,105,6(a),286,Pb0.98Sr0.01Na0.01Se1,Pb0.98Sr0.01Na0.01Se1,488,149610,0.00066318,0.000066302,2.4536,0.18586,0.000006684,0.0002702886
3503,10.1021/ja400069s,105,6(a),286,Pb0.98Sr0.01Na0.01Se1,Pb0.98Sr0.01Na0.01Se1,488.5,149320,0.0006642,0.00006645,2.4507,0.18684,0.000006697,0.0002710246
3503,10.1021/ja400069s,105,6(a),286,Pb0.98Sr0.01Na0.01Se1,Pb0.98Sr0.01Na0.01Se1,489,149030,0.00066522,0.000066599,2.4478,0.18781,0.0000067101,0.0002717624
3503,10.1021/ja400069s,105,6(a),286,Pb0.98Sr0.01Na0.01Se1,Pb0.98Sr0.01Na0.01Se1,489.5,148730,0.00066623,0.000066748,2.445,0.18879,0.0000067236,0.0002724867
3503,10.1021/ja400069s,105,6(a),286,Pb0.98Sr0.01Na0.01Se1,Pb0.98Sr0.01Na0.01Se1,490,148440,0.00066725,0.000066897,2.4421,0.18976,0.0000067367,0.000273228