sid,DOI,figureid,fignum,sampleid,samplename,composition,Temperature,Electrical conductivity,Power factor,Seebeck coefficient,Thermal conductivity,ZT,Electrical resistivity,Figure of merit Z
3503,10.1021/ja400069s,105,6(a),311,Pb0.99Na0.01Se1,Pb0.99Na0.01Se1,299,298470,0.00026303,0.000029686,,,0.0000033504,
3503,10.1021/ja400069s,105,6(a),311,Pb0.99Na0.01Se1,Pb0.99Na0.01Se1,299.5,297970,0.00026291,0.000029704,4.2789,0.018402,0.000003356,0.0000614434
3503,10.1021/ja400069s,105,6(a),311,Pb0.99Na0.01Se1,Pb0.99Na0.01Se1,300,297470,0.0002628,0.000029723,4.2745,0.018444,0.0000033617,0.0000614809
3503,10.1021/ja400069s,105,6(a),311,Pb0.99Na0.01Se1,Pb0.99Na0.01Se1,300.5,296970,0.0002627,0.000029742,4.2701,0.018487,0.0000033673,0.0000615208
3503,10.1021/ja400069s,105,6(a),311,Pb0.99Na0.01Se1,Pb0.99Na0.01Se1,301,296470,0.00026259,0.000029761,4.2657,0.018529,0.000003373,0.0000615585
3503,10.1021/ja400069s,105,6(a),311,Pb0.99Na0.01Se1,Pb0.99Na0.01Se1,301.5,295980,0.00026251,0.000029781,4.2613,0.018573,0.0000033786,0.0000616033
3503,10.1021/ja400069s,105,6(a),311,Pb0.99Na0.01Se1,Pb0.99Na0.01Se1,302,295480,0.00026243,0.000029802,4.257,-0.092855,0.0000033843,0.0000616467
3503,10.1021/ja400069s,105,6(a),311,Pb0.99Na0.01Se1,Pb0.99Na0.01Se1,302.5,294990,0.00026593,0.000029822,4.2526,-0.0921,0.0000033899,0.0000625335
3503,10.1021/ja400069s,105,6(a),311,Pb0.99Na0.01Se1,Pb0.99Na0.01Se1,303,294490,0.00026692,0.000029843,4.2482,-0.091344,0.0000033957,0.0000628313
3503,10.1021/ja400069s,105,6(a),311,Pb0.99Na0.01Se1,Pb0.99Na0.01Se1,303.5,294000,0.00026791,0.000029865,4.2438,-0.090589,0.0000034014,0.0000631297
3503,10.1021/ja400069s,105,6(a),311,Pb0.99Na0.01Se1,Pb0.99Na0.01Se1,304,293510,0.00026889,0.000029887,4.2394,-0.089833,0.000003407,0.0000634264
3503,10.1021/ja400069s,105,6(a),311,Pb0.99Na0.01Se1,Pb0.99Na0.01Se1,304.5,293020,0.00026988,0.000029909,4.2351,-0.089078,0.0000034127,0.0000637246
3503,10.1021/ja400069s,105,6(a),311,Pb0.99Na0.01Se1,Pb0.99Na0.01Se1,305,292530,0.00027086,0.000029932,4.2307,-0.088323,0.0000034185,0.0000640225
3503,10.1021/ja400069s,105,6(a),311,Pb0.99Na0.01Se1,Pb0.99Na0.01Se1,305.5,292040,0.00027185,0.000029956,4.2263,-0.087567,0.0000034242,0.0000643234
3503,10.1021/ja400069s,105,6(a),311,Pb0.99Na0.01Se1,Pb0.99Na0.01Se1,306,291550,0.00027283,0.000029979,4.2219,-0.086812,0.0000034299,0.0000646226
3503,10.1021/ja400069s,105,6(a),311,Pb0.99Na0.01Se1,Pb0.99Na0.01Se1,306.5,291070,0.00027382,0.000030003,4.2176,-0.086056,0.0000034356,0.0000649232
3503,10.1021/ja400069s,105,6(a),311,Pb0.99Na0.01Se1,Pb0.99Na0.01Se1,307,290580,0.00027481,0.000030028,4.2132,-0.085301,0.0000034414,0.000065226
3503,10.1021/ja400069s,105,6(a),311,Pb0.99Na0.01Se1,Pb0.99Na0.01Se1,307.5,290100,0.00027579,0.000030053,4.2089,-0.084545,0.0000034471,0.0000655254
3503,10.1021/ja400069s,105,6(a),311,Pb0.99Na0.01Se1,Pb0.99Na0.01Se1,308,289610,0.00027678,0.000030078,4.2045,-0.08379,0.0000034529,0.0000658295
3503,10.1021/ja400069s,105,6(a),311,Pb0.99Na0.01Se1,Pb0.99Na0.01Se1,308.5,289130,0.00027776,0.000030104,4.2001,-0.083035,0.0000034587,0.0000661318
3503,10.1021/ja400069s,105,6(a),311,Pb0.99Na0.01Se1,Pb0.99Na0.01Se1,309,288650,0.00027875,0.00003013,4.1958,-0.082279,0.0000034644,0.0000664355
3503,10.1021/ja400069s,105,6(a),311,Pb0.99Na0.01Se1,Pb0.99Na0.01Se1,309.5,288170,0.00027973,0.000030157,4.1914,-0.081524,0.0000034702,0.000066739
3503,10.1021/ja400069s,105,6(a),311,Pb0.99Na0.01Se1,Pb0.99Na0.01Se1,310,287690,0.00028072,0.000030184,4.1871,-0.080768,0.000003476,0.000067044
3503,10.1021/ja400069s,105,6(a),311,Pb0.99Na0.01Se1,Pb0.99Na0.01Se1,310.5,287210,0.0002817,0.000030211,4.1827,-0.080013,0.0000034818,0.0000673488
3503,10.1021/ja400069s,105,6(a),311,Pb0.99Na0.01Se1,Pb0.99Na0.01Se1,311,286730,0.00028269,0.000030239,4.1784,-0.079257,0.0000034876,0.0000676551
3503,10.1021/ja400069s,105,6(a),311,Pb0.99Na0.01Se1,Pb0.99Na0.01Se1,311.5,286250,0.00028368,0.000030268,4.174,-0.078502,0.0000034934,0.0000679636
3503,10.1021/ja400069s,105,6(a),311,Pb0.99Na0.01Se1,Pb0.99Na0.01Se1,312,285780,0.00028466,0.000030296,4.1697,-0.077747,0.0000034992,0.0000682687
3503,10.1021/ja400069s,105,6(a),311,Pb0.99Na0.01Se1,Pb0.99Na0.01Se1,312.5,285300,0.00028565,0.000030326,4.1654,-0.076991,0.0000035051,0.0000685768
3503,10.1021/ja400069s,105,6(a),311,Pb0.99Na0.01Se1,Pb0.99Na0.01Se1,313,284830,0.00028663,0.000030355,4.161,-0.076236,0.0000035109,0.0000688849
3503,10.1021/ja400069s,105,6(a),311,Pb0.99Na0.01Se1,Pb0.99Na0.01Se1,313.5,284350,0.00028762,0.000030385,4.1567,-0.07548,0.0000035168,0.0000691943
3503,10.1021/ja400069s,105,6(a),311,Pb0.99Na0.01Se1,Pb0.99Na0.01Se1,314,283880,0.0002886,0.000030415,4.1523,-0.074725,0.0000035226,0.0000695036
3503,10.1021/ja400069s,105,6(a),311,Pb0.99Na0.01Se1,Pb0.99Na0.01Se1,314.5,283410,0.00028959,0.000030446,4.148,-0.07397,0.0000035285,0.0000698144
3503,10.1021/ja400069s,105,6(a),311,Pb0.99Na0.01Se1,Pb0.99Na0.01Se1,315,282940,0.00029058,0.000030477,4.1437,-0.073214,0.0000035343,0.0000701257
3503,10.1021/ja400069s,105,6(a),311,Pb0.99Na0.01Se1,Pb0.99Na0.01Se1,315.5,282470,0.00029156,0.000030509,4.1394,-0.072459,0.0000035402,0.0000704353
3503,10.1021/ja400069s,105,6(a),311,Pb0.99Na0.01Se1,Pb0.99Na0.01Se1,316,282000,0.00029255,0.000030541,4.135,-0.071703,0.0000035461,0.0000707497
3503,10.1021/ja400069s,105,6(a),311,Pb0.99Na0.01Se1,Pb0.99Na0.01Se1,316.5,281530,0.00029353,0.000030574,4.1307,-0.070948,0.000003552,0.0000710606
3503,10.1021/ja400069s,105,6(a),311,Pb0.99Na0.01Se1,Pb0.99Na0.01Se1,317,281060,0.00029452,0.000030606,4.1264,-0.070192,0.000003558,0.0000713746
3503,10.1021/ja400069s,105,6(a),311,Pb0.99Na0.01Se1,Pb0.99Na0.01Se1,317.5,280600,0.0002955,0.00003064,4.1221,-0.069437,0.0000035638,0.0000716868
3503,10.1021/ja400069s,105,6(a),311,Pb0.99Na0.01Se1,Pb0.99Na0.01Se1,318,280130,0.00029649,0.000030673,4.1178,-0.068682,0.0000035698,0.000072002
3503,10.1021/ja400069s,105,6(a),311,Pb0.99Na0.01Se1,Pb0.99Na0.01Se1,318.5,279670,0.00029747,0.000030707,4.1135,-0.067926,0.0000035756,0.0000723155
3503,10.1021/ja400069s,105,6(a),311,Pb0.99Na0.01Se1,Pb0.99Na0.01Se1,319,279210,0.00029846,0.000030742,4.1091,-0.067171,0.0000035815,0.0000726339
3503,10.1021/ja400069s,105,6(a),311,Pb0.99Na0.01Se1,Pb0.99Na0.01Se1,319.5,278740,0.00029945,0.000030777,4.1048,-0.066415,0.0000035876,0.0000729512
3503,10.1021/ja400069s,105,6(a),311,Pb0.99Na0.01Se1,Pb0.99Na0.01Se1,320,278280,0.00030043,0.000030812,4.1005,-0.06566,0.0000035935,0.0000732667
3503,10.1021/ja400069s,105,6(a),311,Pb0.99Na0.01Se1,Pb0.99Na0.01Se1,320.5,277820,0.00030142,0.000030848,4.0962,-0.064904,0.0000035995,0.0000735853
3503,10.1021/ja400069s,105,6(a),311,Pb0.99Na0.01Se1,Pb0.99Na0.01Se1,321,277360,0.0003024,0.000030884,4.0919,-0.064149,0.0000036054,0.0000739021
3503,10.1021/ja400069s,105,6(a),311,Pb0.99Na0.01Se1,Pb0.99Na0.01Se1,321.5,276900,0.00030339,0.00003092,4.0876,-0.063394,0.0000036114,0.000074222
3503,10.1021/ja400069s,105,6(a),311,Pb0.99Na0.01Se1,Pb0.99Na0.01Se1,322,276440,0.00030437,0.000030957,4.0833,-0.062638,0.0000036174,0.0000745402
3503,10.1021/ja400069s,105,6(a),311,Pb0.99Na0.01Se1,Pb0.99Na0.01Se1,322.5,275990,0.00030536,0.000030995,4.079,-0.061883,0.0000036233,0.0000748615
3503,10.1021/ja400069s,105,6(a),311,Pb0.99Na0.01Se1,Pb0.99Na0.01Se1,323,275530,0.00030635,0.000031032,4.0748,-0.061127,0.0000036294,0.0000751816
3503,10.1021/ja400069s,105,6(a),311,Pb0.99Na0.01Se1,Pb0.99Na0.01Se1,323.5,275070,0.00030733,0.000031071,4.0705,-0.060372,0.0000036354,0.0000755018
3503,10.1021/ja400069s,105,6(a),311,Pb0.99Na0.01Se1,Pb0.99Na0.01Se1,324,274620,0.00030832,0.000031109,4.0662,-0.059617,0.0000036414,0.0000758251
3503,10.1021/ja400069s,105,6(a),311,Pb0.99Na0.01Se1,Pb0.99Na0.01Se1,324.5,274170,0.0003093,0.000031148,4.0619,-0.058861,0.0000036474,0.0000761466
3503,10.1021/ja400069s,105,6(a),311,Pb0.99Na0.01Se1,Pb0.99Na0.01Se1,325,273710,0.00031029,0.000031187,4.0576,-0.058106,0.0000036535,0.0000764713
3503,10.1021/ja400069s,105,6(a),311,Pb0.99Na0.01Se1,Pb0.99Na0.01Se1,325.5,273260,0.00031127,0.000031227,4.0533,-0.05735,0.0000036595,0.0000767942
3503,10.1021/ja400069s,105,6(a),311,Pb0.99Na0.01Se1,Pb0.99Na0.01Se1,326,272810,0.00031226,0.000031267,4.0491,-0.056595,0.0000036656,0.0000771184
3503,10.1021/ja400069s,105,6(a),311,Pb0.99Na0.01Se1,Pb0.99Na0.01Se1,326.5,272360,0.00031324,0.000031308,4.0448,-0.055839,0.0000036716,0.0000774426
3503,10.1021/ja400069s,105,6(a),311,Pb0.99Na0.01Se1,Pb0.99Na0.01Se1,327,271910,0.00031423,0.000031349,4.0405,-0.055084,0.0000036777,0.0000777701
3503,10.1021/ja400069s,105,6(a),311,Pb0.99Na0.01Se1,Pb0.99Na0.01Se1,327.5,271460,0.00031522,0.00003139,4.0362,-0.054329,0.0000036838,0.0000780982
3503,10.1021/ja400069s,105,6(a),311,Pb0.99Na0.01Se1,Pb0.99Na0.01Se1,328,271010,0.0003162,0.000031432,4.032,-0.053573,0.0000036899,0.0000784226
3503,10.1021/ja400069s,105,6(a),311,Pb0.99Na0.01Se1,Pb0.99Na0.01Se1,328.5,270570,0.00031719,0.000031474,4.0277,-0.052818,0.0000036959,0.0000787521
3503,10.1021/ja400069s,105,6(a),311,Pb0.99Na0.01Se1,Pb0.99Na0.01Se1,329,270120,0.00031817,0.000031517,4.0235,-0.052062,0.0000037021,0.0000790779
3503,10.1021/ja400069s,105,6(a),311,Pb0.99Na0.01Se1,Pb0.99Na0.01Se1,329.5,269670,0.00031916,0.000031559,4.0192,-0.051307,0.0000037082,0.0000794088
3503,10.1021/ja400069s,105,6(a),311,Pb0.99Na0.01Se1,Pb0.99Na0.01Se1,330,269230,0.00032014,0.000031603,4.0149,-0.050551,0.0000037143,0.000079738
3503,10.1021/ja400069s,105,6(a),311,Pb0.99Na0.01Se1,Pb0.99Na0.01Se1,330.5,268790,0.00032113,0.000031647,4.0107,-0.049796,0.0000037204,0.0000800683
3503,10.1021/ja400069s,105,6(a),311,Pb0.99Na0.01Se1,Pb0.99Na0.01Se1,331,268340,0.00032212,0.000031691,4.0064,-0.049041,0.0000037266,0.0000804014
3503,10.1021/ja400069s,105,6(a),311,Pb0.99Na0.01Se1,Pb0.99Na0.01Se1,331.5,267900,0.0003231,0.000031735,4.0022,-0.048285,0.0000037327,0.0000807306
3503,10.1021/ja400069s,105,6(a),311,Pb0.99Na0.01Se1,Pb0.99Na0.01Se1,332,267460,0.00032409,0.00003178,3.9979,-0.04753,0.0000037389,0.0000810651
3503,10.1021/ja400069s,105,6(a),311,Pb0.99Na0.01Se1,Pb0.99Na0.01Se1,332.5,267020,0.00032507,0.000031825,3.9937,-0.046774,0.000003745,0.0000813957
3503,10.1021/ja400069s,105,6(a),311,Pb0.99Na0.01Se1,Pb0.99Na0.01Se1,333,266580,0.00032606,0.000031871,3.9895,-0.046019,0.0000037512,0.0000817295
3503,10.1021/ja400069s,105,6(a),311,Pb0.99Na0.01Se1,Pb0.99Na0.01Se1,333.5,266140,0.00032704,0.000031917,3.9852,-0.045264,0.0000037574,0.0000820636
3503,10.1021/ja400069s,105,6(a),311,Pb0.99Na0.01Se1,Pb0.99Na0.01Se1,334,265700,0.00032803,0.000031964,3.981,-0.044508,0.0000037636,0.0000823989
3503,10.1021/ja400069s,105,6(a),311,Pb0.99Na0.01Se1,Pb0.99Na0.01Se1,334.5,265270,0.00032902,0.000032011,3.9767,-0.043753,0.0000037697,0.0000827369
3503,10.1021/ja400069s,105,6(a),311,Pb0.99Na0.01Se1,Pb0.99Na0.01Se1,335,264830,0.00033,0.000032058,3.9725,-0.042997,0.000003776,0.0000830711
3503,10.1021/ja400069s,105,6(a),311,Pb0.99Na0.01Se1,Pb0.99Na0.01Se1,335.5,264390,0.00033099,0.000032105,3.9683,-0.042242,0.0000037823,0.0000834085
3503,10.1021/ja400069s,105,6(a),311,Pb0.99Na0.01Se1,Pb0.99Na0.01Se1,336,263960,0.00033197,0.000032153,3.9641,-0.041486,0.0000037885,0.0000837441
3503,10.1021/ja400069s,105,6(a),311,Pb0.99Na0.01Se1,Pb0.99Na0.01Se1,336.5,263530,0.00033296,0.000032202,3.9598,-0.040731,0.0000037946,0.0000840851
3503,10.1021/ja400069s,105,6(a),311,Pb0.99Na0.01Se1,Pb0.99Na0.01Se1,337,263090,0.00033394,0.000032251,3.9556,-0.039976,0.000003801,0.0000844221
3503,10.1021/ja400069s,105,6(a),311,Pb0.99Na0.01Se1,Pb0.99Na0.01Se1,337.5,262660,0.00033493,0.0000323,3.9514,-0.03922,0.0000038072,0.0000847624
3503,10.1021/ja400069s,105,6(a),311,Pb0.99Na0.01Se1,Pb0.99Na0.01Se1,338,262230,0.00033591,0.00003235,3.9472,-0.038465,0.0000038134,0.0000851008
3503,10.1021/ja400069s,105,6(a),311,Pb0.99Na0.01Se1,Pb0.99Na0.01Se1,338.5,261800,0.0003369,0.0000324,3.943,-0.037709,0.0000038197,0.0000854426
3503,10.1021/ja400069s,105,6(a),311,Pb0.99Na0.01Se1,Pb0.99Na0.01Se1,339,261370,0.00033789,0.00003245,3.9388,-0.036954,0.000003826,0.000085785
3503,10.1021/ja400069s,105,6(a),311,Pb0.99Na0.01Se1,Pb0.99Na0.01Se1,339.5,260940,0.00033887,0.000032501,3.9345,-0.036198,0.0000038323,0.0000861278
3503,10.1021/ja400069s,105,6(a),311,Pb0.99Na0.01Se1,Pb0.99Na0.01Se1,340,260510,0.00033986,0.000032552,3.9303,-0.035443,0.0000038386,0.0000864718
3503,10.1021/ja400069s,105,6(a),311,Pb0.99Na0.01Se1,Pb0.99Na0.01Se1,340.5,260080,0.00034084,0.000032603,3.9261,-0.034688,0.000003845,0.0000868139
3503,10.1021/ja400069s,105,6(a),311,Pb0.99Na0.01Se1,Pb0.99Na0.01Se1,341,259650,0.00034183,0.000032655,3.9219,-0.033932,0.0000038513,0.0000871593
3503,10.1021/ja400069s,105,6(a),311,Pb0.99Na0.01Se1,Pb0.99Na0.01Se1,341.5,259230,0.00034281,0.000032708,3.9177,-0.033177,0.0000038576,0.0000875029
3503,10.1021/ja400069s,105,6(a),311,Pb0.99Na0.01Se1,Pb0.99Na0.01Se1,342,258800,0.0003438,0.00003276,3.9135,-0.032421,0.000003864,0.0000878498
3503,10.1021/ja400069s,105,6(a),311,Pb0.99Na0.01Se1,Pb0.99Na0.01Se1,342.5,258380,0.00034479,0.000032813,3.9093,-0.031666,0.0000038703,0.0000881974
3503,10.1021/ja400069s,105,6(a),311,Pb0.99Na0.01Se1,Pb0.99Na0.01Se1,343,257950,0.00034577,0.000032867,3.9052,-0.030911,0.0000038767,0.0000885409
3503,10.1021/ja400069s,105,6(a),311,Pb0.99Na0.01Se1,Pb0.99Na0.01Se1,343.5,257530,0.00034676,0.000032921,3.901,-0.030155,0.000003883,0.00008889
3503,10.1021/ja400069s,105,6(a),311,Pb0.99Na0.01Se1,Pb0.99Na0.01Se1,344,257110,0.00034774,0.000032975,3.8968,-0.0294,0.0000038894,0.0000892373
3503,10.1021/ja400069s,105,6(a),311,Pb0.99Na0.01Se1,Pb0.99Na0.01Se1,344.5,256680,0.00034873,0.000033029,3.8926,-0.028644,0.0000038959,0.0000895879
3503,10.1021/ja400069s,105,6(a),311,Pb0.99Na0.01Se1,Pb0.99Na0.01Se1,345,256260,0.00034971,0.000033084,3.8884,-0.027889,0.0000039023,0.0000899367
3503,10.1021/ja400069s,105,6(a),311,Pb0.99Na0.01Se1,Pb0.99Na0.01Se1,345.5,255840,0.0003507,0.00003314,3.8842,-0.027133,0.0000039087,0.0000902889
3503,10.1021/ja400069s,105,6(a),311,Pb0.99Na0.01Se1,Pb0.99Na0.01Se1,346,255420,0.00035168,0.000033195,3.8801,-0.026378,0.0000039151,0.0000906368
3503,10.1021/ja400069s,105,6(a),311,Pb0.99Na0.01Se1,Pb0.99Na0.01Se1,346.5,255000,0.00035267,0.000033251,3.8759,-0.025623,0.0000039216,0.0000909905
3503,10.1021/ja400069s,105,6(a),311,Pb0.99Na0.01Se1,Pb0.99Na0.01Se1,347,254590,0.00035366,0.000033308,3.8717,-0.024867,0.0000039279,0.0000913449
3503,10.1021/ja400069s,105,6(a),311,Pb0.99Na0.01Se1,Pb0.99Na0.01Se1,347.5,254170,0.00035464,0.000033365,3.8676,-0.024112,0.0000039344,0.0000916951
3503,10.1021/ja400069s,105,6(a),311,Pb0.99Na0.01Se1,Pb0.99Na0.01Se1,348,253750,0.00035563,0.000033422,3.8634,-0.023356,0.0000039409,0.000092051
3503,10.1021/ja400069s,105,6(a),311,Pb0.99Na0.01Se1,Pb0.99Na0.01Se1,348.5,253340,0.00035661,0.00003348,3.8592,-0.022601,0.0000039473,0.0000924052
3503,10.1021/ja400069s,105,6(a),311,Pb0.99Na0.01Se1,Pb0.99Na0.01Se1,349,252920,0.0003576,0.000033538,3.8551,-0.021845,0.0000039538,0.0000927602
3503,10.1021/ja400069s,105,6(a),311,Pb0.99Na0.01Se1,Pb0.99Na0.01Se1,349.5,252510,0.00035858,0.000033596,3.8509,-0.02109,0.0000039602,0.0000931159
3503,10.1021/ja400069s,105,6(a),311,Pb0.99Na0.01Se1,Pb0.99Na0.01Se1,350,252090,0.00035957,0.000033655,3.8468,-0.020335,0.0000039668,0.0000934725
3503,10.1021/ja400069s,105,6(a),311,Pb0.99Na0.01Se1,Pb0.99Na0.01Se1,350.5,251680,0.00036056,0.000033714,3.8426,-0.019579,0.0000039733,0.0000938323
3503,10.1021/ja400069s,105,6(a),311,Pb0.99Na0.01Se1,Pb0.99Na0.01Se1,351,251270,0.00036154,0.000033773,3.8385,-0.018824,0.0000039798,0.0000941878
3503,10.1021/ja400069s,105,6(a),311,Pb0.99Na0.01Se1,Pb0.99Na0.01Se1,351.5,250850,0.00036253,0.000033833,3.8343,-0.018068,0.0000039864,0.0000945492
3503,10.1021/ja400069s,105,6(a),311,Pb0.99Na0.01Se1,Pb0.99Na0.01Se1,352,250440,0.00036351,0.000033893,3.8302,-0.017313,0.000003993,0.0000949063
3503,10.1021/ja400069s,105,6(a),311,Pb0.99Na0.01Se1,Pb0.99Na0.01Se1,352.5,250030,0.0003645,0.000033954,3.826,-0.016558,0.0000039995,0.0000952692
3503,10.1021/ja400069s,105,6(a),311,Pb0.99Na0.01Se1,Pb0.99Na0.01Se1,353,249620,0.00036548,0.000034015,3.8219,-0.015802,0.0000040061,0.0000956278
3503,10.1021/ja400069s,105,6(a),311,Pb0.99Na0.01Se1,Pb0.99Na0.01Se1,353.5,249210,0.00036647,0.000034076,3.8177,-0.015047,0.0000040127,0.0000959924
3503,10.1021/ja400069s,105,6(a),311,Pb0.99Na0.01Se1,Pb0.99Na0.01Se1,354,248810,0.00036745,0.000034138,3.8136,-0.014291,0.0000040191,0.0000963525
3503,10.1021/ja400069s,105,6(a),311,Pb0.99Na0.01Se1,Pb0.99Na0.01Se1,354.5,248400,0.00036844,0.0000342,3.8095,-0.013536,0.0000040258,0.0000967161
3503,10.1021/ja400069s,105,6(a),311,Pb0.99Na0.01Se1,Pb0.99Na0.01Se1,355,247990,0.00036943,0.000034263,3.8054,-0.01278,0.0000040324,0.0000970805
3503,10.1021/ja400069s,105,6(a),311,Pb0.99Na0.01Se1,Pb0.99Na0.01Se1,355.5,247580,0.00037041,0.000034325,3.8012,-0.012025,0.0000040391,0.0000974455
3503,10.1021/ja400069s,105,6(a),311,Pb0.99Na0.01Se1,Pb0.99Na0.01Se1,356,247180,0.0003714,0.000034389,3.7971,-0.01127,0.0000040456,0.0000978115
3503,10.1021/ja400069s,105,6(a),311,Pb0.99Na0.01Se1,Pb0.99Na0.01Se1,356.5,246770,0.00037238,0.000034452,3.793,-0.010514,0.0000040524,0.0000981756
3503,10.1021/ja400069s,105,6(a),311,Pb0.99Na0.01Se1,Pb0.99Na0.01Se1,357,246370,0.00037337,0.000034516,3.7889,-0.0097587,0.0000040589,0.0000985431
3503,10.1021/ja400069s,105,6(a),311,Pb0.99Na0.01Se1,Pb0.99Na0.01Se1,357.5,245970,0.00037435,0.00003458,3.7848,-0.0090033,0.0000040655,0.0000989088
3503,10.1021/ja400069s,105,6(a),311,Pb0.99Na0.01Se1,Pb0.99Na0.01Se1,358,245560,0.00037534,0.000034645,3.7806,-0.0082479,0.0000040723,0.0000992805
3503,10.1021/ja400069s,105,6(a),311,Pb0.99Na0.01Se1,Pb0.99Na0.01Se1,358.5,245160,0.00037633,0.00003471,3.7765,-0.0074925,0.000004079,0.0000996505
3503,10.1021/ja400069s,105,6(a),311,Pb0.99Na0.01Se1,Pb0.99Na0.01Se1,359,244760,0.00037731,0.000034776,3.7724,-0.0067371,0.0000040856,0.0001000186
3503,10.1021/ja400069s,105,6(a),311,Pb0.99Na0.01Se1,Pb0.99Na0.01Se1,359.5,244360,0.0003783,0.000034841,3.7683,-0.0059816,0.0000040923,0.0001003901
3503,10.1021/ja400069s,105,6(a),311,Pb0.99Na0.01Se1,Pb0.99Na0.01Se1,360,243960,0.00037928,0.000034907,3.7642,-0.0052262,0.000004099,0.0001007598
3503,10.1021/ja400069s,105,6(a),311,Pb0.99Na0.01Se1,Pb0.99Na0.01Se1,360.5,243560,0.00038027,0.000034974,3.7601,-0.0044708,0.0000041058,0.0001011329
3503,10.1021/ja400069s,105,6(a),311,Pb0.99Na0.01Se1,Pb0.99Na0.01Se1,361,243160,0.00038125,0.000035041,3.756,-0.0037154,0.0000041125,0.0001015043
3503,10.1021/ja400069s,105,6(a),311,Pb0.99Na0.01Se1,Pb0.99Na0.01Se1,361.5,242760,0.00038224,0.000035108,3.7519,-0.0029599,0.0000041193,0.000101879
3503,10.1021/ja400069s,105,6(a),311,Pb0.99Na0.01Se1,Pb0.99Na0.01Se1,362,242360,0.00038322,0.000035176,3.7478,-0.0022045,0.0000041261,0.000102252
3503,10.1021/ja400069s,105,6(a),311,Pb0.99Na0.01Se1,Pb0.99Na0.01Se1,362.5,241970,0.00038421,0.000035243,3.7438,-0.0014491,0.0000041327,0.0001026257
3503,10.1021/ja400069s,105,6(a),311,Pb0.99Na0.01Se1,Pb0.99Na0.01Se1,363,241570,0.0003852,0.000035312,3.7397,-0.00069369,0.0000041396,0.0001030029
3503,10.1021/ja400069s,105,6(a),311,Pb0.99Na0.01Se1,Pb0.99Na0.01Se1,363.5,241180,0.00038618,0.00003538,3.7356,0.000061735,0.0000041463,0.0001033783
3503,10.1021/ja400069s,105,6(a),311,Pb0.99Na0.01Se1,Pb0.99Na0.01Se1,364,240780,0.00038717,0.000035449,3.7315,0.00081716,0.0000041532,0.0001037572
3503,10.1021/ja400069s,105,6(a),311,Pb0.99Na0.01Se1,Pb0.99Na0.01Se1,364.5,240390,0.00038815,0.000035519,3.7274,0.0015726,0.0000041599,0.0001041342
3503,10.1021/ja400069s,105,6(a),311,Pb0.99Na0.01Se1,Pb0.99Na0.01Se1,365,239990,0.00038914,0.000035589,3.7234,0.002328,0.0000041668,0.000104512
3503,10.1021/ja400069s,105,6(a),311,Pb0.99Na0.01Se1,Pb0.99Na0.01Se1,365.5,239600,0.00039012,0.000035659,3.7193,0.0030834,0.0000041736,0.0001048907
3503,10.1021/ja400069s,105,6(a),311,Pb0.99Na0.01Se1,Pb0.99Na0.01Se1,366,239210,0.00039111,0.000035729,3.7152,0.0038388,0.0000041804,0.0001052729
3503,10.1021/ja400069s,105,6(a),311,Pb0.99Na0.01Se1,Pb0.99Na0.01Se1,366.5,238820,0.0003921,0.0000358,3.7112,0.0045943,0.0000041873,0.0001056532