sid,DOI,figureid,fignum,sampleid,samplename,composition,Temperature,Electrical conductivity,Power factor,Seebeck coefficient,Thermal conductivity,ZT,Electrical resistivity,Figure of merit Z
3503,10.1021/ja400069s,105,6(a),381,Pb0.98Ba0.01Na0.01Se1,Pb0.98Ba0.01Na0.01Se1,605,76995,0.00086355,0.00011216,1.7335,0.41485,0.0000129879,0.000498154
3503,10.1021/ja400069s,105,6(a),381,Pb0.98Ba0.01Na0.01Se1,Pb0.98Ba0.01Na0.01Se1,605.5,76820,0.00086455,0.00011237,1.7315,0.41582,0.0000130174,0.000499307
3503,10.1021/ja400069s,105,6(a),381,Pb0.98Ba0.01Na0.01Se1,Pb0.98Ba0.01Na0.01Se1,606,76645,0.00086554,0.00011257,1.7295,0.41679,0.0000130472,0.0005004568
3503,10.1021/ja400069s,105,6(a),381,Pb0.98Ba0.01Na0.01Se1,Pb0.98Ba0.01Na0.01Se1,606.5,76471,0.00086653,0.00011278,1.7275,0.41777,0.0000130769,0.0005016093
3503,10.1021/ja400069s,105,6(a),381,Pb0.98Ba0.01Na0.01Se1,Pb0.98Ba0.01Na0.01Se1,607,76297,0.00086752,0.00011299,1.7255,0.41874,0.0000131067,0.0005027644
3503,10.1021/ja400069s,105,6(a),381,Pb0.98Ba0.01Na0.01Se1,Pb0.98Ba0.01Na0.01Se1,607.5,76123,0.00086851,0.00011319,1.7235,0.41971,0.0000131366,0.0005039223
3503,10.1021/ja400069s,105,6(a),381,Pb0.98Ba0.01Na0.01Se1,Pb0.98Ba0.01Na0.01Se1,608,75950,0.00086951,0.0001134,1.7215,0.42068,0.0000131666,0.0005050886
3503,10.1021/ja400069s,105,6(a),381,Pb0.98Ba0.01Na0.01Se1,Pb0.98Ba0.01Na0.01Se1,608.5,75777,0.0008705,0.00011361,1.7196,0.42165,0.0000131966,0.0005062224
3503,10.1021/ja400069s,105,6(a),381,Pb0.98Ba0.01Na0.01Se1,Pb0.98Ba0.01Na0.01Se1,609,75605,0.00087149,0.00011381,1.7176,0.42262,0.0000132266,0.0005073882
3503,10.1021/ja400069s,105,6(a),381,Pb0.98Ba0.01Na0.01Se1,Pb0.98Ba0.01Na0.01Se1,609.5,75433,0.00087248,0.00011402,1.7156,0.42359,0.0000132568,0.0005085568
3503,10.1021/ja400069s,105,6(a),381,Pb0.98Ba0.01Na0.01Se1,Pb0.98Ba0.01Na0.01Se1,610,75261,0.00087347,0.00011423,1.7136,0.42456,0.0000132871,0.0005097281
3503,10.1021/ja400069s,105,6(a),381,Pb0.98Ba0.01Na0.01Se1,Pb0.98Ba0.01Na0.01Se1,610.5,75089,0.00087446,0.00011443,1.7116,0.42554,0.0000133175,0.0005109021
3503,10.1021/ja400069s,105,6(a),381,Pb0.98Ba0.01Na0.01Se1,Pb0.98Ba0.01Na0.01Se1,611,74918,0.00087546,0.00011464,1.7097,0.42651,0.0000133479,0.0005120547
3503,10.1021/ja400069s,105,6(a),381,Pb0.98Ba0.01Na0.01Se1,Pb0.98Ba0.01Na0.01Se1,611.5,74747,0.00087645,0.00011485,1.7077,0.42748,0.0000133785,0.0005132342
3503,10.1021/ja400069s,105,6(a),381,Pb0.98Ba0.01Na0.01Se1,Pb0.98Ba0.01Na0.01Se1,612,74576,0.00087744,0.00011506,1.7057,0.42845,0.0000134091,0.0005144164
3503,10.1021/ja400069s,105,6(a),381,Pb0.98Ba0.01Na0.01Se1,Pb0.98Ba0.01Na0.01Se1,612.5,74406,0.00087843,0.00011527,1.7038,0.42942,0.0000134398,0.0005155711
3503,10.1021/ja400069s,105,6(a),381,Pb0.98Ba0.01Na0.01Se1,Pb0.98Ba0.01Na0.01Se1,613,74236,0.00087942,0.00011547,1.7018,0.43039,0.0000134706,0.0005167587
3503,10.1021/ja400069s,105,6(a),381,Pb0.98Ba0.01Na0.01Se1,Pb0.98Ba0.01Na0.01Se1,613.5,74067,0.00088042,0.00011568,1.6998,0.43136,0.0000135013,0.0005179551
3503,10.1021/ja400069s,105,6(a),381,Pb0.98Ba0.01Na0.01Se1,Pb0.98Ba0.01Na0.01Se1,614,73897,0.00088141,0.00011589,1.6979,0.43233,0.0000135323,0.0005191177
3503,10.1021/ja400069s,105,6(a),381,Pb0.98Ba0.01Na0.01Se1,Pb0.98Ba0.01Na0.01Se1,614.5,73729,0.0008824,0.0001161,1.6959,0.43331,0.0000135632,0.0005203137
3503,10.1021/ja400069s,105,6(a),381,Pb0.98Ba0.01Na0.01Se1,Pb0.98Ba0.01Na0.01Se1,615,73560,0.00088339,0.00011631,1.694,0.43428,0.0000135943,0.0005214817
3503,10.1021/ja400069s,105,6(a),381,Pb0.98Ba0.01Na0.01Se1,Pb0.98Ba0.01Na0.01Se1,615.5,73392,0.00088438,0.00011652,1.692,0.43525,0.0000136255,0.0005226832
3503,10.1021/ja400069s,105,6(a),381,Pb0.98Ba0.01Na0.01Se1,Pb0.98Ba0.01Na0.01Se1,616,73224,0.00088537,0.00011673,1.6901,0.43622,0.0000136567,0.0005238566
3503,10.1021/ja400069s,105,6(a),381,Pb0.98Ba0.01Na0.01Se1,Pb0.98Ba0.01Na0.01Se1,616.5,73056,0.00088637,0.00011693,1.6882,0.43719,0.0000136881,0.0005250385
3503,10.1021/ja400069s,105,6(a),381,Pb0.98Ba0.01Na0.01Se1,Pb0.98Ba0.01Na0.01Se1,617,72889,0.00088736,0.00011714,1.6862,0.43816,0.0000137195,0.0005262484
3503,10.1021/ja400069s,105,6(a),381,Pb0.98Ba0.01Na0.01Se1,Pb0.98Ba0.01Na0.01Se1,617.5,72722,0.00088835,0.00011735,1.6843,0.43913,0.000013751,0.0005274298
3503,10.1021/ja400069s,105,6(a),381,Pb0.98Ba0.01Na0.01Se1,Pb0.98Ba0.01Na0.01Se1,618,72555,0.00088934,0.00011756,1.6823,0.4401,0.0000137826,0.0005286453
3503,10.1021/ja400069s,105,6(a),381,Pb0.98Ba0.01Na0.01Se1,Pb0.98Ba0.01Na0.01Se1,618.5,72389,0.00089033,0.00011777,1.6804,0.44108,0.0000138143,0.0005298322
3503,10.1021/ja400069s,105,6(a),381,Pb0.98Ba0.01Na0.01Se1,Pb0.98Ba0.01Na0.01Se1,619,72223,0.00089133,0.00011798,1.6785,0.44205,0.000013846,0.0005310277
3503,10.1021/ja400069s,105,6(a),381,Pb0.98Ba0.01Na0.01Se1,Pb0.98Ba0.01Na0.01Se1,619.5,72057,0.00089232,0.00011819,1.6766,0.44302,0.0000138779,0.00053222
3503,10.1021/ja400069s,105,6(a),381,Pb0.98Ba0.01Na0.01Se1,Pb0.98Ba0.01Na0.01Se1,620,71892,0.00089331,0.0001184,1.6747,0.44399,0.0000139098,0.0005334149
3503,10.1021/ja400069s,105,6(a),381,Pb0.98Ba0.01Na0.01Se1,Pb0.98Ba0.01Na0.01Se1,620.5,71727,0.0008943,0.00011861,1.6727,0.44496,0.0000139418,0.0005346446
3503,10.1021/ja400069s,105,6(a),381,Pb0.98Ba0.01Na0.01Se1,Pb0.98Ba0.01Na0.01Se1,621,71562,0.00089529,0.00011882,1.6708,0.44593,0.0000139739,0.0005358451
3503,10.1021/ja400069s,105,6(a),381,Pb0.98Ba0.01Na0.01Se1,Pb0.98Ba0.01Na0.01Se1,621.5,71397,0.00089629,0.00011903,1.6689,0.4469,0.0000140062,0.0005370543
3503,10.1021/ja400069s,105,6(a),381,Pb0.98Ba0.01Na0.01Se1,Pb0.98Ba0.01Na0.01Se1,622,71233,0.00089728,0.00011925,1.667,0.44787,0.0000140384,0.0005382603
3503,10.1021/ja400069s,105,6(a),381,Pb0.98Ba0.01Na0.01Se1,Pb0.98Ba0.01Na0.01Se1,622.5,71070,0.00089827,0.00011946,1.6651,0.44885,0.0000140706,0.0005394691
3503,10.1021/ja400069s,105,6(a),381,Pb0.98Ba0.01Na0.01Se1,Pb0.98Ba0.01Na0.01Se1,623,70906,0.00089926,0.00011967,1.6632,0.44982,0.0000141032,0.0005406806
3503,10.1021/ja400069s,105,6(a),381,Pb0.98Ba0.01Na0.01Se1,Pb0.98Ba0.01Na0.01Se1,623.5,70743,0.00090025,0.00011988,1.6613,0.45079,0.0000141357,0.0005418949
3503,10.1021/ja400069s,105,6(a),381,Pb0.98Ba0.01Na0.01Se1,Pb0.98Ba0.01Na0.01Se1,624,70580,0.00090124,0.00012009,1.6594,0.45176,0.0000141683,0.000543112
3503,10.1021/ja400069s,105,6(a),381,Pb0.98Ba0.01Na0.01Se1,Pb0.98Ba0.01Na0.01Se1,624.5,70418,0.00090224,0.0001203,1.6575,0.45273,0.0000142009,0.0005443379
3503,10.1021/ja400069s,105,6(a),381,Pb0.98Ba0.01Na0.01Se1,Pb0.98Ba0.01Na0.01Se1,625,70255,0.00090323,0.00012051,1.6556,0.4537,0.0000142339,0.0005455605
3503,10.1021/ja400069s,105,6(a),381,Pb0.98Ba0.01Na0.01Se1,Pb0.98Ba0.01Na0.01Se1,625.5,70093,0.00090422,0.00012072,1.6538,0.45467,0.0000142668,0.0005467529
3503,10.1021/ja400069s,105,6(a),381,Pb0.98Ba0.01Na0.01Se1,Pb0.98Ba0.01Na0.01Se1,626,69932,0.00090521,0.00012094,1.6519,0.45565,0.0000142996,0.0005479811
3503,10.1021/ja400069s,105,6(a),381,Pb0.98Ba0.01Na0.01Se1,Pb0.98Ba0.01Na0.01Se1,626.5,69771,0.0009062,0.00012115,1.65,0.45662,0.0000143326,0.0005492121
3503,10.1021/ja400069s,105,6(a),381,Pb0.98Ba0.01Na0.01Se1,Pb0.98Ba0.01Na0.01Se1,627,69610,0.0009072,0.00012136,1.6481,0.45759,0.0000143658,0.000550452
3503,10.1021/ja400069s,105,6(a),381,Pb0.98Ba0.01Na0.01Se1,Pb0.98Ba0.01Na0.01Se1,627.5,69449,0.00090819,0.00012157,1.6463,0.45856,0.0000143991,0.0005516552
3503,10.1021/ja400069s,105,6(a),381,Pb0.98Ba0.01Na0.01Se1,Pb0.98Ba0.01Na0.01Se1,628,69289,0.00090918,0.00012179,1.6444,0.45953,0.0000144323,0.0005528947
3503,10.1021/ja400069s,105,6(a),381,Pb0.98Ba0.01Na0.01Se1,Pb0.98Ba0.01Na0.01Se1,628.5,69128,0.00091017,0.000122,1.6425,0.4605,0.0000144659,0.000554137
3503,10.1021/ja400069s,105,6(a),381,Pb0.98Ba0.01Na0.01Se1,Pb0.98Ba0.01Na0.01Se1,629,68969,0.00091116,0.00012221,1.6407,0.46147,0.0000144993,0.0005553483
3503,10.1021/ja400069s,105,6(a),381,Pb0.98Ba0.01Na0.01Se1,Pb0.98Ba0.01Na0.01Se1,629.5,68809,0.00091215,0.00012243,1.6388,0.46244,0.000014533,0.0005565963
3503,10.1021/ja400069s,105,6(a),381,Pb0.98Ba0.01Na0.01Se1,Pb0.98Ba0.01Na0.01Se1,630,68650,0.00091315,0.00012264,1.6369,0.46342,0.0000145666,0.0005578533
3503,10.1021/ja400069s,105,6(a),381,Pb0.98Ba0.01Na0.01Se1,Pb0.98Ba0.01Na0.01Se1,630.5,68491,0.00091414,0.00012285,1.6351,0.46439,0.0000146005,0.0005590728
3503,10.1021/ja400069s,105,6(a),381,Pb0.98Ba0.01Na0.01Se1,Pb0.98Ba0.01Na0.01Se1,631,68333,0.00091513,0.00012306,1.6332,0.46536,0.0000146342,0.0005603294
3503,10.1021/ja400069s,105,6(a),381,Pb0.98Ba0.01Na0.01Se1,Pb0.98Ba0.01Na0.01Se1,631.5,68175,0.00091612,0.00012328,1.6314,0.46633,0.0000146681,0.0005615545
3503,10.1021/ja400069s,105,6(a),381,Pb0.98Ba0.01Na0.01Se1,Pb0.98Ba0.01Na0.01Se1,632,68017,0.00091711,0.00012349,1.6296,0.4673,0.0000147022,0.0005627823
3503,10.1021/ja400069s,105,6(a),381,Pb0.98Ba0.01Na0.01Se1,Pb0.98Ba0.01Na0.01Se1,632.5,67859,0.00091811,0.00012371,1.6277,0.46827,0.0000147364,0.0005640536
3503,10.1021/ja400069s,105,6(a),381,Pb0.98Ba0.01Na0.01Se1,Pb0.98Ba0.01Na0.01Se1,633,67702,0.0009191,0.00012392,1.6259,0.46924,0.0000147706,0.0005652869
3503,10.1021/ja400069s,105,6(a),381,Pb0.98Ba0.01Na0.01Se1,Pb0.98Ba0.01Na0.01Se1,633.5,67545,0.00092009,0.00012413,1.624,0.47021,0.0000148049,0.0005665579
3503,10.1021/ja400069s,105,6(a),381,Pb0.98Ba0.01Na0.01Se1,Pb0.98Ba0.01Na0.01Se1,634,67388,0.00092108,0.00012435,1.6222,0.47119,0.0000148394,0.0005677968
3503,10.1021/ja400069s,105,6(a),381,Pb0.98Ba0.01Na0.01Se1,Pb0.98Ba0.01Na0.01Se1,634.5,67232,0.00092207,0.00012456,1.6204,0.47216,0.0000148739,0.0005690385
3503,10.1021/ja400069s,105,6(a),381,Pb0.98Ba0.01Na0.01Se1,Pb0.98Ba0.01Na0.01Se1,635,67076,0.00092307,0.00012478,1.6186,0.47313,0.0000149085,0.0005702891
3503,10.1021/ja400069s,105,6(a),381,Pb0.98Ba0.01Na0.01Se1,Pb0.98Ba0.01Na0.01Se1,635.5,66920,0.00092406,0.00012499,1.6167,0.4741,0.0000149432,0.0005715717
3503,10.1021/ja400069s,105,6(a),381,Pb0.98Ba0.01Na0.01Se1,Pb0.98Ba0.01Na0.01Se1,636,66764,0.00092505,0.00012521,1.6149,0.47507,0.0000149781,0.0005728218
3503,10.1021/ja400069s,105,6(a),381,Pb0.98Ba0.01Na0.01Se1,Pb0.98Ba0.01Na0.01Se1,636.5,66609,0.00092604,0.00012542,1.6131,0.47604,0.000015013,0.0005740748
3503,10.1021/ja400069s,105,6(a),381,Pb0.98Ba0.01Na0.01Se1,Pb0.98Ba0.01Na0.01Se1,637,66454,0.00092703,0.00012564,1.6113,0.47701,0.000015048,0.0005753305
3503,10.1021/ja400069s,105,6(a),381,Pb0.98Ba0.01Na0.01Se1,Pb0.98Ba0.01Na0.01Se1,637.5,66300,0.00092802,0.00012585,1.6095,0.47798,0.000015083,0.000576589
3503,10.1021/ja400069s,105,6(a),381,Pb0.98Ba0.01Na0.01Se1,Pb0.98Ba0.01Na0.01Se1,638,66145,0.00092902,0.00012607,1.6077,0.47896,0.0000151183,0.0005778566
3503,10.1021/ja400069s,105,6(a),381,Pb0.98Ba0.01Na0.01Se1,Pb0.98Ba0.01Na0.01Se1,638.5,65991,0.00093001,0.00012628,1.6059,0.47993,0.0000151536,0.0005791207
3503,10.1021/ja400069s,105,6(a),381,Pb0.98Ba0.01Na0.01Se1,Pb0.98Ba0.01Na0.01Se1,639,65837,0.000931,0.0001265,1.6041,0.4809,0.000015189,0.0005803878
3503,10.1021/ja400069s,105,6(a),381,Pb0.98Ba0.01Na0.01Se1,Pb0.98Ba0.01Na0.01Se1,639.5,65684,0.00093199,0.00012672,1.6023,0.48187,0.0000152244,0.0005816576
3503,10.1021/ja400069s,105,6(a),381,Pb0.98Ba0.01Na0.01Se1,Pb0.98Ba0.01Na0.01Se1,640,65531,0.00093298,0.00012693,1.6005,0.48284,0.00001526,0.0005829303
3503,10.1021/ja400069s,105,6(a),381,Pb0.98Ba0.01Na0.01Se1,Pb0.98Ba0.01Na0.01Se1,640.5,65378,0.00093398,0.00012715,1.5987,0.48381,0.0000152957,0.0005842122
3503,10.1021/ja400069s,105,6(a),381,Pb0.98Ba0.01Na0.01Se1,Pb0.98Ba0.01Na0.01Se1,641,65225,0.00093497,0.00012736,1.5969,0.48478,0.0000153315,0.0005854906
3503,10.1021/ja400069s,105,6(a),381,Pb0.98Ba0.01Na0.01Se1,Pb0.98Ba0.01Na0.01Se1,641.5,65073,0.00093596,0.00012758,1.5951,0.48575,0.0000153674,0.000586772
3503,10.1021/ja400069s,105,6(a),381,Pb0.98Ba0.01Na0.01Se1,Pb0.98Ba0.01Na0.01Se1,642,64921,0.00093695,0.0001278,1.5933,0.48673,0.0000154033,0.0005880562
3503,10.1021/ja400069s,105,6(a),381,Pb0.98Ba0.01Na0.01Se1,Pb0.98Ba0.01Na0.01Se1,642.5,64770,0.00093794,0.00012801,1.5915,0.4877,0.0000154392,0.0005893434
3503,10.1021/ja400069s,105,6(a),381,Pb0.98Ba0.01Na0.01Se1,Pb0.98Ba0.01Na0.01Se1,643,64618,0.00093894,0.00012823,1.5898,0.48867,0.0000154756,0.0005906026
3503,10.1021/ja400069s,105,6(a),381,Pb0.98Ba0.01Na0.01Se1,Pb0.98Ba0.01Na0.01Se1,643.5,64467,0.00093993,0.00012845,1.588,0.48964,0.0000155118,0.0005918955
3503,10.1021/ja400069s,105,6(a),381,Pb0.98Ba0.01Na0.01Se1,Pb0.98Ba0.01Na0.01Se1,644,64316,0.00094092,0.00012866,1.5862,0.49061,0.0000155482,0.0005931913
3503,10.1021/ja400069s,105,6(a),381,Pb0.98Ba0.01Na0.01Se1,Pb0.98Ba0.01Na0.01Se1,644.5,64166,0.00094191,0.00012888,1.5844,0.49158,0.0000155846,0.00059449
3503,10.1021/ja400069s,105,6(a),381,Pb0.98Ba0.01Na0.01Se1,Pb0.98Ba0.01Na0.01Se1,645,64016,0.0009429,0.0001291,1.5827,0.49255,0.0000156211,0.0005957541
3503,10.1021/ja400069s,105,6(a),381,Pb0.98Ba0.01Na0.01Se1,Pb0.98Ba0.01Na0.01Se1,645.5,63866,0.00094389,0.00012932,1.5809,0.49352,0.0000156578,0.0005970586
3503,10.1021/ja400069s,105,6(a),381,Pb0.98Ba0.01Na0.01Se1,Pb0.98Ba0.01Na0.01Se1,646,63716,0.00094489,0.00012953,1.5792,0.4945,0.0000156946,0.0005983346
3503,10.1021/ja400069s,105,6(a),381,Pb0.98Ba0.01Na0.01Se1,Pb0.98Ba0.01Na0.01Se1,646.5,63567,0.00094588,0.00012975,1.5774,0.49547,0.0000157314,0.000599645
3503,10.1021/ja400069s,105,6(a),381,Pb0.98Ba0.01Na0.01Se1,Pb0.98Ba0.01Na0.01Se1,647,63418,0.00094687,0.00012997,1.5756,0.49644,0.0000157684,0.0006009584
3503,10.1021/ja400069s,105,6(a),381,Pb0.98Ba0.01Na0.01Se1,Pb0.98Ba0.01Na0.01Se1,647.5,63269,0.00094786,0.00013019,1.5739,0.49741,0.0000158055,0.0006022365
3503,10.1021/ja400069s,105,6(a),381,Pb0.98Ba0.01Na0.01Se1,Pb0.98Ba0.01Na0.01Se1,648,63120,0.00094885,0.00013041,1.5721,0.49838,0.0000158428,0.0006035558
3503,10.1021/ja400069s,105,6(a),381,Pb0.98Ba0.01Na0.01Se1,Pb0.98Ba0.01Na0.01Se1,648.5,62972,0.00094985,0.00013062,1.5704,0.49935,0.0000158801,0.0006048459
3503,10.1021/ja400069s,105,6(a),381,Pb0.98Ba0.01Na0.01Se1,Pb0.98Ba0.01Na0.01Se1,649,62824,0.00095084,0.00013084,1.5687,0.50032,0.0000159175,0.0006061325
3503,10.1021/ja400069s,105,6(a),381,Pb0.98Ba0.01Na0.01Se1,Pb0.98Ba0.01Na0.01Se1,649.5,62676,0.00095183,0.00013106,1.5669,0.50129,0.0000159551,0.0006074606
3503,10.1021/ja400069s,105,6(a),381,Pb0.98Ba0.01Na0.01Se1,Pb0.98Ba0.01Na0.01Se1,650,62529,0.00095282,0.00013128,1.5652,0.50227,0.0000159926,0.0006087529
3503,10.1021/ja400069s,105,6(a),381,Pb0.98Ba0.01Na0.01Se1,Pb0.98Ba0.01Na0.01Se1,650.5,62382,0.00095381,0.0001315,1.5635,0.50324,0.0000160303,0.000610048
3503,10.1021/ja400069s,105,6(a),381,Pb0.98Ba0.01Na0.01Se1,Pb0.98Ba0.01Na0.01Se1,651,62235,0.0009548,0.00013172,1.5617,0.50421,0.0000160681,0.000611385
3503,10.1021/ja400069s,105,6(a),381,Pb0.98Ba0.01Na0.01Se1,Pb0.98Ba0.01Na0.01Se1,651.5,62089,0.0009558,0.00013194,1.56,0.50518,0.0000161059,0.0006126923
3503,10.1021/ja400069s,105,6(a),381,Pb0.98Ba0.01Na0.01Se1,Pb0.98Ba0.01Na0.01Se1,652,61942,0.00095679,0.00013216,1.5583,0.50615,0.0000161441,0.000613996
3503,10.1021/ja400069s,105,6(a),381,Pb0.98Ba0.01Na0.01Se1,Pb0.98Ba0.01Na0.01Se1,652.5,61797,0.00095778,0.00013238,1.5566,0.50712,0.000016182,0.0006153026
3503,10.1021/ja400069s,105,6(a),381,Pb0.98Ba0.01Na0.01Se1,Pb0.98Ba0.01Na0.01Se1,653,61651,0.00095877,0.0001326,1.5548,0.50809,0.0000162203,0.0006166517
3503,10.1021/ja400069s,105,6(a),381,Pb0.98Ba0.01Na0.01Se1,Pb0.98Ba0.01Na0.01Se1,653.5,61505,0.00095976,0.00013281,1.5531,0.50906,0.0000162588,0.0006179641
3503,10.1021/ja400069s,105,6(a),381,Pb0.98Ba0.01Na0.01Se1,Pb0.98Ba0.01Na0.01Se1,654,61360,0.00096076,0.00013303,1.5514,0.51004,0.0000162973,0.0006192858
3503,10.1021/ja400069s,105,6(a),381,Pb0.98Ba0.01Na0.01Se1,Pb0.98Ba0.01Na0.01Se1,654.5,61216,0.00096175,0.00013325,1.5497,0.51101,0.0000163356,0.000620604
3503,10.1021/ja400069s,105,6(a),381,Pb0.98Ba0.01Na0.01Se1,Pb0.98Ba0.01Na0.01Se1,655,61071,0.00096274,0.00013347,1.548,0.51198,0.0000163744,0.0006219251
3503,10.1021/ja400069s,105,6(a),381,Pb0.98Ba0.01Na0.01Se1,Pb0.98Ba0.01Na0.01Se1,655.5,60927,0.00096373,0.00013369,1.5463,0.51295,0.0000164131,0.000623249
3503,10.1021/ja400069s,105,6(a),381,Pb0.98Ba0.01Na0.01Se1,Pb0.98Ba0.01Na0.01Se1,656,60783,0.00096472,0.00013392,1.5446,0.51392,0.000016452,0.0006245759
3503,10.1021/ja400069s,105,6(a),381,Pb0.98Ba0.01Na0.01Se1,Pb0.98Ba0.01Na0.01Se1,656.5,60639,0.00096572,0.00013414,1.5429,0.51489,0.000016491,0.0006259122
3503,10.1021/ja400069s,105,6(a),381,Pb0.98Ba0.01Na0.01Se1,Pb0.98Ba0.01Na0.01Se1,657,60496,0.00096671,0.00013436,1.5412,0.51586,0.00001653,0.000627245
3503,10.1021/ja400069s,105,6(a),381,Pb0.98Ba0.01Na0.01Se1,Pb0.98Ba0.01Na0.01Se1,657.5,60352,0.0009677,0.00013458,1.5395,0.51683,0.0000165695,0.0006285807
3503,10.1021/ja400069s,105,6(a),381,Pb0.98Ba0.01Na0.01Se1,Pb0.98Ba0.01Na0.01Se1,658,60209,0.00096869,0.0001348,1.5378,0.51781,0.0000166088,0.0006299194
3503,10.1021/ja400069s,105,6(a),381,Pb0.98Ba0.01Na0.01Se1,Pb0.98Ba0.01Na0.01Se1,658.5,60067,0.00096968,0.00013502,1.5362,0.51878,0.0000166481,0.0006312199
3503,10.1021/ja400069s,105,6(a),381,Pb0.98Ba0.01Na0.01Se1,Pb0.98Ba0.01Na0.01Se1,659,59925,0.00097067,0.00013524,1.5345,0.51975,0.0000166875,0.0006325644
3503,10.1021/ja400069s,105,6(a),381,Pb0.98Ba0.01Na0.01Se1,Pb0.98Ba0.01Na0.01Se1,659.5,59782,0.00097167,0.00013546,1.5328,0.52072,0.0000167274,0.0006339183
3503,10.1021/ja400069s,105,6(a),381,Pb0.98Ba0.01Na0.01Se1,Pb0.98Ba0.01Na0.01Se1,660,59641,0.00097266,0.00013568,1.5311,0.52169,0.000016767,0.0006352688
3503,10.1021/ja400069s,105,6(a),381,Pb0.98Ba0.01Na0.01Se1,Pb0.98Ba0.01Na0.01Se1,660.5,59499,0.00097365,0.0001359,1.5295,0.52266,0.000016807,0.0006365806
3503,10.1021/ja400069s,105,6(a),381,Pb0.98Ba0.01Na0.01Se1,Pb0.98Ba0.01Na0.01Se1,661,59358,0.00097464,0.00013613,1.5278,0.52363,0.0000168469,0.0006379369
3503,10.1021/ja400069s,105,6(a),381,Pb0.98Ba0.01Na0.01Se1,Pb0.98Ba0.01Na0.01Se1,661.5,59217,0.00097563,0.00013635,1.5261,0.5246,0.000016887,0.0006392962
3503,10.1021/ja400069s,105,6(a),381,Pb0.98Ba0.01Na0.01Se1,Pb0.98Ba0.01Na0.01Se1,662,59076,0.00097663,0.00013657,1.5245,0.52558,0.0000169273,0.0006406232
3503,10.1021/ja400069s,105,6(a),381,Pb0.98Ba0.01Na0.01Se1,Pb0.98Ba0.01Na0.01Se1,662.5,58936,0.00097762,0.00013679,1.5228,0.52655,0.0000169676,0.0006419884
3503,10.1021/ja400069s,105,6(a),381,Pb0.98Ba0.01Na0.01Se1,Pb0.98Ba0.01Na0.01Se1,663,58796,0.00097861,0.00013701,1.5212,0.52752,0.000017008,0.0006433145
3503,10.1021/ja400069s,105,6(a),381,Pb0.98Ba0.01Na0.01Se1,Pb0.98Ba0.01Na0.01Se1,663.5,58656,0.0009796,0.00013724,1.5195,0.52849,0.0000170486,0.0006446858
3503,10.1021/ja400069s,105,6(a),381,Pb0.98Ba0.01Na0.01Se1,Pb0.98Ba0.01Na0.01Se1,664,58516,0.00098059,0.00013746,1.5178,0.52946,0.0000170893,0.0006460601
3503,10.1021/ja400069s,105,6(a),381,Pb0.98Ba0.01Na0.01Se1,Pb0.98Ba0.01Na0.01Se1,664.5,58377,0.00098158,0.00013768,1.5162,0.53043,0.00001713,0.0006473948
3503,10.1021/ja400069s,105,6(a),381,Pb0.98Ba0.01Na0.01Se1,Pb0.98Ba0.01Na0.01Se1,665,58238,0.00098258,0.0001379,1.5146,0.5314,0.0000171709,0.0006487389
3503,10.1021/ja400069s,105,6(a),381,Pb0.98Ba0.01Na0.01Se1,Pb0.98Ba0.01Na0.01Se1,665.5,58099,0.00098357,0.00013813,1.5129,0.53237,0.000017212,0.0006501223
3503,10.1021/ja400069s,105,6(a),381,Pb0.98Ba0.01Na0.01Se1,Pb0.98Ba0.01Na0.01Se1,666,57961,0.00098456,0.00013835,1.5113,0.53335,0.000017253,0.0006514656
3503,10.1021/ja400069s,105,6(a),381,Pb0.98Ba0.01Na0.01Se1,Pb0.98Ba0.01Na0.01Se1,666.5,57822,0.00098555,0.00013857,1.5096,0.53432,0.0000172945,0.0006528551
3503,10.1021/ja400069s,105,6(a),381,Pb0.98Ba0.01Na0.01Se1,Pb0.98Ba0.01Na0.01Se1,667,57684,0.00098654,0.00013879,1.508,0.53529,0.0000173358,0.0006542042
3503,10.1021/ja400069s,105,6(a),381,Pb0.98Ba0.01Na0.01Se1,Pb0.98Ba0.01Na0.01Se1,667.5,57547,0.00098754,0.00013902,1.5064,0.53626,0.0000173771,0.0006555629
3503,10.1021/ja400069s,105,6(a),381,Pb0.98Ba0.01Na0.01Se1,Pb0.98Ba0.01Na0.01Se1,668,57409,0.00098853,0.00013924,1.5048,0.53723,0.0000174189,0.0006569179
3503,10.1021/ja400069s,105,6(a),381,Pb0.98Ba0.01Na0.01Se1,Pb0.98Ba0.01Na0.01Se1,668.5,57272,0.00098952,0.00013946,1.5031,0.5382,0.0000174605,0.0006583195
3503,10.1021/ja400069s,105,6(a),381,Pb0.98Ba0.01Na0.01Se1,Pb0.98Ba0.01Na0.01Se1,669,57135,0.00099051,0.00013969,1.5015,0.53917,0.0000175024,0.0006596803