sid,DOI,figureid,fignum,sampleid,samplename,composition,Temperature,Electrical conductivity,Power factor,Seebeck coefficient,Thermal conductivity,ZT,Electrical resistivity,Figure of merit Z
3503,10.1021/ja400069s,105,6(a),286,Pb0.98Sr0.01Na0.01Se1,Pb0.98Sr0.01Na0.01Se1,618,86226,0.00092716,0.00011259,1.8084,0.43932,0.0000115974,0.0005126963
3503,10.1021/ja400069s,105,6(a),286,Pb0.98Sr0.01Na0.01Se1,Pb0.98Sr0.01Na0.01Se1,618.5,86030,0.00092818,0.00011279,1.8063,0.44029,0.0000116239,0.0005138571
3503,10.1021/ja400069s,105,6(a),286,Pb0.98Sr0.01Na0.01Se1,Pb0.98Sr0.01Na0.01Se1,619,85834,0.00092919,0.00011299,1.8042,0.44127,0.0000116504,0.000515015
3503,10.1021/ja400069s,105,6(a),286,Pb0.98Sr0.01Na0.01Se1,Pb0.98Sr0.01Na0.01Se1,619.5,85638,0.00093021,0.00011319,1.8021,0.44224,0.0000116771,0.0005161811
3503,10.1021/ja400069s,105,6(a),286,Pb0.98Sr0.01Na0.01Se1,Pb0.98Sr0.01Na0.01Se1,620,85443,0.00093123,0.0001134,1.8,0.44322,0.0000117037,0.00051735
3503,10.1021/ja400069s,105,6(a),286,Pb0.98Sr0.01Na0.01Se1,Pb0.98Sr0.01Na0.01Se1,620.5,85248,0.00093224,0.0001136,1.7979,0.44419,0.0000117305,0.000518516
3503,10.1021/ja400069s,105,6(a),286,Pb0.98Sr0.01Na0.01Se1,Pb0.98Sr0.01Na0.01Se1,621,85054,0.00093326,0.0001138,1.7958,0.44517,0.0000117572,0.0005196904
3503,10.1021/ja400069s,105,6(a),286,Pb0.98Sr0.01Na0.01Se1,Pb0.98Sr0.01Na0.01Se1,621.5,84860,0.00093427,0.00011401,1.7938,0.44614,0.0000117841,0.0005208329
3503,10.1021/ja400069s,105,6(a),286,Pb0.98Sr0.01Na0.01Se1,Pb0.98Sr0.01Na0.01Se1,622,84666,0.00093529,0.00011421,1.7917,0.44712,0.0000118111,0.0005220126
3503,10.1021/ja400069s,105,6(a),286,Pb0.98Sr0.01Na0.01Se1,Pb0.98Sr0.01Na0.01Se1,622.5,84472,0.0009363,0.00011441,1.7896,0.44809,0.0000118382,0.0005231895
3503,10.1021/ja400069s,105,6(a),286,Pb0.98Sr0.01Na0.01Se1,Pb0.98Sr0.01Na0.01Se1,623,84279,0.00093732,0.00011462,1.7876,0.44907,0.0000118654,0.0005243455
3503,10.1021/ja400069s,105,6(a),286,Pb0.98Sr0.01Na0.01Se1,Pb0.98Sr0.01Na0.01Se1,623.5,84087,0.00093833,0.00011482,1.7855,0.45004,0.0000118924,0.0005255279
3503,10.1021/ja400069s,105,6(a),286,Pb0.98Sr0.01Na0.01Se1,Pb0.98Sr0.01Na0.01Se1,624,83894,0.00093935,0.00011502,1.7834,0.45102,0.0000119198,0.0005267186
3503,10.1021/ja400069s,105,6(a),286,Pb0.98Sr0.01Na0.01Se1,Pb0.98Sr0.01Na0.01Se1,624.5,83702,0.00094036,0.00011523,1.7814,0.45199,0.0000119471,0.000527877
3503,10.1021/ja400069s,105,6(a),286,Pb0.98Sr0.01Na0.01Se1,Pb0.98Sr0.01Na0.01Se1,625,83511,0.00094138,0.00011543,1.7793,0.45297,0.0000119745,0.0005290732
3503,10.1021/ja400069s,105,6(a),286,Pb0.98Sr0.01Na0.01Se1,Pb0.98Sr0.01Na0.01Se1,625.5,83319,0.00094239,0.00011564,1.7773,0.45394,0.0000120021,0.0005302369
3503,10.1021/ja400069s,105,6(a),286,Pb0.98Sr0.01Na0.01Se1,Pb0.98Sr0.01Na0.01Se1,626,83128,0.00094341,0.00011584,1.7752,0.45492,0.0000120296,0.0005314387
3503,10.1021/ja400069s,105,6(a),286,Pb0.98Sr0.01Na0.01Se1,Pb0.98Sr0.01Na0.01Se1,626.5,82938,0.00094442,0.00011605,1.7732,0.45589,0.0000120572,0.0005326077
3503,10.1021/ja400069s,105,6(a),286,Pb0.98Sr0.01Na0.01Se1,Pb0.98Sr0.01Na0.01Se1,627,82748,0.00094544,0.00011625,1.7711,0.45687,0.0000120849,0.0005338151
3503,10.1021/ja400069s,105,6(a),286,Pb0.98Sr0.01Na0.01Se1,Pb0.98Sr0.01Na0.01Se1,627.5,82558,0.00094646,0.00011645,1.7691,0.45784,0.0000121127,0.0005349952
3503,10.1021/ja400069s,105,6(a),286,Pb0.98Sr0.01Na0.01Se1,Pb0.98Sr0.01Na0.01Se1,628,82368,0.00094747,0.00011666,1.7671,0.45882,0.0000121406,0.0005361723
3503,10.1021/ja400069s,105,6(a),286,Pb0.98Sr0.01Na0.01Se1,Pb0.98Sr0.01Na0.01Se1,628.5,82179,0.00094849,0.00011686,1.765,0.45979,0.0000121686,0.0005373881
3503,10.1021/ja400069s,105,6(a),286,Pb0.98Sr0.01Na0.01Se1,Pb0.98Sr0.01Na0.01Se1,629,81990,0.0009495,0.00011707,1.763,0.46077,0.0000121966,0.0005385706
3503,10.1021/ja400069s,105,6(a),286,Pb0.98Sr0.01Na0.01Se1,Pb0.98Sr0.01Na0.01Se1,629.5,81802,0.00095052,0.00011727,1.761,0.46174,0.0000122246,0.0005397615
3503,10.1021/ja400069s,105,6(a),286,Pb0.98Sr0.01Na0.01Se1,Pb0.98Sr0.01Na0.01Se1,630,81614,0.00095153,0.00011748,1.759,0.46271,0.0000122528,0.0005409494
3503,10.1021/ja400069s,105,6(a),286,Pb0.98Sr0.01Na0.01Se1,Pb0.98Sr0.01Na0.01Se1,630.5,81426,0.00095255,0.00011769,1.7569,0.46369,0.0000122811,0.0005421766
3503,10.1021/ja400069s,105,6(a),286,Pb0.98Sr0.01Na0.01Se1,Pb0.98Sr0.01Na0.01Se1,631,81238,0.00095356,0.00011789,1.7549,0.46466,0.0000123095,0.00054337
3503,10.1021/ja400069s,105,6(a),286,Pb0.98Sr0.01Na0.01Se1,Pb0.98Sr0.01Na0.01Se1,631.5,81051,0.00095458,0.0001181,1.7529,0.46564,0.0000123379,0.0005445719
3503,10.1021/ja400069s,105,6(a),286,Pb0.98Sr0.01Na0.01Se1,Pb0.98Sr0.01Na0.01Se1,632,80864,0.00095559,0.0001183,1.7509,0.46661,0.0000123664,0.0005457707
3503,10.1021/ja400069s,105,6(a),286,Pb0.98Sr0.01Na0.01Se1,Pb0.98Sr0.01Na0.01Se1,632.5,80678,0.00095661,0.00011851,1.7489,0.46759,0.000012395,0.0005469781
3503,10.1021/ja400069s,105,6(a),286,Pb0.98Sr0.01Na0.01Se1,Pb0.98Sr0.01Na0.01Se1,633,80492,0.00095762,0.00011872,1.7469,0.46856,0.0000124236,0.0005481825
3503,10.1021/ja400069s,105,6(a),286,Pb0.98Sr0.01Na0.01Se1,Pb0.98Sr0.01Na0.01Se1,633.5,80306,0.00095864,0.00011892,1.7449,0.46954,0.0000124524,0.0005493954
3503,10.1021/ja400069s,105,6(a),286,Pb0.98Sr0.01Na0.01Se1,Pb0.98Sr0.01Na0.01Se1,634,80121,0.00095965,0.00011913,1.7429,0.47051,0.0000124811,0.0005506053
3503,10.1021/ja400069s,105,6(a),286,Pb0.98Sr0.01Na0.01Se1,Pb0.98Sr0.01Na0.01Se1,634.5,79936,0.00096067,0.00011933,1.7409,0.47149,0.00001251,0.0005518238
3503,10.1021/ja400069s,105,6(a),286,Pb0.98Sr0.01Na0.01Se1,Pb0.98Sr0.01Na0.01Se1,635,79751,0.00096168,0.00011954,1.7389,0.47246,0.000012539,0.0005530393
3503,10.1021/ja400069s,105,6(a),286,Pb0.98Sr0.01Na0.01Se1,Pb0.98Sr0.01Na0.01Se1,635.5,79567,0.0009627,0.00011975,1.7369,0.47344,0.000012568,0.0005542633
3503,10.1021/ja400069s,105,6(a),286,Pb0.98Sr0.01Na0.01Se1,Pb0.98Sr0.01Na0.01Se1,636,79383,0.00096372,0.00011995,1.7349,0.47441,0.0000125972,0.0005554902
3503,10.1021/ja400069s,105,6(a),286,Pb0.98Sr0.01Na0.01Se1,Pb0.98Sr0.01Na0.01Se1,636.5,79200,0.00096473,0.00012016,1.7329,0.47539,0.0000126263,0.0005567142
3503,10.1021/ja400069s,105,6(a),286,Pb0.98Sr0.01Na0.01Se1,Pb0.98Sr0.01Na0.01Se1,637,79016,0.00096575,0.00012037,1.7309,0.47636,0.0000126557,0.0005579467
3503,10.1021/ja400069s,105,6(a),286,Pb0.98Sr0.01Na0.01Se1,Pb0.98Sr0.01Na0.01Se1,637.5,78833,0.00096676,0.00012058,1.729,0.47734,0.000012685,0.000559144
3503,10.1021/ja400069s,105,6(a),286,Pb0.98Sr0.01Na0.01Se1,Pb0.98Sr0.01Na0.01Se1,638,78651,0.00096778,0.00012078,1.727,0.47831,0.0000127144,0.0005603822
3503,10.1021/ja400069s,105,6(a),286,Pb0.98Sr0.01Na0.01Se1,Pb0.98Sr0.01Na0.01Se1,638.5,78469,0.00096879,0.00012099,1.725,0.47929,0.0000127439,0.0005616174
3503,10.1021/ja400069s,105,6(a),286,Pb0.98Sr0.01Na0.01Se1,Pb0.98Sr0.01Na0.01Se1,639,78287,0.00096981,0.0001212,1.723,0.48026,0.0000127735,0.0005628613
3503,10.1021/ja400069s,105,6(a),286,Pb0.98Sr0.01Na0.01Se1,Pb0.98Sr0.01Na0.01Se1,639.5,78105,0.00097082,0.00012141,1.7211,0.48124,0.0000128033,0.0005640695
3503,10.1021/ja400069s,105,6(a),286,Pb0.98Sr0.01Na0.01Se1,Pb0.98Sr0.01Na0.01Se1,640,77924,0.00097184,0.00012161,1.7191,0.48221,0.000012833,0.0005653191
3503,10.1021/ja400069s,105,6(a),286,Pb0.98Sr0.01Na0.01Se1,Pb0.98Sr0.01Na0.01Se1,640.5,77744,0.00097285,0.00012182,1.7172,0.48319,0.0000128627,0.0005665327
3503,10.1021/ja400069s,105,6(a),286,Pb0.98Sr0.01Na0.01Se1,Pb0.98Sr0.01Na0.01Se1,641,77563,0.00097387,0.00012203,1.7152,0.48416,0.0000128927,0.000567788
3503,10.1021/ja400069s,105,6(a),286,Pb0.98Sr0.01Na0.01Se1,Pb0.98Sr0.01Na0.01Se1,641.5,77383,0.00097488,0.00012224,1.7132,0.48514,0.0000129227,0.0005690404
3503,10.1021/ja400069s,105,6(a),286,Pb0.98Sr0.01Na0.01Se1,Pb0.98Sr0.01Na0.01Se1,642,77203,0.0009759,0.00012245,1.7113,0.48611,0.0000129529,0.0005702682
3503,10.1021/ja400069s,105,6(a),286,Pb0.98Sr0.01Na0.01Se1,Pb0.98Sr0.01Na0.01Se1,642.5,77024,0.00097691,0.00012266,1.7093,0.48709,0.000012983,0.0005715264
3503,10.1021/ja400069s,105,6(a),286,Pb0.98Sr0.01Na0.01Se1,Pb0.98Sr0.01Na0.01Se1,643,76845,0.00097793,0.00012286,1.7074,0.48806,0.0000130132,0.0005727598
3503,10.1021/ja400069s,105,6(a),286,Pb0.98Sr0.01Na0.01Se1,Pb0.98Sr0.01Na0.01Se1,643.5,76666,0.00097894,0.00012307,1.7054,0.48904,0.0000130436,0.0005740237
3503,10.1021/ja400069s,105,6(a),286,Pb0.98Sr0.01Na0.01Se1,Pb0.98Sr0.01Na0.01Se1,644,76488,0.00097996,0.00012328,1.7035,0.49001,0.0000130739,0.0005752627
3503,10.1021/ja400069s,105,6(a),286,Pb0.98Sr0.01Na0.01Se1,Pb0.98Sr0.01Na0.01Se1,644.5,76310,0.00098098,0.00012349,1.7016,0.49098,0.0000131044,0.0005765045
3503,10.1021/ja400069s,105,6(a),286,Pb0.98Sr0.01Na0.01Se1,Pb0.98Sr0.01Na0.01Se1,645,76132,0.00098199,0.0001237,1.6996,0.49196,0.0000131351,0.0005777771
3503,10.1021/ja400069s,105,6(a),286,Pb0.98Sr0.01Na0.01Se1,Pb0.98Sr0.01Na0.01Se1,645.5,75955,0.00098301,0.00012391,1.6977,0.49293,0.0000131657,0.0005790246
3503,10.1021/ja400069s,105,6(a),286,Pb0.98Sr0.01Na0.01Se1,Pb0.98Sr0.01Na0.01Se1,646,75778,0.00098402,0.00012412,1.6958,0.49391,0.0000131964,0.0005802689
3503,10.1021/ja400069s,105,6(a),286,Pb0.98Sr0.01Na0.01Se1,Pb0.98Sr0.01Na0.01Se1,646.5,75602,0.00098504,0.00012433,1.6939,0.49488,0.0000132272,0.0005815219
3503,10.1021/ja400069s,105,6(a),286,Pb0.98Sr0.01Na0.01Se1,Pb0.98Sr0.01Na0.01Se1,647,75425,0.00098605,0.00012454,1.6919,0.49586,0.0000132582,0.0005828063
3503,10.1021/ja400069s,105,6(a),286,Pb0.98Sr0.01Na0.01Se1,Pb0.98Sr0.01Na0.01Se1,647.5,75249,0.00098707,0.00012475,1.69,0.49683,0.0000132892,0.0005840651
3503,10.1021/ja400069s,105,6(a),286,Pb0.98Sr0.01Na0.01Se1,Pb0.98Sr0.01Na0.01Se1,648,75074,0.00098808,0.00012496,1.6881,0.49781,0.0000133202,0.0005853208
3503,10.1021/ja400069s,105,6(a),286,Pb0.98Sr0.01Na0.01Se1,Pb0.98Sr0.01Na0.01Se1,648.5,74899,0.0009891,0.00012517,1.6862,0.49878,0.0000133513,0.0005865852
3503,10.1021/ja400069s,105,6(a),286,Pb0.98Sr0.01Na0.01Se1,Pb0.98Sr0.01Na0.01Se1,649,74724,0.00099011,0.00012538,1.6843,0.49976,0.0000133826,0.0005878466
3503,10.1021/ja400069s,105,6(a),286,Pb0.98Sr0.01Na0.01Se1,Pb0.98Sr0.01Na0.01Se1,649.5,74549,0.00099113,0.00012559,1.6824,0.50073,0.000013414,0.0005891167
3503,10.1021/ja400069s,105,6(a),286,Pb0.98Sr0.01Na0.01Se1,Pb0.98Sr0.01Na0.01Se1,650,74375,0.00099214,0.0001258,1.6805,0.50171,0.0000134454,0.0005903838
3503,10.1021/ja400069s,105,6(a),286,Pb0.98Sr0.01Na0.01Se1,Pb0.98Sr0.01Na0.01Se1,650.5,74202,0.00099316,0.00012601,1.6786,0.50268,0.0000134767,0.0005916597
3503,10.1021/ja400069s,105,6(a),286,Pb0.98Sr0.01Na0.01Se1,Pb0.98Sr0.01Na0.01Se1,651,74028,0.00099417,0.00012622,1.6767,0.50366,0.0000135084,0.0005929325
3503,10.1021/ja400069s,105,6(a),286,Pb0.98Sr0.01Na0.01Se1,Pb0.98Sr0.01Na0.01Se1,651.5,73855,0.00099519,0.00012643,1.6748,0.50463,0.00001354,0.0005942142
3503,10.1021/ja400069s,105,6(a),286,Pb0.98Sr0.01Na0.01Se1,Pb0.98Sr0.01Na0.01Se1,652,73682,0.00099621,0.00012664,1.6729,0.50561,0.0000135718,0.0005954988
3503,10.1021/ja400069s,105,6(a),286,Pb0.98Sr0.01Na0.01Se1,Pb0.98Sr0.01Na0.01Se1,652.5,73510,0.00099722,0.00012685,1.671,0.50658,0.0000136036,0.0005967804
3503,10.1021/ja400069s,105,6(a),286,Pb0.98Sr0.01Na0.01Se1,Pb0.98Sr0.01Na0.01Se1,653,73338,0.00099824,0.00012706,1.6691,0.50756,0.0000136355,0.0005980708
3503,10.1021/ja400069s,105,6(a),286,Pb0.98Sr0.01Na0.01Se1,Pb0.98Sr0.01Na0.01Se1,653.5,73166,0.00099925,0.00012727,1.6672,0.50853,0.0000136676,0.0005993582
3503,10.1021/ja400069s,105,6(a),286,Pb0.98Sr0.01Na0.01Se1,Pb0.98Sr0.01Na0.01Se1,654,72995,0.0010003,0.00012748,1.6653,0.50951,0.0000136996,0.0006006726
3503,10.1021/ja400069s,105,6(a),286,Pb0.98Sr0.01Na0.01Se1,Pb0.98Sr0.01Na0.01Se1,654.5,72824,0.0010013,0.00012769,1.6635,0.51048,0.0000137317,0.0006019237
3503,10.1021/ja400069s,105,6(a),286,Pb0.98Sr0.01Na0.01Se1,Pb0.98Sr0.01Na0.01Se1,655,72654,0.0010023,0.0001279,1.6616,0.51146,0.0000137639,0.0006032138
3503,10.1021/ja400069s,105,6(a),286,Pb0.98Sr0.01Na0.01Se1,Pb0.98Sr0.01Na0.01Se1,655.5,72483,0.0010033,0.00012812,1.6597,0.51243,0.0000137963,0.0006045068
3503,10.1021/ja400069s,105,6(a),286,Pb0.98Sr0.01Na0.01Se1,Pb0.98Sr0.01Na0.01Se1,656,72313,0.0010043,0.00012833,1.6578,0.51341,0.0000138288,0.0006058029
3503,10.1021/ja400069s,105,6(a),286,Pb0.98Sr0.01Na0.01Se1,Pb0.98Sr0.01Na0.01Se1,656.5,72144,0.0010053,0.00012854,1.656,0.51438,0.0000138612,0.0006070652
3503,10.1021/ja400069s,105,6(a),286,Pb0.98Sr0.01Na0.01Se1,Pb0.98Sr0.01Na0.01Se1,657,71975,0.0010064,0.00012875,1.6541,0.51536,0.0000138937,0.0006084275
3503,10.1021/ja400069s,105,6(a),286,Pb0.98Sr0.01Na0.01Se1,Pb0.98Sr0.01Na0.01Se1,657.5,71806,0.0010074,0.00012896,1.6523,0.51633,0.0000139264,0.0006096956
3503,10.1021/ja400069s,105,6(a),286,Pb0.98Sr0.01Na0.01Se1,Pb0.98Sr0.01Na0.01Se1,658,71637,0.0010084,0.00012917,1.6504,0.51731,0.0000139593,0.0006110034
3503,10.1021/ja400069s,105,6(a),286,Pb0.98Sr0.01Na0.01Se1,Pb0.98Sr0.01Na0.01Se1,658.5,71469,0.0010094,0.00012939,1.6485,0.51828,0.0000139921,0.0006123142
3503,10.1021/ja400069s,105,6(a),286,Pb0.98Sr0.01Na0.01Se1,Pb0.98Sr0.01Na0.01Se1,659,71302,0.0010104,0.0001296,1.6467,0.51926,0.0000140249,0.0006135908
3503,10.1021/ja400069s,105,6(a),286,Pb0.98Sr0.01Na0.01Se1,Pb0.98Sr0.01Na0.01Se1,659.5,71134,0.0010114,0.00012981,1.6449,0.52023,0.000014058,0.0006148702
3503,10.1021/ja400069s,105,6(a),286,Pb0.98Sr0.01Na0.01Se1,Pb0.98Sr0.01Na0.01Se1,660,70967,0.0010124,0.00013002,1.643,0.5212,0.0000140911,0.0006161899
3503,10.1021/ja400069s,105,6(a),286,Pb0.98Sr0.01Na0.01Se1,Pb0.98Sr0.01Na0.01Se1,660.5,70800,0.0010135,0.00013024,1.6412,0.52218,0.0000141243,0.0006175359
3503,10.1021/ja400069s,105,6(a),286,Pb0.98Sr0.01Na0.01Se1,Pb0.98Sr0.01Na0.01Se1,661,70634,0.0010145,0.00013045,1.6393,0.52315,0.0000141575,0.0006188617
3503,10.1021/ja400069s,105,6(a),286,Pb0.98Sr0.01Na0.01Se1,Pb0.98Sr0.01Na0.01Se1,661.5,70468,0.0010155,0.00013066,1.6375,0.52413,0.0000141908,0.0006201527
3503,10.1021/ja400069s,105,6(a),286,Pb0.98Sr0.01Na0.01Se1,Pb0.98Sr0.01Na0.01Se1,662,70302,0.0010165,0.00013087,1.6357,0.5251,0.0000142243,0.0006214465
3503,10.1021/ja400069s,105,6(a),286,Pb0.98Sr0.01Na0.01Se1,Pb0.98Sr0.01Na0.01Se1,662.5,70137,0.0010175,0.00013109,1.6338,0.52608,0.0000142578,0.0006227812
3503,10.1021/ja400069s,105,6(a),286,Pb0.98Sr0.01Na0.01Se1,Pb0.98Sr0.01Na0.01Se1,663,69972,0.0010185,0.0001313,1.632,0.52705,0.0000142914,0.0006240809
3503,10.1021/ja400069s,105,6(a),286,Pb0.98Sr0.01Na0.01Se1,Pb0.98Sr0.01Na0.01Se1,663.5,69808,0.0010196,0.00013151,1.6302,0.52803,0.000014325,0.0006254447
3503,10.1021/ja400069s,105,6(a),286,Pb0.98Sr0.01Na0.01Se1,Pb0.98Sr0.01Na0.01Se1,664,69643,0.0010206,0.00013173,1.6284,0.529,0.0000143589,0.0006267502
3503,10.1021/ja400069s,105,6(a),286,Pb0.98Sr0.01Na0.01Se1,Pb0.98Sr0.01Na0.01Se1,664.5,69479,0.0010216,0.00013194,1.6265,0.52998,0.0000143928,0.0006280971
3503,10.1021/ja400069s,105,6(a),286,Pb0.98Sr0.01Na0.01Se1,Pb0.98Sr0.01Na0.01Se1,665,69316,0.0010226,0.00013215,1.6247,0.53095,0.0000144267,0.0006294085
3503,10.1021/ja400069s,105,6(a),286,Pb0.98Sr0.01Na0.01Se1,Pb0.98Sr0.01Na0.01Se1,665.5,69153,0.0010236,0.00013237,1.6229,0.53193,0.0000144607,0.0006307228
3503,10.1021/ja400069s,105,6(a),286,Pb0.98Sr0.01Na0.01Se1,Pb0.98Sr0.01Na0.01Se1,666,68990,0.0010246,0.00013258,1.6211,0.5329,0.0000144949,0.00063204
3503,10.1021/ja400069s,105,6(a),286,Pb0.98Sr0.01Na0.01Se1,Pb0.98Sr0.01Na0.01Se1,666.5,68827,0.0010256,0.00013279,1.6193,0.53388,0.0000145292,0.0006333601
3503,10.1021/ja400069s,105,6(a),286,Pb0.98Sr0.01Na0.01Se1,Pb0.98Sr0.01Na0.01Se1,667,68665,0.0010267,0.00013301,1.6175,0.53485,0.0000145635,0.000634745
3503,10.1021/ja400069s,105,6(a),286,Pb0.98Sr0.01Na0.01Se1,Pb0.98Sr0.01Na0.01Se1,667.5,68504,0.0010277,0.00013322,1.6157,0.53583,0.0000145977,0.0006360711
3503,10.1021/ja400069s,105,6(a),286,Pb0.98Sr0.01Na0.01Se1,Pb0.98Sr0.01Na0.01Se1,668,68342,0.0010287,0.00013343,1.6139,0.5368,0.0000146323,0.0006374001
3503,10.1021/ja400069s,105,6(a),286,Pb0.98Sr0.01Na0.01Se1,Pb0.98Sr0.01Na0.01Se1,668.5,68181,0.0010297,0.00013365,1.6121,0.53778,0.0000146668,0.0006387321
3503,10.1021/ja400069s,105,6(a),286,Pb0.98Sr0.01Na0.01Se1,Pb0.98Sr0.01Na0.01Se1,669,68020,0.0010307,0.00013386,1.6103,0.53875,0.0000147016,0.0006400671
3503,10.1021/ja400069s,105,6(a),286,Pb0.98Sr0.01Na0.01Se1,Pb0.98Sr0.01Na0.01Se1,669.5,67860,0.0010317,0.00013408,1.6085,0.53973,0.0000147362,0.000641405
3503,10.1021/ja400069s,105,6(a),286,Pb0.98Sr0.01Na0.01Se1,Pb0.98Sr0.01Na0.01Se1,670,67700,0.0010328,0.00013429,1.6068,0.5407,0.000014771,0.0006427682
3503,10.1021/ja400069s,105,6(a),286,Pb0.98Sr0.01Na0.01Se1,Pb0.98Sr0.01Na0.01Se1,670.5,67541,0.0010338,0.0001345,1.605,0.54168,0.0000148058,0.0006441121
3503,10.1021/ja400069s,105,6(a),286,Pb0.98Sr0.01Na0.01Se1,Pb0.98Sr0.01Na0.01Se1,671,67381,0.0010348,0.00013472,1.6032,0.54265,0.000014841,0.0006454591
3503,10.1021/ja400069s,105,6(a),286,Pb0.98Sr0.01Na0.01Se1,Pb0.98Sr0.01Na0.01Se1,671.5,67222,0.0010358,0.00013493,1.6014,0.54363,0.0000148761,0.000646809
3503,10.1021/ja400069s,105,6(a),286,Pb0.98Sr0.01Na0.01Se1,Pb0.98Sr0.01Na0.01Se1,672,67064,0.0010368,0.00013515,1.5996,0.5446,0.0000149111,0.000648162
3503,10.1021/ja400069s,105,6(a),286,Pb0.98Sr0.01Na0.01Se1,Pb0.98Sr0.01Na0.01Se1,672.5,66906,0.0010378,0.00013536,1.5979,0.54558,0.0000149463,0.0006494774
3503,10.1021/ja400069s,105,6(a),286,Pb0.98Sr0.01Na0.01Se1,Pb0.98Sr0.01Na0.01Se1,673,66748,0.0010388,0.00013558,1.5961,0.54655,0.0000149817,0.0006508364
3503,10.1021/ja400069s,105,6(a),286,Pb0.98Sr0.01Na0.01Se1,Pb0.98Sr0.01Na0.01Se1,673.5,66590,0.0010399,0.00013579,1.5943,0.54753,0.0000150173,0.0006522612
3503,10.1021/ja400069s,105,6(a),286,Pb0.98Sr0.01Na0.01Se1,Pb0.98Sr0.01Na0.01Se1,674,66433,0.0010409,0.00013601,1.5926,0.5485,0.0000150528,0.0006535853
3503,10.1021/ja400069s,105,6(a),286,Pb0.98Sr0.01Na0.01Se1,Pb0.98Sr0.01Na0.01Se1,674.5,66277,0.0010419,0.00013622,1.5908,0.54947,0.0000150882,0.0006549535
3503,10.1021/ja400069s,105,6(a),286,Pb0.98Sr0.01Na0.01Se1,Pb0.98Sr0.01Na0.01Se1,675,66120,0.0010429,0.00013644,1.5891,0.55045,0.000015124,0.0006562834
3503,10.1021/ja400069s,105,6(a),286,Pb0.98Sr0.01Na0.01Se1,Pb0.98Sr0.01Na0.01Se1,675.5,65964,0.0010439,0.00013665,1.5873,0.55142,0.0000151598,0.0006576577
3503,10.1021/ja400069s,105,6(a),286,Pb0.98Sr0.01Na0.01Se1,Pb0.98Sr0.01Na0.01Se1,676,65808,0.0010449,0.00013687,1.5856,0.5524,0.0000151957,0.0006589934
3503,10.1021/ja400069s,105,6(a),286,Pb0.98Sr0.01Na0.01Se1,Pb0.98Sr0.01Na0.01Se1,676.5,65653,0.001046,0.00013708,1.5838,0.55337,0.0000152316,0.0006604369
3503,10.1021/ja400069s,105,6(a),286,Pb0.98Sr0.01Na0.01Se1,Pb0.98Sr0.01Na0.01Se1,677,65498,0.001047,0.0001373,1.5821,0.55435,0.0000152676,0.0006617786
3503,10.1021/ja400069s,105,6(a),286,Pb0.98Sr0.01Na0.01Se1,Pb0.98Sr0.01Na0.01Se1,677.5,65344,0.001048,0.00013752,1.5804,0.55532,0.0000153036,0.0006631233
3503,10.1021/ja400069s,105,6(a),286,Pb0.98Sr0.01Na0.01Se1,Pb0.98Sr0.01Na0.01Se1,678,65189,0.001049,0.00013773,1.5786,0.5563,0.00001534,0.0006645129
3503,10.1021/ja400069s,105,6(a),286,Pb0.98Sr0.01Na0.01Se1,Pb0.98Sr0.01Na0.01Se1,678.5,65035,0.00105,0.00013795,1.5769,0.55727,0.0000153763,0.0006658634
3503,10.1021/ja400069s,105,6(a),286,Pb0.98Sr0.01Na0.01Se1,Pb0.98Sr0.01Na0.01Se1,679,64882,0.001051,0.00013816,1.5752,0.55825,0.0000154126,0.0006672169
3503,10.1021/ja400069s,105,6(a),286,Pb0.98Sr0.01Na0.01Se1,Pb0.98Sr0.01Na0.01Se1,679.5,64729,0.001052,0.00013838,1.5734,0.55922,0.000015449,0.0006686157
3503,10.1021/ja400069s,105,6(a),286,Pb0.98Sr0.01Na0.01Se1,Pb0.98Sr0.01Na0.01Se1,680,64576,0.0010531,0.0001386,1.5717,0.5602,0.0000154856,0.0006700388
3503,10.1021/ja400069s,105,6(a),286,Pb0.98Sr0.01Na0.01Se1,Pb0.98Sr0.01Na0.01Se1,680.5,64424,0.0010541,0.00013881,1.57,0.56117,0.0000155222,0.0006714013
3503,10.1021/ja400069s,105,6(a),286,Pb0.98Sr0.01Na0.01Se1,Pb0.98Sr0.01Na0.01Se1,681,64271,0.0010551,0.00013903,1.5683,0.56215,0.0000155591,0.0006727667
3503,10.1021/ja400069s,105,6(a),286,Pb0.98Sr0.01Na0.01Se1,Pb0.98Sr0.01Na0.01Se1,681.5,64120,0.0010561,0.00013924,1.5665,0.56312,0.0000155958,0.0006741781
3503,10.1021/ja400069s,105,6(a),286,Pb0.98Sr0.01Na0.01Se1,Pb0.98Sr0.01Na0.01Se1,682,63968,0.0010571,0.00013946,1.5648,0.5641,0.0000156328,0.0006755496