sid,DOI,figureid,fignum,sampleid,samplename,composition,Temperature,Electrical conductivity,Power factor,Seebeck coefficient,Thermal conductivity,ZT,Electrical resistivity,Figure of merit Z
3503,10.1021/ja400069s,105,6(a),311,Pb0.99Na0.01Se1,Pb0.99Na0.01Se1,713,58765,0.0010751,0.00014334,1.6877,0.5281,0.0000170169,0.0006370208
3503,10.1021/ja400069s,105,6(a),311,Pb0.99Na0.01Se1,Pb0.99Na0.01Se1,713.5,58617,0.0010761,0.00014354,1.686,0.52886,0.0000170599,0.0006382562
3503,10.1021/ja400069s,105,6(a),311,Pb0.99Na0.01Se1,Pb0.99Na0.01Se1,714,58469,0.0010771,0.00014374,1.6843,0.52961,0.0000171031,0.0006394942
3503,10.1021/ja400069s,105,6(a),311,Pb0.99Na0.01Se1,Pb0.99Na0.01Se1,714.5,58322,0.0010781,0.00014394,1.6826,0.53037,0.0000171462,0.0006407346
3503,10.1021/ja400069s,105,6(a),311,Pb0.99Na0.01Se1,Pb0.99Na0.01Se1,715,58175,0.0010791,0.00014414,1.6809,0.53112,0.0000171895,0.0006419775
3503,10.1021/ja400069s,105,6(a),311,Pb0.99Na0.01Se1,Pb0.99Na0.01Se1,715.5,58028,0.0010801,0.00014434,1.6793,0.53188,0.0000172331,0.0006431847
3503,10.1021/ja400069s,105,6(a),311,Pb0.99Na0.01Se1,Pb0.99Na0.01Se1,716,57882,0.0010811,0.00014454,1.6776,0.53263,0.0000172765,0.0006444325
3503,10.1021/ja400069s,105,6(a),311,Pb0.99Na0.01Se1,Pb0.99Na0.01Se1,716.5,57736,0.001082,0.00014474,1.6759,0.53339,0.0000173202,0.0006456232
3503,10.1021/ja400069s,105,6(a),311,Pb0.99Na0.01Se1,Pb0.99Na0.01Se1,717,57591,0.001083,0.00014494,1.6742,0.53414,0.0000173638,0.0006468761
3503,10.1021/ja400069s,105,6(a),311,Pb0.99Na0.01Se1,Pb0.99Na0.01Se1,717.5,57445,0.001084,0.00014514,1.6726,0.5349,0.000017408,0.0006480928
3503,10.1021/ja400069s,105,6(a),311,Pb0.99Na0.01Se1,Pb0.99Na0.01Se1,718,57301,0.001085,0.00014534,1.6709,0.53566,0.0000174517,0.0006493506
3503,10.1021/ja400069s,105,6(a),311,Pb0.99Na0.01Se1,Pb0.99Na0.01Se1,718.5,57156,0.001086,0.00014554,1.6692,0.53641,0.000017496,0.0006506111
3503,10.1021/ja400069s,105,6(a),311,Pb0.99Na0.01Se1,Pb0.99Na0.01Se1,719,57012,0.001087,0.00014574,1.6676,0.53717,0.0000175402,0.000651835
3503,10.1021/ja400069s,105,6(a),311,Pb0.99Na0.01Se1,Pb0.99Na0.01Se1,719.5,56869,0.001088,0.00014594,1.6659,0.53792,0.0000175843,0.0006531004
3503,10.1021/ja400069s,105,6(a),311,Pb0.99Na0.01Se1,Pb0.99Na0.01Se1,720,56725,0.0010889,0.00014614,1.6642,0.53868,0.0000176289,0.0006543084
3503,10.1021/ja400069s,105,6(a),311,Pb0.99Na0.01Se1,Pb0.99Na0.01Se1,720.5,56582,0.0010899,0.00014634,1.6626,0.53943,0.0000176735,0.0006555395
3503,10.1021/ja400069s,105,6(a),311,Pb0.99Na0.01Se1,Pb0.99Na0.01Se1,721,56440,0.0010909,0.00014654,1.6609,0.54019,0.0000177179,0.0006568126
3503,10.1021/ja400069s,105,6(a),311,Pb0.99Na0.01Se1,Pb0.99Na0.01Se1,721.5,56298,0.0010919,0.00014674,1.6593,0.54094,0.0000177626,0.0006580486
3503,10.1021/ja400069s,105,6(a),311,Pb0.99Na0.01Se1,Pb0.99Na0.01Se1,722,56156,0.0010929,0.00014694,1.6577,0.5417,0.0000178075,0.000659287
3503,10.1021/ja400069s,105,6(a),311,Pb0.99Na0.01Se1,Pb0.99Na0.01Se1,722.5,56014,0.0010939,0.00014714,1.656,0.54245,0.0000178527,0.0006605676
3503,10.1021/ja400069s,105,6(a),311,Pb0.99Na0.01Se1,Pb0.99Na0.01Se1,723,55873,0.0010949,0.00014734,1.6544,0.54321,0.0000178977,0.0006618109
3503,10.1021/ja400069s,105,6(a),311,Pb0.99Na0.01Se1,Pb0.99Na0.01Se1,723.5,55733,0.0010958,0.00014754,1.6528,0.54397,0.0000179427,0.0006629961
3503,10.1021/ja400069s,105,6(a),311,Pb0.99Na0.01Se1,Pb0.99Na0.01Se1,724,55592,0.0010968,0.00014774,1.6511,0.54472,0.0000179882,0.0006642844
3503,10.1021/ja400069s,105,6(a),311,Pb0.99Na0.01Se1,Pb0.99Na0.01Se1,724.5,55452,0.0010978,0.00014794,1.6495,0.54548,0.0000180336,0.000665535
3503,10.1021/ja400069s,105,6(a),311,Pb0.99Na0.01Se1,Pb0.99Na0.01Se1,725,55313,0.0010988,0.00014814,1.6479,0.54623,0.0000180789,0.000666788
3503,10.1021/ja400069s,105,6(a),311,Pb0.99Na0.01Se1,Pb0.99Na0.01Se1,725.5,55174,0.0010998,0.00014833,1.6463,0.54699,0.0000181245,0.0006680435
3503,10.1021/ja400069s,105,6(a),311,Pb0.99Na0.01Se1,Pb0.99Na0.01Se1,726,55035,0.0011008,0.00014853,1.6447,0.54774,0.0000181703,0.0006693014
3503,10.1021/ja400069s,105,6(a),311,Pb0.99Na0.01Se1,Pb0.99Na0.01Se1,726.5,54896,0.0011017,0.00014873,1.643,0.5485,0.0000182163,0.0006705417
3503,10.1021/ja400069s,105,6(a),311,Pb0.99Na0.01Se1,Pb0.99Na0.01Se1,727,54758,0.0011027,0.00014893,1.6414,0.54925,0.0000182622,0.0006718046
3503,10.1021/ja400069s,105,6(a),311,Pb0.99Na0.01Se1,Pb0.99Na0.01Se1,727.5,54620,0.0011037,0.00014913,1.6398,0.55001,0.0000183083,0.0006730699
3503,10.1021/ja400069s,105,6(a),311,Pb0.99Na0.01Se1,Pb0.99Na0.01Se1,728,54483,0.0011047,0.00014933,1.6382,0.55076,0.0000183543,0.0006743377
3503,10.1021/ja400069s,105,6(a),311,Pb0.99Na0.01Se1,Pb0.99Na0.01Se1,728.5,54346,0.0011057,0.00014953,1.6366,0.55152,0.0000184006,0.000675608
3503,10.1021/ja400069s,105,6(a),311,Pb0.99Na0.01Se1,Pb0.99Na0.01Se1,729,54210,0.0011067,0.00014973,1.635,0.55227,0.0000184468,0.0006768807
3503,10.1021/ja400069s,105,6(a),311,Pb0.99Na0.01Se1,Pb0.99Na0.01Se1,729.5,54073,0.0011077,0.00014993,1.6335,0.55303,0.0000184935,0.0006781145
3503,10.1021/ja400069s,105,6(a),311,Pb0.99Na0.01Se1,Pb0.99Na0.01Se1,730,53937,0.0011086,0.00015013,1.6319,0.55379,0.0000185401,0.0006793308
3503,10.1021/ja400069s,105,6(a),311,Pb0.99Na0.01Se1,Pb0.99Na0.01Se1,730.5,53802,0.0011096,0.00015033,1.6303,0.55454,0.0000185867,0.0006806109
3503,10.1021/ja400069s,105,6(a),311,Pb0.99Na0.01Se1,Pb0.99Na0.01Se1,731,53667,0.0011106,0.00015053,1.6287,0.5553,0.0000186334,0.0006818935
3503,10.1021/ja400069s,105,6(a),311,Pb0.99Na0.01Se1,Pb0.99Na0.01Se1,731.5,53532,0.0011116,0.00015073,1.6271,0.55605,0.0000186804,0.0006831787
3503,10.1021/ja400069s,105,6(a),311,Pb0.99Na0.01Se1,Pb0.99Na0.01Se1,732,53398,0.0011126,0.00015093,1.6256,0.55681,0.0000187273,0.0006844242
3503,10.1021/ja400069s,105,6(a),311,Pb0.99Na0.01Se1,Pb0.99Na0.01Se1,732.5,53264,0.0011136,0.00015113,1.624,0.55756,0.0000187744,0.0006857143
3503,10.1021/ja400069s,105,6(a),311,Pb0.99Na0.01Se1,Pb0.99Na0.01Se1,733,53130,0.0011146,0.00015133,1.6224,0.55832,0.0000188218,0.0006870069
3503,10.1021/ja400069s,105,6(a),311,Pb0.99Na0.01Se1,Pb0.99Na0.01Se1,733.5,52997,0.0011155,0.00015153,1.6209,0.55907,0.000018869,0.0006881979
3503,10.1021/ja400069s,105,6(a),311,Pb0.99Na0.01Se1,Pb0.99Na0.01Se1,734,52864,0.0011165,0.00015173,1.6193,0.55983,0.0000189165,0.0006894955
3503,10.1021/ja400069s,105,6(a),311,Pb0.99Na0.01Se1,Pb0.99Na0.01Se1,734.5,52731,0.0011175,0.00015193,1.6177,0.56058,0.0000189642,0.0006907956
3503,10.1021/ja400069s,105,6(a),311,Pb0.99Na0.01Se1,Pb0.99Na0.01Se1,735,52599,0.0011185,0.00015213,1.6162,0.56134,0.0000190118,0.0006920554
3503,10.1021/ja400069s,105,6(a),311,Pb0.99Na0.01Se1,Pb0.99Na0.01Se1,735.5,52468,0.0011195,0.00015233,1.6146,0.5621,0.0000190592,0.0006933606
3503,10.1021/ja400069s,105,6(a),311,Pb0.99Na0.01Se1,Pb0.99Na0.01Se1,736,52336,0.0011205,0.00015252,1.6131,0.56285,0.0000191073,0.0006946253
3503,10.1021/ja400069s,105,6(a),311,Pb0.99Na0.01Se1,Pb0.99Na0.01Se1,736.5,52205,0.0011215,0.00015272,1.6116,0.56361,0.0000191553,0.0006958923
3503,10.1021/ja400069s,105,6(a),311,Pb0.99Na0.01Se1,Pb0.99Na0.01Se1,737,52075,0.0011224,0.00015292,1.61,0.56436,0.0000192031,0.0006971429
3503,10.1021/ja400069s,105,6(a),311,Pb0.99Na0.01Se1,Pb0.99Na0.01Se1,737.5,51944,0.0011234,0.00015312,1.6085,0.56512,0.0000192515,0.0006984147
3503,10.1021/ja400069s,105,6(a),311,Pb0.99Na0.01Se1,Pb0.99Na0.01Se1,738,51814,0.0011244,0.00015332,1.6069,0.56587,0.0000192998,0.0006997324
3503,10.1021/ja400069s,105,6(a),311,Pb0.99Na0.01Se1,Pb0.99Na0.01Se1,738.5,51685,0.0011254,0.00015352,1.6054,0.56663,0.000019348,0.0007010091
3503,10.1021/ja400069s,105,6(a),311,Pb0.99Na0.01Se1,Pb0.99Na0.01Se1,739,51556,0.0011264,0.00015372,1.6039,0.56738,0.0000193964,0.0007022882
3503,10.1021/ja400069s,105,6(a),311,Pb0.99Na0.01Se1,Pb0.99Na0.01Se1,739.5,51427,0.0011274,0.00015392,1.6024,0.56814,0.000019445,0.0007035696
3503,10.1021/ja400069s,105,6(a),311,Pb0.99Na0.01Se1,Pb0.99Na0.01Se1,740,51299,0.0011284,0.00015412,1.6009,0.56889,0.0000194936,0.0007048535
3503,10.1021/ja400069s,105,6(a),311,Pb0.99Na0.01Se1,Pb0.99Na0.01Se1,740.5,51171,0.0011293,0.00015432,1.5993,0.56965,0.0000195423,0.0007061214
3503,10.1021/ja400069s,105,6(a),311,Pb0.99Na0.01Se1,Pb0.99Na0.01Se1,741,51043,0.0011303,0.00015452,1.5978,0.5704,0.0000195913,0.0007074102
3503,10.1021/ja400069s,105,6(a),311,Pb0.99Na0.01Se1,Pb0.99Na0.01Se1,741.5,50916,0.0011313,0.00015472,1.5963,0.57116,0.0000196402,0.0007087014
3503,10.1021/ja400069s,105,6(a),311,Pb0.99Na0.01Se1,Pb0.99Na0.01Se1,742,50789,0.0011323,0.00015492,1.5948,0.57192,0.0000196893,0.000709995
3503,10.1021/ja400069s,105,6(a),311,Pb0.99Na0.01Se1,Pb0.99Na0.01Se1,742.5,50662,0.0011333,0.00015511,1.5933,0.57267,0.0000197387,0.000711291
3503,10.1021/ja400069s,105,6(a),311,Pb0.99Na0.01Se1,Pb0.99Na0.01Se1,743,50536,0.0011343,0.00015531,1.5918,0.57343,0.0000197879,0.0007125895
3503,10.1021/ja400069s,105,6(a),311,Pb0.99Na0.01Se1,Pb0.99Na0.01Se1,743.5,50411,0.0011353,0.00015551,1.5903,0.57418,0.0000198369,0.0007138905
3503,10.1021/ja400069s,105,6(a),311,Pb0.99Na0.01Se1,Pb0.99Na0.01Se1,744,50285,0.0011362,0.00015571,1.5888,0.57494,0.0000198866,0.0007151309
3503,10.1021/ja400069s,105,6(a),311,Pb0.99Na0.01Se1,Pb0.99Na0.01Se1,744.5,50160,0.0011372,0.00015591,1.5873,0.57569,0.0000199362,0.0007164367
3503,10.1021/ja400069s,105,6(a),311,Pb0.99Na0.01Se1,Pb0.99Na0.01Se1,745,50036,0.0011382,0.00015611,1.5859,0.57645,0.0000199856,0.0007176997
3503,10.1021/ja400069s,105,6(a),311,Pb0.99Na0.01Se1,Pb0.99Na0.01Se1,745.5,49911,0.0011392,0.00015631,1.5844,0.5772,0.0000200357,0.0007190104
3503,10.1021/ja400069s,105,6(a),311,Pb0.99Na0.01Se1,Pb0.99Na0.01Se1,746,49787,0.0011402,0.00015651,1.5829,0.57796,0.0000200856,0.0007203235
3503,10.1021/ja400069s,105,6(a),311,Pb0.99Na0.01Se1,Pb0.99Na0.01Se1,746.5,49664,0.0011412,0.00015671,1.5814,0.57871,0.0000201353,0.0007216391
3503,10.1021/ja400069s,105,6(a),311,Pb0.99Na0.01Se1,Pb0.99Na0.01Se1,747,49541,0.0011422,0.00015691,1.58,0.57947,0.0000201853,0.0007229114
3503,10.1021/ja400069s,105,6(a),311,Pb0.99Na0.01Se1,Pb0.99Na0.01Se1,747.5,49418,0.0011431,0.0001571,1.5785,0.58023,0.0000202355,0.0007241685
3503,10.1021/ja400069s,105,6(a),311,Pb0.99Na0.01Se1,Pb0.99Na0.01Se1,748,49296,0.0011441,0.0001573,1.577,0.58098,0.0000202856,0.0007254914
3503,10.1021/ja400069s,105,6(a),311,Pb0.99Na0.01Se1,Pb0.99Na0.01Se1,748.5,49174,0.0011451,0.0001575,1.5756,0.58174,0.0000203359,0.0007267708
3503,10.1021/ja400069s,105,6(a),311,Pb0.99Na0.01Se1,Pb0.99Na0.01Se1,749,49052,0.0011461,0.0001577,1.5741,0.58249,0.0000203865,0.0007280986
3503,10.1021/ja400069s,105,6(a),311,Pb0.99Na0.01Se1,Pb0.99Na0.01Se1,749.5,48931,0.0011471,0.0001579,1.5726,0.58325,0.0000204369,0.000729429
3503,10.1021/ja400069s,105,6(a),311,Pb0.99Na0.01Se1,Pb0.99Na0.01Se1,750,48810,0.0011481,0.0001581,1.5712,0.584,0.0000204876,0.0007307154
3503,10.1021/ja400069s,105,6(a),311,Pb0.99Na0.01Se1,Pb0.99Na0.01Se1,750.5,48690,0.0011491,0.0001583,1.5697,0.58476,0.0000205381,0.0007320507
3503,10.1021/ja400069s,105,6(a),311,Pb0.99Na0.01Se1,Pb0.99Na0.01Se1,751,48570,0.00115,0.00015849,1.5683,0.58551,0.0000205888,0.0007332781
3503,10.1021/ja400069s,105,6(a),311,Pb0.99Na0.01Se1,Pb0.99Na0.01Se1,751.5,48450,0.001151,0.00015869,1.5669,0.58627,0.0000206398,0.0007345714
3503,10.1021/ja400069s,105,6(a),311,Pb0.99Na0.01Se1,Pb0.99Na0.01Se1,752,48331,0.001152,0.00015889,1.5654,0.58702,0.0000206907,0.0007359141
3503,10.1021/ja400069s,105,6(a),311,Pb0.99Na0.01Se1,Pb0.99Na0.01Se1,752.5,48212,0.001153,0.00015909,1.564,0.58778,0.0000207417,0.0007372123
3503,10.1021/ja400069s,105,6(a),311,Pb0.99Na0.01Se1,Pb0.99Na0.01Se1,753,48093,0.001154,0.00015929,1.5626,0.58853,0.000020793,0.0007385127
3503,10.1021/ja400069s,105,6(a),311,Pb0.99Na0.01Se1,Pb0.99Na0.01Se1,753.5,47975,0.001155,0.00015949,1.5611,0.58929,0.0000208442,0.0007398629
3503,10.1021/ja400069s,105,6(a),311,Pb0.99Na0.01Se1,Pb0.99Na0.01Se1,754,47857,0.001156,0.00015968,1.5597,0.59005,0.0000208956,0.0007411682
3503,10.1021/ja400069s,105,6(a),311,Pb0.99Na0.01Se1,Pb0.99Na0.01Se1,754.5,47740,0.0011569,0.00015988,1.5583,0.5908,0.0000209468,0.0007424116
3503,10.1021/ja400069s,105,6(a),311,Pb0.99Na0.01Se1,Pb0.99Na0.01Se1,755,47623,0.0011579,0.00016008,1.5569,0.59156,0.0000209983,0.0007437215
3503,10.1021/ja400069s,105,6(a),311,Pb0.99Na0.01Se1,Pb0.99Na0.01Se1,755.5,47506,0.0011589,0.00016028,1.5555,0.59231,0.00002105,0.0007450338
3503,10.1021/ja400069s,105,6(a),311,Pb0.99Na0.01Se1,Pb0.99Na0.01Se1,756,47390,0.0011599,0.00016048,1.554,0.59307,0.0000211015,0.0007463964
3503,10.1021/ja400069s,105,6(a),311,Pb0.99Na0.01Se1,Pb0.99Na0.01Se1,756.5,47274,0.0011609,0.00016068,1.5526,0.59382,0.0000211533,0.0007477135
3503,10.1021/ja400069s,105,6(a),311,Pb0.99Na0.01Se1,Pb0.99Na0.01Se1,757,47158,0.0011619,0.00016087,1.5512,0.59458,0.0000212053,0.000749033
3503,10.1021/ja400069s,105,6(a),311,Pb0.99Na0.01Se1,Pb0.99Na0.01Se1,757.5,47043,0.0011629,0.00016107,1.5498,0.59533,0.0000212571,0.0007503549
3503,10.1021/ja400069s,105,6(a),311,Pb0.99Na0.01Se1,Pb0.99Na0.01Se1,758,46928,0.0011638,0.00016127,1.5484,0.59609,0.0000213092,0.0007516146
3503,10.1021/ja400069s,105,6(a),311,Pb0.99Na0.01Se1,Pb0.99Na0.01Se1,758.5,46814,0.0011648,0.00016147,1.547,0.59684,0.0000213611,0.0007529412
3503,10.1021/ja400069s,105,6(a),311,Pb0.99Na0.01Se1,Pb0.99Na0.01Se1,759,46700,0.0011658,0.00016167,1.5456,0.5976,0.0000214133,0.0007542702
3503,10.1021/ja400069s,105,6(a),311,Pb0.99Na0.01Se1,Pb0.99Na0.01Se1,759.5,46586,0.0011668,0.00016186,1.5443,0.59836,0.0000214657,0.0007555527
3503,10.1021/ja400069s,105,6(a),311,Pb0.99Na0.01Se1,Pb0.99Na0.01Se1,760,46473,0.0011678,0.00016206,1.5429,0.59911,0.0000215179,0.0007568864
3503,10.1021/ja400069s,105,6(a),311,Pb0.99Na0.01Se1,Pb0.99Na0.01Se1,760.5,46360,0.0011688,0.00016226,1.5415,0.59987,0.0000215703,0.0007582225
3503,10.1021/ja400069s,105,6(a),311,Pb0.99Na0.01Se1,Pb0.99Na0.01Se1,761,46247,0.0011698,0.00016246,1.5401,0.60062,0.000021623,0.0007595611
3503,10.1021/ja400069s,105,6(a),311,Pb0.99Na0.01Se1,Pb0.99Na0.01Se1,761.5,46135,0.0011707,0.00016265,1.5387,0.60138,0.0000216755,0.0007608371
3503,10.1021/ja400069s,105,6(a),311,Pb0.99Na0.01Se1,Pb0.99Na0.01Se1,762,46024,0.0011717,0.00016285,1.5374,0.60213,0.0000217278,0.0007621309
3503,10.1021/ja400069s,105,6(a),311,Pb0.99Na0.01Se1,Pb0.99Na0.01Se1,762.5,45912,0.0011727,0.00016305,1.536,0.60289,0.0000217808,0.0007634766
3503,10.1021/ja400069s,105,6(a),311,Pb0.99Na0.01Se1,Pb0.99Na0.01Se1,763,45801,0.0011737,0.00016325,1.5346,0.60364,0.0000218336,0.0007648247
3503,10.1021/ja400069s,105,6(a),311,Pb0.99Na0.01Se1,Pb0.99Na0.01Se1,763.5,45691,0.0011747,0.00016344,1.5333,0.6044,0.0000218861,0.0007661254
3503,10.1021/ja400069s,105,6(a),311,Pb0.99Na0.01Se1,Pb0.99Na0.01Se1,764,45580,0.0011757,0.00016364,1.5319,0.60515,0.0000219394,0.0007674783
3503,10.1021/ja400069s,105,6(a),311,Pb0.99Na0.01Se1,Pb0.99Na0.01Se1,764.5,45470,0.0011767,0.00016384,1.5306,0.60591,0.0000219925,0.0007687835
3503,10.1021/ja400069s,105,6(a),311,Pb0.99Na0.01Se1,Pb0.99Na0.01Se1,765,45361,0.0011776,0.00016404,1.5292,0.60666,0.0000220454,0.0007700759
3503,10.1021/ja400069s,105,6(a),311,Pb0.99Na0.01Se1,Pb0.99Na0.01Se1,765.5,45252,0.0011786,0.00016423,1.5279,0.60742,0.0000220985,0.0007713856
3503,10.1021/ja400069s,105,6(a),311,Pb0.99Na0.01Se1,Pb0.99Na0.01Se1,766,45143,0.0011796,0.00016443,1.5265,0.60818,0.0000221518,0.0007727481
3503,10.1021/ja400069s,105,6(a),311,Pb0.99Na0.01Se1,Pb0.99Na0.01Se1,766.5,45035,0.0011806,0.00016463,1.5252,0.60893,0.000022205,0.0007740624
3503,10.1021/ja400069s,105,6(a),311,Pb0.99Na0.01Se1,Pb0.99Na0.01Se1,767,44927,0.0011816,0.00016482,1.5238,0.60969,0.0000222583,0.0007754298
3503,10.1021/ja400069s,105,6(a),311,Pb0.99Na0.01Se1,Pb0.99Na0.01Se1,767.5,44819,0.0011826,0.00016502,1.5225,0.61044,0.000022312,0.0007767488
3503,10.1021/ja400069s,105,6(a),311,Pb0.99Na0.01Se1,Pb0.99Na0.01Se1,768,44712,0.0011836,0.00016522,1.5212,0.6112,0.0000223654,0.0007780699
3503,10.1021/ja400069s,105,6(a),311,Pb0.99Na0.01Se1,Pb0.99Na0.01Se1,768.5,44605,0.0011845,0.00016541,1.5199,0.61195,0.000022419,0.0007793276
3503,10.1021/ja400069s,105,6(a),311,Pb0.99Na0.01Se1,Pb0.99Na0.01Se1,769,44499,0.0011855,0.00016561,1.5185,0.61271,0.0000224724,0.0007807046
3503,10.1021/ja400069s,105,6(a),311,Pb0.99Na0.01Se1,Pb0.99Na0.01Se1,769.5,44393,0.0011865,0.00016581,1.5172,0.61346,0.0000225261,0.0007820327
3503,10.1021/ja400069s,105,6(a),311,Pb0.99Na0.01Se1,Pb0.99Na0.01Se1,770,44287,0.0011875,0.000166,1.5159,0.61422,0.00002258,0.000783363
3503,10.1021/ja400069s,105,6(a),311,Pb0.99Na0.01Se1,Pb0.99Na0.01Se1,770.5,44181,0.0011885,0.0001662,1.5146,0.61497,0.0000226342,0.0007846956
3503,10.1021/ja400069s,105,6(a),311,Pb0.99Na0.01Se1,Pb0.99Na0.01Se1,771,44077,0.0011895,0.0001664,1.5133,0.61573,0.0000226876,0.0007860305
3503,10.1021/ja400069s,105,6(a),311,Pb0.99Na0.01Se1,Pb0.99Na0.01Se1,771.5,43972,0.0011905,0.00016659,1.512,0.61649,0.0000227417,0.0007873677
3503,10.1021/ja400069s,105,6(a),311,Pb0.99Na0.01Se1,Pb0.99Na0.01Se1,772,43868,0.0011914,0.00016679,1.5106,0.61724,0.0000227957,0.0007886932
3503,10.1021/ja400069s,105,6(a),311,Pb0.99Na0.01Se1,Pb0.99Na0.01Se1,772.5,43764,0.0011924,0.00016699,1.5093,0.618,0.0000228498,0.0007900351
3503,10.1021/ja400069s,105,6(a),311,Pb0.99Na0.01Se1,Pb0.99Na0.01Se1,773,43660,0.0011934,0.00016718,1.508,0.61875,0.0000229043,0.0007913793
3503,10.1021/ja400069s,105,6(a),311,Pb0.99Na0.01Se1,Pb0.99Na0.01Se1,773.5,43557,0.0011944,0.00016738,1.5068,0.61951,0.0000229584,0.0007926732
3503,10.1021/ja400069s,105,6(a),311,Pb0.99Na0.01Se1,Pb0.99Na0.01Se1,774,43455,0.0011954,0.00016758,1.5055,0.62026,0.0000230123,0.0007940219
3503,10.1021/ja400069s,105,6(a),311,Pb0.99Na0.01Se1,Pb0.99Na0.01Se1,774.5,43352,0.0011964,0.00016777,1.5042,0.62102,0.000023067,0.000795373
3503,10.1021/ja400069s,105,6(a),311,Pb0.99Na0.01Se1,Pb0.99Na0.01Se1,775,43250,0.0011974,0.00016797,1.5029,0.62177,0.0000231214,0.0007967263
3503,10.1021/ja400069s,105,6(a),311,Pb0.99Na0.01Se1,Pb0.99Na0.01Se1,775.5,43149,0.0011983,0.00016816,1.5016,0.62253,0.0000231755,0.0007980155
3503,10.1021/ja400069s,105,6(a),311,Pb0.99Na0.01Se1,Pb0.99Na0.01Se1,776,43048,0.0011993,0.00016836,1.5003,0.62328,0.0000232299,0.0007993735
3503,10.1021/ja400069s,105,6(a),311,Pb0.99Na0.01Se1,Pb0.99Na0.01Se1,776.5,42947,0.0012003,0.00016856,1.499,0.62404,0.0000232845,0.0008007338
3503,10.1021/ja400069s,105,6(a),311,Pb0.99Na0.01Se1,Pb0.99Na0.01Se1,777,42846,0.0012013,0.00016875,1.4978,0.6248,0.0000233394,0.000802043
3503,10.1021/ja400069s,105,6(a),311,Pb0.99Na0.01Se1,Pb0.99Na0.01Se1,777.5,42746,0.0012023,0.00016895,1.4965,0.62555,0.000023394,0.000803408
3503,10.1021/ja400069s,105,6(a),311,Pb0.99Na0.01Se1,Pb0.99Na0.01Se1,778,42647,0.0012033,0.00016914,1.4952,0.62631,0.0000234483,0.0008047753
3503,10.1021/ja400069s,105,6(a),311,Pb0.99Na0.01Se1,Pb0.99Na0.01Se1,778.5,42547,0.0012043,0.00016934,1.494,0.62706,0.0000235034,0.000806091
3503,10.1021/ja400069s,105,6(a),311,Pb0.99Na0.01Se1,Pb0.99Na0.01Se1,779,42449,0.0012052,0.00016953,1.4927,0.62782,0.0000235577,0.000807396
3503,10.1021/ja400069s,105,6(a),311,Pb0.99Na0.01Se1,Pb0.99Na0.01Se1,779.5,42350,0.0012062,0.00016973,1.4915,0.62857,0.0000236128,0.0008087161
3503,10.1021/ja400069s,105,6(a),311,Pb0.99Na0.01Se1,Pb0.99Na0.01Se1,780,42252,0.0012072,0.00016992,1.4902,0.62933,0.0000236675,0.0008100926
3503,10.1021/ja400069s,105,6(a),311,Pb0.99Na0.01Se1,Pb0.99Na0.01Se1,780.5,42154,0.0012082,0.00017012,1.489,0.63008,0.0000237225,0.0008114171
3503,10.1021/ja400069s,105,6(a),311,Pb0.99Na0.01Se1,Pb0.99Na0.01Se1,781,42057,0.0012092,0.00017031,1.4877,0.63084,0.0000237773,0.0008127983
3503,10.1021/ja400069s,105,6(a),311,Pb0.99Na0.01Se1,Pb0.99Na0.01Se1,781.5,41960,0.0012102,0.00017051,1.4865,0.63159,0.0000238322,0.0008141271
3503,10.1021/ja400069s,105,6(a),311,Pb0.99Na0.01Se1,Pb0.99Na0.01Se1,782,41863,0.0012112,0.0001707,1.4852,0.63235,0.0000238874,0.0008155131
3503,10.1021/ja400069s,105,6(a),311,Pb0.99Na0.01Se1,Pb0.99Na0.01Se1,782.5,41767,0.0012121,0.0001709,1.484,0.6331,0.0000239423,0.000816779
3503,10.1021/ja400069s,105,6(a),311,Pb0.99Na0.01Se1,Pb0.99Na0.01Se1,783,41671,0.0012131,0.00017109,1.4828,0.63386,0.0000239975,0.0008181144