sid,DOI,figureid,fignum,sampleid,samplename,composition,Temperature,Electrical conductivity,Power factor,Seebeck coefficient,Thermal conductivity,ZT,Electrical resistivity,Figure of merit Z
3503,10.1021/ja400069s,105,6(a),179,Pb0.95Sr0.04Na0.01Se1,Pb0.95Sr0.04Na0.01Se1,523,99717,0.00068499,0.000088742,1.8132,0.27776,0.0000100284,0.0003777796
3503,10.1021/ja400069s,105,6(a),179,Pb0.95Sr0.04Na0.01Se1,Pb0.95Sr0.04Na0.01Se1,523.5,99498,0.00068567,0.000088904,1.8112,0.27878,0.0000100505,0.0003785722
3503,10.1021/ja400069s,105,6(a),179,Pb0.95Sr0.04Na0.01Se1,Pb0.95Sr0.04Na0.01Se1,524,99279,0.00068635,0.000089066,1.8091,0.2798,0.0000100726,0.0003793875
3503,10.1021/ja400069s,105,6(a),179,Pb0.95Sr0.04Na0.01Se1,Pb0.95Sr0.04Na0.01Se1,524.5,99061,0.00068704,0.000089228,1.8071,0.28083,0.0000100948,0.0003801893
3503,10.1021/ja400069s,105,6(a),179,Pb0.95Sr0.04Na0.01Se1,Pb0.95Sr0.04Na0.01Se1,525,98843,0.00068772,0.00008939,1.8051,0.28185,0.0000101171,0.0003809872
3503,10.1021/ja400069s,105,6(a),179,Pb0.95Sr0.04Na0.01Se1,Pb0.95Sr0.04Na0.01Se1,525.5,98626,0.0006884,0.000089553,1.8031,0.28287,0.0000101393,0.0003817869
3503,10.1021/ja400069s,105,6(a),179,Pb0.95Sr0.04Na0.01Se1,Pb0.95Sr0.04Na0.01Se1,526,98409,0.00068908,0.000089716,1.8011,0.28389,0.0000101617,0.0003825884
3503,10.1021/ja400069s,105,6(a),179,Pb0.95Sr0.04Na0.01Se1,Pb0.95Sr0.04Na0.01Se1,526.5,98192,0.00068976,0.000089879,1.7991,0.28491,0.0000101841,0.0003833917
3503,10.1021/ja400069s,105,6(a),179,Pb0.95Sr0.04Na0.01Se1,Pb0.95Sr0.04Na0.01Se1,527,97976,0.00069044,0.000090042,1.7971,0.28593,0.0000102066,0.0003841968
3503,10.1021/ja400069s,105,6(a),179,Pb0.95Sr0.04Na0.01Se1,Pb0.95Sr0.04Na0.01Se1,527.5,97760,0.00069113,0.000090205,1.7951,0.28695,0.0000102291,0.0003850092
3503,10.1021/ja400069s,105,6(a),179,Pb0.95Sr0.04Na0.01Se1,Pb0.95Sr0.04Na0.01Se1,528,97545,0.00069181,0.000090369,1.7931,0.28797,0.0000102517,0.0003858179
3503,10.1021/ja400069s,105,6(a),179,Pb0.95Sr0.04Na0.01Se1,Pb0.95Sr0.04Na0.01Se1,528.5,97330,0.00069249,0.000090533,1.7911,0.28899,0.0000102743,0.0003866283
3503,10.1021/ja400069s,105,6(a),179,Pb0.95Sr0.04Na0.01Se1,Pb0.95Sr0.04Na0.01Se1,529,97115,0.00069317,0.000090697,1.7891,0.29002,0.0000102971,0.0003874406
3503,10.1021/ja400069s,105,6(a),179,Pb0.95Sr0.04Na0.01Se1,Pb0.95Sr0.04Na0.01Se1,529.5,96901,0.00069385,0.000090861,1.7871,0.29104,0.0000103198,0.0003882547
3503,10.1021/ja400069s,105,6(a),179,Pb0.95Sr0.04Na0.01Se1,Pb0.95Sr0.04Na0.01Se1,530,96687,0.00069453,0.000091026,1.7851,0.29206,0.0000103427,0.0003890706
3503,10.1021/ja400069s,105,6(a),179,Pb0.95Sr0.04Na0.01Se1,Pb0.95Sr0.04Na0.01Se1,530.5,96474,0.00069522,0.00009119,1.7831,0.29308,0.0000103655,0.000389894
3503,10.1021/ja400069s,105,6(a),179,Pb0.95Sr0.04Na0.01Se1,Pb0.95Sr0.04Na0.01Se1,531,96261,0.0006959,0.000091355,1.7811,0.2941,0.0000103884,0.0003907136
3503,10.1021/ja400069s,105,6(a),179,Pb0.95Sr0.04Na0.01Se1,Pb0.95Sr0.04Na0.01Se1,531.5,96049,0.00069658,0.00009152,1.7791,0.29512,0.0000104114,0.000391535
3503,10.1021/ja400069s,105,6(a),179,Pb0.95Sr0.04Na0.01Se1,Pb0.95Sr0.04Na0.01Se1,532,95837,0.00069726,0.000091686,1.7771,0.29614,0.0000104344,0.0003923583
3503,10.1021/ja400069s,105,6(a),179,Pb0.95Sr0.04Na0.01Se1,Pb0.95Sr0.04Na0.01Se1,532.5,95625,0.00069794,0.000091851,1.7752,0.29716,0.0000104575,0.0003931613
3503,10.1021/ja400069s,105,6(a),179,Pb0.95Sr0.04Na0.01Se1,Pb0.95Sr0.04Na0.01Se1,533,95414,0.00069863,0.000092017,1.7732,0.29819,0.0000104806,0.0003939939
3503,10.1021/ja400069s,105,6(a),179,Pb0.95Sr0.04Na0.01Se1,Pb0.95Sr0.04Na0.01Se1,533.5,95203,0.00069931,0.000092183,1.7712,0.29921,0.0000105039,0.0003948227
3503,10.1021/ja400069s,105,6(a),179,Pb0.95Sr0.04Na0.01Se1,Pb0.95Sr0.04Na0.01Se1,534,94993,0.00069999,0.000092349,1.7692,0.30023,0.0000105271,0.0003956534
3503,10.1021/ja400069s,105,6(a),179,Pb0.95Sr0.04Na0.01Se1,Pb0.95Sr0.04Na0.01Se1,534.5,94783,0.00070067,0.000092515,1.7673,0.30125,0.0000105504,0.0003964635
3503,10.1021/ja400069s,105,6(a),179,Pb0.95Sr0.04Na0.01Se1,Pb0.95Sr0.04Na0.01Se1,535,94573,0.00070135,0.000092682,1.7653,0.30227,0.0000105738,0.0003972979
3503,10.1021/ja400069s,105,6(a),179,Pb0.95Sr0.04Na0.01Se1,Pb0.95Sr0.04Na0.01Se1,535.5,94364,0.00070203,0.000092849,1.7633,0.30329,0.0000105973,0.0003981342
3503,10.1021/ja400069s,105,6(a),179,Pb0.95Sr0.04Na0.01Se1,Pb0.95Sr0.04Na0.01Se1,536,94155,0.00070272,0.000093016,1.7613,0.30431,0.0000106208,0.000398978
3503,10.1021/ja400069s,105,6(a),179,Pb0.95Sr0.04Na0.01Se1,Pb0.95Sr0.04Na0.01Se1,536.5,93947,0.0007034,0.000093183,1.7594,0.30533,0.0000106443,0.0003997954
3503,10.1021/ja400069s,105,6(a),179,Pb0.95Sr0.04Na0.01Se1,Pb0.95Sr0.04Na0.01Se1,537,93739,0.00070408,0.00009335,1.7574,0.30635,0.0000106679,0.0004006373
3503,10.1021/ja400069s,105,6(a),179,Pb0.95Sr0.04Na0.01Se1,Pb0.95Sr0.04Na0.01Se1,537.5,93532,0.00070476,0.000093518,1.7555,0.30738,0.0000106915,0.0004014583
3503,10.1021/ja400069s,105,6(a),179,Pb0.95Sr0.04Na0.01Se1,Pb0.95Sr0.04Na0.01Se1,538,93325,0.00070544,0.000093686,1.7535,0.3084,0.0000107152,0.000402304
3503,10.1021/ja400069s,105,6(a),179,Pb0.95Sr0.04Na0.01Se1,Pb0.95Sr0.04Na0.01Se1,538.5,93118,0.00070613,0.000093854,1.7516,0.30942,0.0000107391,0.0004031343
3503,10.1021/ja400069s,105,6(a),179,Pb0.95Sr0.04Na0.01Se1,Pb0.95Sr0.04Na0.01Se1,539,92912,0.00070681,0.000094022,1.7496,0.31044,0.0000107629,0.0004039838
3503,10.1021/ja400069s,105,6(a),179,Pb0.95Sr0.04Na0.01Se1,Pb0.95Sr0.04Na0.01Se1,539.5,92706,0.00070749,0.000094191,1.7476,0.31146,0.0000107868,0.0004048352
3503,10.1021/ja400069s,105,6(a),179,Pb0.95Sr0.04Na0.01Se1,Pb0.95Sr0.04Na0.01Se1,540,92500,0.00070817,0.000094359,1.7457,0.31248,0.0000108108,0.0004056653
3503,10.1021/ja400069s,105,6(a),179,Pb0.95Sr0.04Na0.01Se1,Pb0.95Sr0.04Na0.01Se1,540.5,92295,0.00070885,0.000094528,1.7438,0.3135,0.0000108348,0.0004064973
3503,10.1021/ja400069s,105,6(a),179,Pb0.95Sr0.04Na0.01Se1,Pb0.95Sr0.04Na0.01Se1,541,92091,0.00070953,0.000094697,1.7418,0.31452,0.0000108588,0.0004073545
3503,10.1021/ja400069s,105,6(a),179,Pb0.95Sr0.04Na0.01Se1,Pb0.95Sr0.04Na0.01Se1,541.5,91886,0.00071022,0.000094867,1.7399,0.31555,0.0000108831,0.0004081959
3503,10.1021/ja400069s,105,6(a),179,Pb0.95Sr0.04Na0.01Se1,Pb0.95Sr0.04Na0.01Se1,542,91683,0.0007109,0.000095036,1.7379,0.31657,0.0000109071,0.0004090569
3503,10.1021/ja400069s,105,6(a),179,Pb0.95Sr0.04Na0.01Se1,Pb0.95Sr0.04Na0.01Se1,542.5,91479,0.00071158,0.000095206,1.736,0.31759,0.0000109315,0.0004098963
3503,10.1021/ja400069s,105,6(a),179,Pb0.95Sr0.04Na0.01Se1,Pb0.95Sr0.04Na0.01Se1,543,91276,0.00071226,0.000095376,1.7341,0.31861,0.0000109558,0.0004107376
3503,10.1021/ja400069s,105,6(a),179,Pb0.95Sr0.04Na0.01Se1,Pb0.95Sr0.04Na0.01Se1,543.5,91074,0.00071294,0.000095546,1.7321,0.31963,0.0000109801,0.0004116044
3503,10.1021/ja400069s,105,6(a),179,Pb0.95Sr0.04Na0.01Se1,Pb0.95Sr0.04Na0.01Se1,544,90871,0.00071362,0.000095716,1.7302,0.32065,0.0000110046,0.0004124494
3503,10.1021/ja400069s,105,6(a),179,Pb0.95Sr0.04Na0.01Se1,Pb0.95Sr0.04Na0.01Se1,544.5,90670,0.00071431,0.000095887,1.7283,0.32167,0.000011029,0.0004133021
3503,10.1021/ja400069s,105,6(a),179,Pb0.95Sr0.04Na0.01Se1,Pb0.95Sr0.04Na0.01Se1,545,90468,0.00071499,0.000096057,1.7263,0.32269,0.0000110536,0.0004141748
3503,10.1021/ja400069s,105,6(a),179,Pb0.95Sr0.04Na0.01Se1,Pb0.95Sr0.04Na0.01Se1,545.5,90267,0.00071567,0.000096228,1.7244,0.32371,0.0000110782,0.0004150255
3503,10.1021/ja400069s,105,6(a),179,Pb0.95Sr0.04Na0.01Se1,Pb0.95Sr0.04Na0.01Se1,546,90067,0.00071635,0.000096399,1.7225,0.32474,0.0000111028,0.0004158781
3503,10.1021/ja400069s,105,6(a),179,Pb0.95Sr0.04Na0.01Se1,Pb0.95Sr0.04Na0.01Se1,546.5,89866,0.00071703,0.000096571,1.7206,0.32576,0.0000111277,0.0004167325
3503,10.1021/ja400069s,105,6(a),179,Pb0.95Sr0.04Na0.01Se1,Pb0.95Sr0.04Na0.01Se1,547,89667,0.00071772,0.000096742,1.7187,0.32678,0.0000111524,0.0004175947
3503,10.1021/ja400069s,105,6(a),179,Pb0.95Sr0.04Na0.01Se1,Pb0.95Sr0.04Na0.01Se1,547.5,89467,0.0007184,0.000096914,1.7167,0.3278,0.0000111773,0.0004184773
3503,10.1021/ja400069s,105,6(a),179,Pb0.95Sr0.04Na0.01Se1,Pb0.95Sr0.04Na0.01Se1,548,89268,0.00071908,0.000097086,1.7148,0.32882,0.0000112022,0.0004193375
3503,10.1021/ja400069s,105,6(a),179,Pb0.95Sr0.04Na0.01Se1,Pb0.95Sr0.04Na0.01Se1,548.5,89070,0.00071976,0.000097258,1.7129,0.32984,0.0000112271,0.0004201997
3503,10.1021/ja400069s,105,6(a),179,Pb0.95Sr0.04Na0.01Se1,Pb0.95Sr0.04Na0.01Se1,549,88872,0.00072044,0.000097431,1.711,0.33086,0.0000112521,0.0004210637
3503,10.1021/ja400069s,105,6(a),179,Pb0.95Sr0.04Na0.01Se1,Pb0.95Sr0.04Na0.01Se1,549.5,88674,0.00072112,0.000097603,1.7091,0.33188,0.0000112773,0.0004219297
3503,10.1021/ja400069s,105,6(a),179,Pb0.95Sr0.04Na0.01Se1,Pb0.95Sr0.04Na0.01Se1,550,88476,0.00072181,0.000097776,1.7072,0.33291,0.0000113025,0.0004228034
3503,10.1021/ja400069s,105,6(a),179,Pb0.95Sr0.04Na0.01Se1,Pb0.95Sr0.04Na0.01Se1,550.5,88279,0.00072249,0.000097949,1.7053,0.33393,0.0000113277,0.0004236733
3503,10.1021/ja400069s,105,6(a),179,Pb0.95Sr0.04Na0.01Se1,Pb0.95Sr0.04Na0.01Se1,551,88083,0.00072317,0.000098122,1.7034,0.33495,0.0000113529,0.000424545
3503,10.1021/ja400069s,105,6(a),179,Pb0.95Sr0.04Na0.01Se1,Pb0.95Sr0.04Na0.01Se1,551.5,87887,0.00072385,0.000098296,1.7015,0.33597,0.0000113782,0.0004254187
3503,10.1021/ja400069s,105,6(a),179,Pb0.95Sr0.04Na0.01Se1,Pb0.95Sr0.04Na0.01Se1,552,87691,0.00072453,0.000098469,1.6996,0.33699,0.0000114037,0.0004262944
3503,10.1021/ja400069s,105,6(a),179,Pb0.95Sr0.04Na0.01Se1,Pb0.95Sr0.04Na0.01Se1,552.5,87495,0.00072521,0.000098643,1.6977,0.33801,0.0000114292,0.0004271721
3503,10.1021/ja400069s,105,6(a),179,Pb0.95Sr0.04Na0.01Se1,Pb0.95Sr0.04Na0.01Se1,553,87300,0.0007259,0.000098817,1.6958,0.33903,0.0000114548,0.0004280576
3503,10.1021/ja400069s,105,6(a),179,Pb0.95Sr0.04Na0.01Se1,Pb0.95Sr0.04Na0.01Se1,553.5,87106,0.00072658,0.000098991,1.6939,0.34005,0.0000114803,0.0004289391
3503,10.1021/ja400069s,105,6(a),179,Pb0.95Sr0.04Na0.01Se1,Pb0.95Sr0.04Na0.01Se1,554,86912,0.00072726,0.000099165,1.692,0.34107,0.0000115059,0.0004298227
3503,10.1021/ja400069s,105,6(a),179,Pb0.95Sr0.04Na0.01Se1,Pb0.95Sr0.04Na0.01Se1,554.5,86718,0.00072794,0.00009934,1.6902,0.3421,0.0000115316,0.0004306828
3503,10.1021/ja400069s,105,6(a),179,Pb0.95Sr0.04Na0.01Se1,Pb0.95Sr0.04Na0.01Se1,555,86524,0.00072862,0.000099515,1.6883,0.34312,0.0000115575,0.0004315702
3503,10.1021/ja400069s,105,6(a),179,Pb0.95Sr0.04Na0.01Se1,Pb0.95Sr0.04Na0.01Se1,555.5,86331,0.00072931,0.00009969,1.6864,0.34414,0.0000115833,0.0004324656
3503,10.1021/ja400069s,105,6(a),179,Pb0.95Sr0.04Na0.01Se1,Pb0.95Sr0.04Na0.01Se1,556,86139,0.00072999,0.000099865,1.6845,0.34516,0.0000116091,0.0004333571
3503,10.1021/ja400069s,105,6(a),179,Pb0.95Sr0.04Na0.01Se1,Pb0.95Sr0.04Na0.01Se1,556.5,85946,0.00073067,0.00010004,1.6826,0.34618,0.0000116352,0.0004342506
3503,10.1021/ja400069s,105,6(a),179,Pb0.95Sr0.04Na0.01Se1,Pb0.95Sr0.04Na0.01Se1,557,85755,0.00073135,0.00010022,1.6808,0.3472,0.0000116611,0.0004351202
3503,10.1021/ja400069s,105,6(a),179,Pb0.95Sr0.04Na0.01Se1,Pb0.95Sr0.04Na0.01Se1,557.5,85563,0.00073203,0.00010039,1.6789,0.34822,0.0000116873,0.0004360176
3503,10.1021/ja400069s,105,6(a),179,Pb0.95Sr0.04Na0.01Se1,Pb0.95Sr0.04Na0.01Se1,558,85372,0.00073271,0.00010057,1.677,0.34924,0.0000117134,0.0004369171
3503,10.1021/ja400069s,105,6(a),179,Pb0.95Sr0.04Na0.01Se1,Pb0.95Sr0.04Na0.01Se1,558.5,85181,0.0007334,0.00010074,1.6752,0.35026,0.0000117397,0.0004377985
3503,10.1021/ja400069s,105,6(a),179,Pb0.95Sr0.04Na0.01Se1,Pb0.95Sr0.04Na0.01Se1,559,84991,0.00073408,0.00010092,1.6733,0.35129,0.000011766,0.000438702
3503,10.1021/ja400069s,105,6(a),179,Pb0.95Sr0.04Na0.01Se1,Pb0.95Sr0.04Na0.01Se1,559.5,84801,0.00073476,0.0001011,1.6714,0.35231,0.0000117923,0.0004396075
3503,10.1021/ja400069s,105,6(a),179,Pb0.95Sr0.04Na0.01Se1,Pb0.95Sr0.04Na0.01Se1,560,84612,0.00073544,0.00010127,1.6696,0.35333,0.0000118187,0.0004404887
3503,10.1021/ja400069s,105,6(a),179,Pb0.95Sr0.04Na0.01Se1,Pb0.95Sr0.04Na0.01Se1,560.5,84422,0.00073612,0.00010145,1.6677,0.35435,0.0000118453,0.0004413983
3503,10.1021/ja400069s,105,6(a),179,Pb0.95Sr0.04Na0.01Se1,Pb0.95Sr0.04Na0.01Se1,561,84234,0.0007368,0.00010163,1.6659,0.35537,0.0000118717,0.0004422835
3503,10.1021/ja400069s,105,6(a),179,Pb0.95Sr0.04Na0.01Se1,Pb0.95Sr0.04Na0.01Se1,561.5,84045,0.00073749,0.00010181,1.664,0.35639,0.0000118984,0.0004432031