sid,DOI,figureid,fignum,sampleid,samplename,composition,Temperature,Electrical conductivity,Power factor,Seebeck coefficient,Thermal conductivity,ZT,Electrical resistivity,Figure of merit Z
3503,10.1021/ja400069s,105,6(a),393,Pb0.95Ba0.04Na0.01Se1,Pb0.95Ba0.04Na0.01Se1,687,44131,0.00094961,0.00016371,1.2181,0.64452,0.0000226598,0.000779583
3503,10.1021/ja400069s,105,6(a),393,Pb0.95Ba0.04Na0.01Se1,Pb0.95Ba0.04Na0.01Se1,687.5,44032,0.00095038,0.00016394,1.2171,0.64546,0.0000227108,0.0007808561
3503,10.1021/ja400069s,105,6(a),393,Pb0.95Ba0.04Na0.01Se1,Pb0.95Ba0.04Na0.01Se1,688,43934,0.00095116,0.00016418,1.216,0.64639,0.0000227614,0.0007822039
3503,10.1021/ja400069s,105,6(a),393,Pb0.95Ba0.04Na0.01Se1,Pb0.95Ba0.04Na0.01Se1,688.5,43836,0.00095193,0.00016441,1.215,0.64732,0.0000228123,0.0007834815
3503,10.1021/ja400069s,105,6(a),393,Pb0.95Ba0.04Na0.01Se1,Pb0.95Ba0.04Na0.01Se1,689,43738,0.00095271,0.00016465,1.214,0.64826,0.0000228634,0.0007847694
3503,10.1021/ja400069s,105,6(a),393,Pb0.95Ba0.04Na0.01Se1,Pb0.95Ba0.04Na0.01Se1,689.5,43640,0.00095348,0.00016488,1.2129,0.64919,0.0000229148,0.0007861159
3503,10.1021/ja400069s,105,6(a),393,Pb0.95Ba0.04Na0.01Se1,Pb0.95Ba0.04Na0.01Se1,690,43542,0.00095426,0.00016512,1.2119,0.65013,0.0000229663,0.0007874082
3503,10.1021/ja400069s,105,6(a),393,Pb0.95Ba0.04Na0.01Se1,Pb0.95Ba0.04Na0.01Se1,690.5,43445,0.00095503,0.00016535,1.2109,0.65106,0.0000230176,0.0007886944
3503,10.1021/ja400069s,105,6(a),393,Pb0.95Ba0.04Na0.01Se1,Pb0.95Ba0.04Na0.01Se1,691,43348,0.00095581,0.00016559,1.2098,0.65199,0.0000230691,0.0007900562
3503,10.1021/ja400069s,105,6(a),393,Pb0.95Ba0.04Na0.01Se1,Pb0.95Ba0.04Na0.01Se1,691.5,43251,0.00095658,0.00016583,1.2088,0.65293,0.0000231209,0.0007913468
3503,10.1021/ja400069s,105,6(a),393,Pb0.95Ba0.04Na0.01Se1,Pb0.95Ba0.04Na0.01Se1,692,43154,0.00095736,0.00016606,1.2078,0.65386,0.0000231728,0.0007926478
3503,10.1021/ja400069s,105,6(a),393,Pb0.95Ba0.04Na0.01Se1,Pb0.95Ba0.04Na0.01Se1,692.5,43058,0.00095813,0.0001663,1.2067,0.6548,0.0000232245,0.0007940085
3503,10.1021/ja400069s,105,6(a),393,Pb0.95Ba0.04Na0.01Se1,Pb0.95Ba0.04Na0.01Se1,693,42961,0.00095891,0.00016653,1.2057,0.65573,0.0000232769,0.0007953139
3503,10.1021/ja400069s,105,6(a),393,Pb0.95Ba0.04Na0.01Se1,Pb0.95Ba0.04Na0.01Se1,693.5,42865,0.00095969,0.00016677,1.2047,0.65666,0.0000233291,0.0007966216
3503,10.1021/ja400069s,105,6(a),393,Pb0.95Ba0.04Na0.01Se1,Pb0.95Ba0.04Na0.01Se1,694,42769,0.00096046,0.000167,1.2037,0.6576,0.0000233814,0.0007979231
3503,10.1021/ja400069s,105,6(a),393,Pb0.95Ba0.04Na0.01Se1,Pb0.95Ba0.04Na0.01Se1,694.5,42674,0.00096124,0.00016724,1.2026,0.65853,0.0000234335,0.0007993015
3503,10.1021/ja400069s,105,6(a),393,Pb0.95Ba0.04Na0.01Se1,Pb0.95Ba0.04Na0.01Se1,695,42578,0.00096201,0.00016747,1.2016,0.65946,0.0000234863,0.0008006075
3503,10.1021/ja400069s,105,6(a),393,Pb0.95Ba0.04Na0.01Se1,Pb0.95Ba0.04Na0.01Se1,695.5,42483,0.00096279,0.00016771,1.2006,0.6604,0.0000235388,0.000801924
3503,10.1021/ja400069s,105,6(a),393,Pb0.95Ba0.04Na0.01Se1,Pb0.95Ba0.04Na0.01Se1,696,42388,0.00096356,0.00016794,1.1996,0.66133,0.0000235916,0.0008032344
3503,10.1021/ja400069s,105,6(a),393,Pb0.95Ba0.04Na0.01Se1,Pb0.95Ba0.04Na0.01Se1,696.5,42293,0.00096434,0.00016818,1.1985,0.66227,0.0000236446,0.0008046224
3503,10.1021/ja400069s,105,6(a),393,Pb0.95Ba0.04Na0.01Se1,Pb0.95Ba0.04Na0.01Se1,697,42199,0.00096511,0.00016841,1.1975,0.6632,0.0000236972,0.0008059374
3503,10.1021/ja400069s,105,6(a),393,Pb0.95Ba0.04Na0.01Se1,Pb0.95Ba0.04Na0.01Se1,697.5,42105,0.00096589,0.00016864,1.1965,0.66413,0.0000237501,0.0008072628
3503,10.1021/ja400069s,105,6(a),393,Pb0.95Ba0.04Na0.01Se1,Pb0.95Ba0.04Na0.01Se1,698,42010,0.00096666,0.00016888,1.1955,0.66507,0.0000238039,0.0008085822
3503,10.1021/ja400069s,105,6(a),393,Pb0.95Ba0.04Na0.01Se1,Pb0.95Ba0.04Na0.01Se1,698.5,41916,0.00096744,0.00016911,1.1945,0.666,0.0000238572,0.0008099121
3503,10.1021/ja400069s,105,6(a),393,Pb0.95Ba0.04Na0.01Se1,Pb0.95Ba0.04Na0.01Se1,699,41823,0.00096821,0.00016935,1.1935,0.66694,0.0000239103,0.0008112359
3503,10.1021/ja400069s,105,6(a),393,Pb0.95Ba0.04Na0.01Se1,Pb0.95Ba0.04Na0.01Se1,699.5,41729,0.00096899,0.00016958,1.1925,0.66787,0.0000239641,0.0008125702
3503,10.1021/ja400069s,105,6(a),393,Pb0.95Ba0.04Na0.01Se1,Pb0.95Ba0.04Na0.01Se1,700,41636,0.00096976,0.00016982,1.1914,0.6688,0.0000240177,0.0008139668
3503,10.1021/ja400069s,105,6(a),393,Pb0.95Ba0.04Na0.01Se1,Pb0.95Ba0.04Na0.01Se1,700.5,41543,0.00097054,0.00017005,1.1904,0.66974,0.0000240714,0.0008153058
3503,10.1021/ja400069s,105,6(a),393,Pb0.95Ba0.04Na0.01Se1,Pb0.95Ba0.04Na0.01Se1,701,41450,0.00097131,0.00017028,1.1894,0.67067,0.0000241255,0.0008166386
3503,10.1021/ja400069s,105,6(a),393,Pb0.95Ba0.04Na0.01Se1,Pb0.95Ba0.04Na0.01Se1,701.5,41358,0.00097209,0.00017052,1.1884,0.6716,0.0000241791,0.0008179822
3503,10.1021/ja400069s,105,6(a),393,Pb0.95Ba0.04Na0.01Se1,Pb0.95Ba0.04Na0.01Se1,702,41265,0.00097286,0.00017075,1.1874,0.67254,0.0000242336,0.0008193195
3503,10.1021/ja400069s,105,6(a),393,Pb0.95Ba0.04Na0.01Se1,Pb0.95Ba0.04Na0.01Se1,702.5,41173,0.00097364,0.00017098,1.1864,0.67347,0.0000242878,0.0008206676
3503,10.1021/ja400069s,105,6(a),393,Pb0.95Ba0.04Na0.01Se1,Pb0.95Ba0.04Na0.01Se1,703,41081,0.00097441,0.00017122,1.1854,0.67441,0.0000243422,0.0008220094
3503,10.1021/ja400069s,105,6(a),393,Pb0.95Ba0.04Na0.01Se1,Pb0.95Ba0.04Na0.01Se1,703.5,40989,0.00097519,0.00017145,1.1844,0.67534,0.0000243968,0.000823362
3503,10.1021/ja400069s,105,6(a),393,Pb0.95Ba0.04Na0.01Se1,Pb0.95Ba0.04Na0.01Se1,704,40898,0.00097596,0.00017168,1.1834,0.67627,0.0000244511,0.0008247085
3503,10.1021/ja400069s,105,6(a),393,Pb0.95Ba0.04Na0.01Se1,Pb0.95Ba0.04Na0.01Se1,704.5,40806,0.00097674,0.00017192,1.1824,0.67721,0.0000245062,0.0008260656
3503,10.1021/ja400069s,105,6(a),393,Pb0.95Ba0.04Na0.01Se1,Pb0.95Ba0.04Na0.01Se1,705,40715,0.00097752,0.00017215,1.1814,0.67814,0.000024561,0.0008274251
3503,10.1021/ja400069s,105,6(a),393,Pb0.95Ba0.04Na0.01Se1,Pb0.95Ba0.04Na0.01Se1,705.5,40624,0.00097829,0.00017238,1.1804,0.67908,0.000024616,0.0008287784
3503,10.1021/ja400069s,105,6(a),393,Pb0.95Ba0.04Na0.01Se1,Pb0.95Ba0.04Na0.01Se1,706,40534,0.00097907,0.00017262,1.1794,0.68001,0.0000246706,0.0008301424
3503,10.1021/ja400069s,105,6(a),393,Pb0.95Ba0.04Na0.01Se1,Pb0.95Ba0.04Na0.01Se1,706.5,40443,0.00097984,0.00017285,1.1784,0.68094,0.0000247262,0.0008315003
3503,10.1021/ja400069s,105,6(a),393,Pb0.95Ba0.04Na0.01Se1,Pb0.95Ba0.04Na0.01Se1,707,40353,0.00098062,0.00017308,1.1774,0.68188,0.0000247813,0.000832869
3503,10.1021/ja400069s,105,6(a),393,Pb0.95Ba0.04Na0.01Se1,Pb0.95Ba0.04Na0.01Se1,707.5,40263,0.00098139,0.00017331,1.1764,0.68281,0.0000248367,0.0008342316
3503,10.1021/ja400069s,105,6(a),393,Pb0.95Ba0.04Na0.01Se1,Pb0.95Ba0.04Na0.01Se1,708,40173,0.00098217,0.00017355,1.1754,0.68374,0.0000248923,0.0008356049
3503,10.1021/ja400069s,105,6(a),393,Pb0.95Ba0.04Na0.01Se1,Pb0.95Ba0.04Na0.01Se1,708.5,40084,0.00098294,0.00017378,1.1745,0.68468,0.0000249476,0.0008369008
3503,10.1021/ja400069s,105,6(a),393,Pb0.95Ba0.04Na0.01Se1,Pb0.95Ba0.04Na0.01Se1,709,39994,0.00098372,0.00017401,1.1735,0.68561,0.0000250038,0.0008382787
3503,10.1021/ja400069s,105,6(a),393,Pb0.95Ba0.04Na0.01Se1,Pb0.95Ba0.04Na0.01Se1,709.5,39905,0.00098449,0.00017424,1.1725,0.68655,0.0000250595,0.0008396503
3503,10.1021/ja400069s,105,6(a),393,Pb0.95Ba0.04Na0.01Se1,Pb0.95Ba0.04Na0.01Se1,710,39816,0.00098527,0.00017447,1.1715,0.68748,0.0000251155,0.0008410329
3503,10.1021/ja400069s,105,6(a),393,Pb0.95Ba0.04Na0.01Se1,Pb0.95Ba0.04Na0.01Se1,710.5,39728,0.00098604,0.0001747,1.1705,0.68841,0.0000251712,0.0008424092
3503,10.1021/ja400069s,105,6(a),393,Pb0.95Ba0.04Na0.01Se1,Pb0.95Ba0.04Na0.01Se1,711,39639,0.00098682,0.00017494,1.1695,0.68935,0.0000252277,0.0008437965
3503,10.1021/ja400069s,105,6(a),393,Pb0.95Ba0.04Na0.01Se1,Pb0.95Ba0.04Na0.01Se1,711.5,39551,0.00098759,0.00017517,1.1685,0.69028,0.0000252838,0.0008451776
3503,10.1021/ja400069s,105,6(a),393,Pb0.95Ba0.04Na0.01Se1,Pb0.95Ba0.04Na0.01Se1,712,39463,0.00098837,0.0001754,1.1676,0.69122,0.0000253402,0.0008464971
3503,10.1021/ja400069s,105,6(a),393,Pb0.95Ba0.04Na0.01Se1,Pb0.95Ba0.04Na0.01Se1,712.5,39375,0.00098914,0.00017563,1.1666,0.69215,0.0000253968,0.0008478827
3503,10.1021/ja400069s,105,6(a),393,Pb0.95Ba0.04Na0.01Se1,Pb0.95Ba0.04Na0.01Se1,713,39287,0.00098992,0.00017586,1.1656,0.69308,0.0000254537,0.0008492793
3503,10.1021/ja400069s,105,6(a),393,Pb0.95Ba0.04Na0.01Se1,Pb0.95Ba0.04Na0.01Se1,713.5,39200,0.00099069,0.00017609,1.1646,0.69402,0.0000255102,0.0008506698
3503,10.1021/ja400069s,105,6(a),393,Pb0.95Ba0.04Na0.01Se1,Pb0.95Ba0.04Na0.01Se1,714,39112,0.00099147,0.00017632,1.1637,0.69495,0.0000255676,0.0008519979
3503,10.1021/ja400069s,105,6(a),393,Pb0.95Ba0.04Na0.01Se1,Pb0.95Ba0.04Na0.01Se1,714.5,39025,0.00099224,0.00017655,1.1627,0.69588,0.0000256246,0.000853393
3503,10.1021/ja400069s,105,6(a),393,Pb0.95Ba0.04Na0.01Se1,Pb0.95Ba0.04Na0.01Se1,715,38939,0.00099302,0.00017678,1.1617,0.69682,0.0000256812,0.000854799
3503,10.1021/ja400069s,105,6(a),393,Pb0.95Ba0.04Na0.01Se1,Pb0.95Ba0.04Na0.01Se1,715.5,38852,0.00099379,0.00017701,1.1607,0.69775,0.0000257387,0.0008561988
3503,10.1021/ja400069s,105,6(a),393,Pb0.95Ba0.04Na0.01Se1,Pb0.95Ba0.04Na0.01Se1,716,38766,0.00099457,0.00017724,1.1598,0.69869,0.0000257958,0.0008575358
3503,10.1021/ja400069s,105,6(a),393,Pb0.95Ba0.04Na0.01Se1,Pb0.95Ba0.04Na0.01Se1,716.5,38680,0.00099535,0.00017747,1.1588,0.69962,0.0000258532,0.0008589489
3503,10.1021/ja400069s,105,6(a),393,Pb0.95Ba0.04Na0.01Se1,Pb0.95Ba0.04Na0.01Se1,717,38594,0.00099612,0.0001777,1.1578,0.70055,0.0000259108,0.0008603558
3503,10.1021/ja400069s,105,6(a),393,Pb0.95Ba0.04Na0.01Se1,Pb0.95Ba0.04Na0.01Se1,717.5,38508,0.0009969,0.00017793,1.1569,0.70149,0.0000259686,0.0008616994
3503,10.1021/ja400069s,105,6(a),393,Pb0.95Ba0.04Na0.01Se1,Pb0.95Ba0.04Na0.01Se1,718,38422,0.00099767,0.00017816,1.1559,0.70242,0.0000260268,0.000863111
3503,10.1021/ja400069s,105,6(a),393,Pb0.95Ba0.04Na0.01Se1,Pb0.95Ba0.04Na0.01Se1,718.5,38337,0.00099845,0.00017839,1.1549,0.70336,0.0000260845,0.0008645337
3503,10.1021/ja400069s,105,6(a),393,Pb0.95Ba0.04Na0.01Se1,Pb0.95Ba0.04Na0.01Se1,719,38252,0.00099922,0.00017862,1.154,0.70429,0.0000261424,0.0008658752
3503,10.1021/ja400069s,105,6(a),393,Pb0.95Ba0.04Na0.01Se1,Pb0.95Ba0.04Na0.01Se1,719.5,38167,0.001,0.00017885,1.153,0.70522,0.0000262006,0.0008673027
3503,10.1021/ja400069s,105,6(a),393,Pb0.95Ba0.04Na0.01Se1,Pb0.95Ba0.04Na0.01Se1,720,38082,0.0010008,0.00017908,1.1521,0.70616,0.0000262591,0.0008686746
3503,10.1021/ja400069s,105,6(a),393,Pb0.95Ba0.04Na0.01Se1,Pb0.95Ba0.04Na0.01Se1,720.5,37998,0.0010015,0.00017931,1.1511,0.70709,0.0000263172,0.0008700374
3503,10.1021/ja400069s,105,6(a),393,Pb0.95Ba0.04Na0.01Se1,Pb0.95Ba0.04Na0.01Se1,721,37914,0.0010023,0.00017954,1.1501,0.70802,0.0000263755,0.0008714894
3503,10.1021/ja400069s,105,6(a),393,Pb0.95Ba0.04Na0.01Se1,Pb0.95Ba0.04Na0.01Se1,721.5,37830,0.0010031,0.00017977,1.1492,0.70896,0.000026434,0.0008728681
3503,10.1021/ja400069s,105,6(a),393,Pb0.95Ba0.04Na0.01Se1,Pb0.95Ba0.04Na0.01Se1,722,37746,0.0010039,0.00017999,1.1482,0.70989,0.0000264929,0.000874325
3503,10.1021/ja400069s,105,6(a),393,Pb0.95Ba0.04Na0.01Se1,Pb0.95Ba0.04Na0.01Se1,722.5,37662,0.0010046,0.00018022,1.1473,0.71083,0.000026552,0.000875621
3503,10.1021/ja400069s,105,6(a),393,Pb0.95Ba0.04Na0.01Se1,Pb0.95Ba0.04Na0.01Se1,723,37579,0.0010054,0.00018045,1.1463,0.71176,0.0000266106,0.0008770828
3503,10.1021/ja400069s,105,6(a),393,Pb0.95Ba0.04Na0.01Se1,Pb0.95Ba0.04Na0.01Se1,723.5,37496,0.0010062,0.00018068,1.1454,0.71269,0.0000266695,0.0008784704
3503,10.1021/ja400069s,105,6(a),393,Pb0.95Ba0.04Na0.01Se1,Pb0.95Ba0.04Na0.01Se1,724,37413,0.001007,0.0001809,1.1444,0.71363,0.0000267287,0.0008799371
3503,10.1021/ja400069s,105,6(a),393,Pb0.95Ba0.04Na0.01Se1,Pb0.95Ba0.04Na0.01Se1,724.5,37330,0.0010077,0.00018113,1.1435,0.71456,0.0000267881,0.0008812418
3503,10.1021/ja400069s,105,6(a),393,Pb0.95Ba0.04Na0.01Se1,Pb0.95Ba0.04Na0.01Se1,725,37248,0.0010085,0.00018136,1.1425,0.7155,0.0000268471,0.0008827133
3503,10.1021/ja400069s,105,6(a),393,Pb0.95Ba0.04Na0.01Se1,Pb0.95Ba0.04Na0.01Se1,725.5,37165,0.0010093,0.00018159,1.1416,0.71643,0.000026907,0.00088411
3503,10.1021/ja400069s,105,6(a),393,Pb0.95Ba0.04Na0.01Se1,Pb0.95Ba0.04Na0.01Se1,726,37083,0.0010101,0.00018181,1.1406,0.71736,0.0000269665,0.0008855865
3503,10.1021/ja400069s,105,6(a),393,Pb0.95Ba0.04Na0.01Se1,Pb0.95Ba0.04Na0.01Se1,726.5,37001,0.0010108,0.00018204,1.1397,0.7183,0.0000270263,0.0008869001
3503,10.1021/ja400069s,105,6(a),393,Pb0.95Ba0.04Na0.01Se1,Pb0.95Ba0.04Na0.01Se1,727,36920,0.0010116,0.00018227,1.1387,0.71923,0.0000270856,0.0008883815
3503,10.1021/ja400069s,105,6(a),393,Pb0.95Ba0.04Na0.01Se1,Pb0.95Ba0.04Na0.01Se1,727.5,36838,0.0010124,0.00018249,1.1378,0.72016,0.0000271459,0.0008897873
3503,10.1021/ja400069s,105,6(a),393,Pb0.95Ba0.04Na0.01Se1,Pb0.95Ba0.04Na0.01Se1,728,36757,0.0010132,0.00018272,1.1369,0.7211,0.0000272057,0.0008911954
3503,10.1021/ja400069s,105,6(a),393,Pb0.95Ba0.04Na0.01Se1,Pb0.95Ba0.04Na0.01Se1,728.5,36676,0.001014,0.00018294,1.1359,0.72203,0.0000272658,0.0008926842
3503,10.1021/ja400069s,105,6(a),393,Pb0.95Ba0.04Na0.01Se1,Pb0.95Ba0.04Na0.01Se1,729,36595,0.0010147,0.00018317,1.135,0.72297,0.0000273261,0.0008940088
3503,10.1021/ja400069s,105,6(a),393,Pb0.95Ba0.04Na0.01Se1,Pb0.95Ba0.04Na0.01Se1,729.5,36515,0.0010155,0.00018339,1.1341,0.7239,0.000027386,0.0008954237
3503,10.1021/ja400069s,105,6(a),393,Pb0.95Ba0.04Na0.01Se1,Pb0.95Ba0.04Na0.01Se1,730,36434,0.0010163,0.00018362,1.1331,0.72483,0.0000274469,0.00089692
3503,10.1021/ja400069s,105,6(a),393,Pb0.95Ba0.04Na0.01Se1,Pb0.95Ba0.04Na0.01Se1,730.5,36354,0.0010171,0.00018385,1.1322,0.72577,0.0000275073,0.0008983395
3503,10.1021/ja400069s,105,6(a),393,Pb0.95Ba0.04Na0.01Se1,Pb0.95Ba0.04Na0.01Se1,731,36274,0.0010178,0.00018407,1.1313,0.7267,0.000027568,0.0008996729
3503,10.1021/ja400069s,105,6(a),393,Pb0.95Ba0.04Na0.01Se1,Pb0.95Ba0.04Na0.01Se1,731.5,36194,0.0010186,0.00018429,1.1303,0.72764,0.0000276289,0.0009011767
3503,10.1021/ja400069s,105,6(a),393,Pb0.95Ba0.04Na0.01Se1,Pb0.95Ba0.04Na0.01Se1,732,36115,0.0010194,0.00018452,1.1294,0.72857,0.0000276893,0.0009026032
3503,10.1021/ja400069s,105,6(a),393,Pb0.95Ba0.04Na0.01Se1,Pb0.95Ba0.04Na0.01Se1,732.5,36035,0.0010202,0.00018474,1.1285,0.7295,0.0000277508,0.0009040319
3503,10.1021/ja400069s,105,6(a),393,Pb0.95Ba0.04Na0.01Se1,Pb0.95Ba0.04Na0.01Se1,733,35956,0.0010209,0.00018497,1.1275,0.73044,0.0000278118,0.0009054545
3503,10.1021/ja400069s,105,6(a),393,Pb0.95Ba0.04Na0.01Se1,Pb0.95Ba0.04Na0.01Se1,733.5,35877,0.0010217,0.00018519,1.1266,0.73137,0.000027873,0.000906888
3503,10.1021/ja400069s,105,6(a),393,Pb0.95Ba0.04Na0.01Se1,Pb0.95Ba0.04Na0.01Se1,734,35799,0.0010225,0.00018541,1.1257,0.7323,0.0000279337,0.0009083237
3503,10.1021/ja400069s,105,6(a),393,Pb0.95Ba0.04Na0.01Se1,Pb0.95Ba0.04Na0.01Se1,734.5,35720,0.0010233,0.00018564,1.1248,0.73324,0.0000279955,0.0009097617
3503,10.1021/ja400069s,105,6(a),393,Pb0.95Ba0.04Na0.01Se1,Pb0.95Ba0.04Na0.01Se1,735,35642,0.001024,0.00018586,1.1239,0.73417,0.0000280568,0.0009111131
3503,10.1021/ja400069s,105,6(a),393,Pb0.95Ba0.04Na0.01Se1,Pb0.95Ba0.04Na0.01Se1,735.5,35564,0.0010248,0.00018608,1.1229,0.73511,0.0000281183,0.0009126369
3503,10.1021/ja400069s,105,6(a),393,Pb0.95Ba0.04Na0.01Se1,Pb0.95Ba0.04Na0.01Se1,736,35486,0.0010256,0.00018631,1.122,0.73604,0.0000281801,0.000914082
3503,10.1021/ja400069s,105,6(a),393,Pb0.95Ba0.04Na0.01Se1,Pb0.95Ba0.04Na0.01Se1,736.5,35408,0.0010264,0.00018653,1.1211,0.73697,0.0000282422,0.0009155294
3503,10.1021/ja400069s,105,6(a),393,Pb0.95Ba0.04Na0.01Se1,Pb0.95Ba0.04Na0.01Se1,737,35331,0.0010271,0.00018675,1.1202,0.73791,0.0000283038,0.0009168898
3503,10.1021/ja400069s,105,6(a),393,Pb0.95Ba0.04Na0.01Se1,Pb0.95Ba0.04Na0.01Se1,737.5,35254,0.0010279,0.00018697,1.1193,0.73884,0.0000283656,0.0009183418
3503,10.1021/ja400069s,105,6(a),393,Pb0.95Ba0.04Na0.01Se1,Pb0.95Ba0.04Na0.01Se1,738,35177,0.0010287,0.0001872,1.1184,0.73977,0.0000284277,0.0009197961
3503,10.1021/ja400069s,105,6(a),393,Pb0.95Ba0.04Na0.01Se1,Pb0.95Ba0.04Na0.01Se1,738.5,35100,0.0010295,0.00018742,1.1174,0.74071,0.00002849,0.0009213352
3503,10.1021/ja400069s,105,6(a),393,Pb0.95Ba0.04Na0.01Se1,Pb0.95Ba0.04Na0.01Se1,739,35023,0.0010302,0.00018764,1.1165,0.74164,0.0000285527,0.0009227049
3503,10.1021/ja400069s,105,6(a),393,Pb0.95Ba0.04Na0.01Se1,Pb0.95Ba0.04Na0.01Se1,739.5,34947,0.001031,0.00018786,1.1156,0.74258,0.0000286148,0.0009241664
3503,10.1021/ja400069s,105,6(a),393,Pb0.95Ba0.04Na0.01Se1,Pb0.95Ba0.04Na0.01Se1,740,34871,0.0010318,0.00018808,1.1147,0.74351,0.0000286771,0.0009256302
3503,10.1021/ja400069s,105,6(a),393,Pb0.95Ba0.04Na0.01Se1,Pb0.95Ba0.04Na0.01Se1,740.5,34795,0.0010326,0.0001883,1.1138,0.74444,0.0000287398,0.0009270964
3503,10.1021/ja400069s,105,6(a),393,Pb0.95Ba0.04Na0.01Se1,Pb0.95Ba0.04Na0.01Se1,741,34719,0.0010333,0.00018852,1.1129,0.74538,0.0000288027,0.0009284752
3503,10.1021/ja400069s,105,6(a),393,Pb0.95Ba0.04Na0.01Se1,Pb0.95Ba0.04Na0.01Se1,741.5,34643,0.0010341,0.00018874,1.112,0.74631,0.0000288659,0.000929946
3503,10.1021/ja400069s,105,6(a),393,Pb0.95Ba0.04Na0.01Se1,Pb0.95Ba0.04Na0.01Se1,742,34568,0.0010349,0.00018896,1.1111,0.74725,0.0000289285,0.0009314193
3503,10.1021/ja400069s,105,6(a),393,Pb0.95Ba0.04Na0.01Se1,Pb0.95Ba0.04Na0.01Se1,742.5,34493,0.0010357,0.00018918,1.1102,0.74818,0.0000289914,0.000932895
3503,10.1021/ja400069s,105,6(a),393,Pb0.95Ba0.04Na0.01Se1,Pb0.95Ba0.04Na0.01Se1,743,34418,0.0010364,0.0001894,1.1093,0.74911,0.0000290546,0.0009342829
3503,10.1021/ja400069s,105,6(a),393,Pb0.95Ba0.04Na0.01Se1,Pb0.95Ba0.04Na0.01Se1,743.5,34343,0.0010372,0.00018962,1.1084,0.75005,0.000029118,0.0009357633
3503,10.1021/ja400069s,105,6(a),393,Pb0.95Ba0.04Na0.01Se1,Pb0.95Ba0.04Na0.01Se1,744,34269,0.001038,0.00018984,1.1075,0.75098,0.0000291809,0.000937246
3503,10.1021/ja400069s,105,6(a),393,Pb0.95Ba0.04Na0.01Se1,Pb0.95Ba0.04Na0.01Se1,744.5,34194,0.0010388,0.00019006,1.1066,0.75191,0.0000292449,0.0009387312
3503,10.1021/ja400069s,105,6(a),393,Pb0.95Ba0.04Na0.01Se1,Pb0.95Ba0.04Na0.01Se1,745,34120,0.0010395,0.00019027,1.1057,0.75285,0.0000293083,0.0009401284
3503,10.1021/ja400069s,105,6(a),393,Pb0.95Ba0.04Na0.01Se1,Pb0.95Ba0.04Na0.01Se1,745.5,34047,0.0010403,0.00019049,1.1048,0.75378,0.0000293712,0.0009416184
3503,10.1021/ja400069s,105,6(a),393,Pb0.95Ba0.04Na0.01Se1,Pb0.95Ba0.04Na0.01Se1,746,33973,0.0010411,0.00019071,1.1039,0.75472,0.0000294351,0.0009431108
3503,10.1021/ja400069s,105,6(a),393,Pb0.95Ba0.04Na0.01Se1,Pb0.95Ba0.04Na0.01Se1,746.5,33899,0.0010419,0.00019093,1.103,0.75565,0.0000294994,0.0009446056
3503,10.1021/ja400069s,105,6(a),393,Pb0.95Ba0.04Na0.01Se1,Pb0.95Ba0.04Na0.01Se1,747,33826,0.0010426,0.00019115,1.1021,0.75658,0.0000295631,0.0009460122
3503,10.1021/ja400069s,105,6(a),393,Pb0.95Ba0.04Na0.01Se1,Pb0.95Ba0.04Na0.01Se1,747.5,33753,0.0010434,0.00019136,1.1013,0.75752,0.000029627,0.0009474258
3503,10.1021/ja400069s,105,6(a),393,Pb0.95Ba0.04Na0.01Se1,Pb0.95Ba0.04Na0.01Se1,748,33680,0.0010442,0.00019158,1.1004,0.75845,0.0000296912,0.0009489277
3503,10.1021/ja400069s,105,6(a),393,Pb0.95Ba0.04Na0.01Se1,Pb0.95Ba0.04Na0.01Se1,748.5,33608,0.001045,0.0001918,1.0995,0.75939,0.0000297548,0.000950432
3503,10.1021/ja400069s,105,6(a),393,Pb0.95Ba0.04Na0.01Se1,Pb0.95Ba0.04Na0.01Se1,749,33535,0.0010457,0.00019201,1.0986,0.76032,0.0000298196,0.0009518478
3503,10.1021/ja400069s,105,6(a),393,Pb0.95Ba0.04Na0.01Se1,Pb0.95Ba0.04Na0.01Se1,749.5,33463,0.0010465,0.00019223,1.0977,0.76125,0.0000298838,0.000953357
3503,10.1021/ja400069s,105,6(a),393,Pb0.95Ba0.04Na0.01Se1,Pb0.95Ba0.04Na0.01Se1,750,33391,0.0010473,0.00019244,1.0968,0.76219,0.0000299482,0.0009548687
3503,10.1021/ja400069s,105,6(a),393,Pb0.95Ba0.04Na0.01Se1,Pb0.95Ba0.04Na0.01Se1,750.5,33319,0.0010481,0.00019266,1.096,0.76312,0.0000300129,0.0009562956
3503,10.1021/ja400069s,105,6(a),393,Pb0.95Ba0.04Na0.01Se1,Pb0.95Ba0.04Na0.01Se1,751,33248,0.0010488,0.00019287,1.0951,0.76405,0.000030077,0.0009577208