sid,DOI,figureid,fignum,sampleid,samplename,composition,Temperature,Electrical conductivity,Power factor,Seebeck coefficient,Thermal conductivity,ZT,Electrical resistivity,Figure of merit Z
3503,10.1021/ja400069s,105,6(a),203,Pb0.96Ba0.03Na0.01Se1,Pb0.96Ba0.03Na0.01Se1,456,103560,0.00067806,0.000076568,1.8089,0.21712,0.0000096562,0.0003748466
3503,10.1021/ja400069s,105,6(a),203,Pb0.96Ba0.03Na0.01Se1,Pb0.96Ba0.03Na0.01Se1,456.5,103380,0.00067893,0.000076735,1.807,0.21819,0.0000096731,0.0003757222
3503,10.1021/ja400069s,105,6(a),203,Pb0.96Ba0.03Na0.01Se1,Pb0.96Ba0.03Na0.01Se1,457,103200,0.00067979,0.000076903,1.8052,0.21927,0.0000096899,0.0003765732
3503,10.1021/ja400069s,105,6(a),203,Pb0.96Ba0.03Na0.01Se1,Pb0.96Ba0.03Na0.01Se1,457.5,103010,0.00068065,0.00007707,1.8033,0.22034,0.0000097078,0.0003774469
3503,10.1021/ja400069s,105,6(a),203,Pb0.96Ba0.03Na0.01Se1,Pb0.96Ba0.03Na0.01Se1,458,102830,0.00068152,0.000077238,1.8015,0.22142,0.0000097248,0.000378307
3503,10.1021/ja400069s,105,6(a),203,Pb0.96Ba0.03Na0.01Se1,Pb0.96Ba0.03Na0.01Se1,458.5,102650,0.00068238,0.000077406,1.7996,0.2225,0.0000097418,0.0003791843
3503,10.1021/ja400069s,105,6(a),203,Pb0.96Ba0.03Na0.01Se1,Pb0.96Ba0.03Na0.01Se1,459,102470,0.00068324,0.000077574,1.7978,0.22357,0.000009759,0.0003800423
3503,10.1021/ja400069s,105,6(a),203,Pb0.96Ba0.03Na0.01Se1,Pb0.96Ba0.03Na0.01Se1,459.5,102290,0.00068411,0.000077743,1.796,0.22465,0.0000097761,0.0003809076
3503,10.1021/ja400069s,105,6(a),203,Pb0.96Ba0.03Na0.01Se1,Pb0.96Ba0.03Na0.01Se1,460,102110,0.00068497,0.000077912,1.7941,0.22572,0.0000097934,0.0003817903
3503,10.1021/ja400069s,105,6(a),203,Pb0.96Ba0.03Na0.01Se1,Pb0.96Ba0.03Na0.01Se1,460.5,101930,0.00068583,0.000078081,1.7923,0.2268,0.0000098107,0.0003826536
3503,10.1021/ja400069s,105,6(a),203,Pb0.96Ba0.03Na0.01Se1,Pb0.96Ba0.03Na0.01Se1,461,101750,0.0006867,0.000078251,1.7905,0.22788,0.000009828,0.0003835242
3503,10.1021/ja400069s,105,6(a),203,Pb0.96Ba0.03Na0.01Se1,Pb0.96Ba0.03Na0.01Se1,461.5,101570,0.00068756,0.00007842,1.7887,0.22895,0.0000098454,0.0003843909
3503,10.1021/ja400069s,105,6(a),203,Pb0.96Ba0.03Na0.01Se1,Pb0.96Ba0.03Na0.01Se1,462,101390,0.00068842,0.00007859,1.7868,0.23003,0.0000098629,0.0003852809
3503,10.1021/ja400069s,105,6(a),203,Pb0.96Ba0.03Na0.01Se1,Pb0.96Ba0.03Na0.01Se1,462.5,101210,0.00068929,0.000078761,1.785,0.2311,0.0000098804,0.0003861569
3503,10.1021/ja400069s,105,6(a),203,Pb0.96Ba0.03Na0.01Se1,Pb0.96Ba0.03Na0.01Se1,463,101030,0.00069015,0.000078932,1.7832,0.23218,0.0000098981,0.0003870289
3503,10.1021/ja400069s,105,6(a),203,Pb0.96Ba0.03Na0.01Se1,Pb0.96Ba0.03Na0.01Se1,463.5,100850,0.00069101,0.000079103,1.7814,0.23326,0.0000099157,0.0003879028
3503,10.1021/ja400069s,105,6(a),203,Pb0.96Ba0.03Na0.01Se1,Pb0.96Ba0.03Na0.01Se1,464,100670,0.00069188,0.000079274,1.7796,0.23433,0.0000099334,0.000388784
3503,10.1021/ja400069s,105,6(a),203,Pb0.96Ba0.03Na0.01Se1,Pb0.96Ba0.03Na0.01Se1,464.5,100500,0.00069274,0.000079445,1.7778,0.23541,0.0000099502,0.0003896614
3503,10.1021/ja400069s,105,6(a),203,Pb0.96Ba0.03Na0.01Se1,Pb0.96Ba0.03Na0.01Se1,465,100320,0.0006936,0.000079617,1.776,0.23648,0.0000099681,0.0003905405
3503,10.1021/ja400069s,105,6(a),203,Pb0.96Ba0.03Na0.01Se1,Pb0.96Ba0.03Na0.01Se1,465.5,100140,0.00069447,0.000079789,1.7742,0.23756,0.000009986,0.0003914271
3503,10.1021/ja400069s,105,6(a),203,Pb0.96Ba0.03Na0.01Se1,Pb0.96Ba0.03Na0.01Se1,466,99962,0.00069533,0.000079962,1.7724,0.23864,0.0000100038,0.0003923099
3503,10.1021/ja400069s,105,6(a),203,Pb0.96Ba0.03Na0.01Se1,Pb0.96Ba0.03Na0.01Se1,466.5,99785,0.00069619,0.000080134,1.7706,0.23971,0.0000100215,0.0003931944
3503,10.1021/ja400069s,105,6(a),203,Pb0.96Ba0.03Na0.01Se1,Pb0.96Ba0.03Na0.01Se1,467,99607,0.00069706,0.000080307,1.7688,0.24079,0.0000100395,0.0003940864
3503,10.1021/ja400069s,105,6(a),203,Pb0.96Ba0.03Na0.01Se1,Pb0.96Ba0.03Na0.01Se1,467.5,99430,0.00069792,0.000080481,1.767,0.24186,0.0000100573,0.0003949745
3503,10.1021/ja400069s,105,6(a),203,Pb0.96Ba0.03Na0.01Se1,Pb0.96Ba0.03Na0.01Se1,468,99253,0.00069878,0.000080654,1.7652,0.24294,0.0000100753,0.0003958645
3503,10.1021/ja400069s,105,6(a),203,Pb0.96Ba0.03Na0.01Se1,Pb0.96Ba0.03Na0.01Se1,468.5,99077,0.00069965,0.000080828,1.7634,0.24402,0.0000100932,0.0003967619
3503,10.1021/ja400069s,105,6(a),203,Pb0.96Ba0.03Na0.01Se1,Pb0.96Ba0.03Na0.01Se1,469,98900,0.00070051,0.000081002,1.7616,0.24509,0.0000101112,0.0003976555
3503,10.1021/ja400069s,105,6(a),203,Pb0.96Ba0.03Na0.01Se1,Pb0.96Ba0.03Na0.01Se1,469.5,98724,0.00070137,0.000081176,1.7599,0.24617,0.0000101292,0.0003985283
3503,10.1021/ja400069s,105,6(a),203,Pb0.96Ba0.03Na0.01Se1,Pb0.96Ba0.03Na0.01Se1,470,98548,0.00070224,0.000081351,1.7581,0.24724,0.0000101473,0.0003994312
3503,10.1021/ja400069s,105,6(a),203,Pb0.96Ba0.03Na0.01Se1,Pb0.96Ba0.03Na0.01Se1,470.5,98372,0.0007031,0.000081526,1.7563,0.24832,0.0000101655,0.0004003302
3503,10.1021/ja400069s,105,6(a),203,Pb0.96Ba0.03Na0.01Se1,Pb0.96Ba0.03Na0.01Se1,471,98197,0.00070396,0.000081701,1.7545,0.2494,0.0000101836,0.0004012311
3503,10.1021/ja400069s,105,6(a),203,Pb0.96Ba0.03Na0.01Se1,Pb0.96Ba0.03Na0.01Se1,471.5,98021,0.00070483,0.000081877,1.7528,0.25047,0.0000102019,0.0004021166
3503,10.1021/ja400069s,105,6(a),203,Pb0.96Ba0.03Na0.01Se1,Pb0.96Ba0.03Na0.01Se1,472,97846,0.00070569,0.000082053,1.751,0.25155,0.0000102201,0.0004030211
3503,10.1021/ja400069s,105,6(a),203,Pb0.96Ba0.03Na0.01Se1,Pb0.96Ba0.03Na0.01Se1,472.5,97671,0.00070655,0.000082229,1.7492,0.25262,0.0000102385,0.0004039275
3503,10.1021/ja400069s,105,6(a),203,Pb0.96Ba0.03Na0.01Se1,Pb0.96Ba0.03Na0.01Se1,473,97497,0.00070742,0.000082405,1.7475,0.2537,0.0000102567,0.0004048183
3503,10.1021/ja400069s,105,6(a),203,Pb0.96Ba0.03Na0.01Se1,Pb0.96Ba0.03Na0.01Se1,473.5,97322,0.00070828,0.000082582,1.7457,0.25478,0.0000102752,0.0004057284
3503,10.1021/ja400069s,105,6(a),203,Pb0.96Ba0.03Na0.01Se1,Pb0.96Ba0.03Na0.01Se1,474,97148,0.00070914,0.000082759,1.7439,0.25585,0.0000102936,0.0004066403
3503,10.1021/ja400069s,105,6(a),203,Pb0.96Ba0.03Na0.01Se1,Pb0.96Ba0.03Na0.01Se1,474.5,96974,0.00071001,0.000082936,1.7422,0.25693,0.000010312,0.0004075364
3503,10.1021/ja400069s,105,6(a),203,Pb0.96Ba0.03Na0.01Se1,Pb0.96Ba0.03Na0.01Se1,475,96800,0.00071087,0.000083114,1.7404,0.258,0.0000103306,0.0004084521
3503,10.1021/ja400069s,105,6(a),203,Pb0.96Ba0.03Na0.01Se1,Pb0.96Ba0.03Na0.01Se1,475.5,96627,0.00071173,0.000083291,1.7387,0.25908,0.0000103491,0.0004093461
3503,10.1021/ja400069s,105,6(a),203,Pb0.96Ba0.03Na0.01Se1,Pb0.96Ba0.03Na0.01Se1,476,96453,0.0007126,0.000083469,1.7369,0.26016,0.0000103677,0.0004102712
3503,10.1021/ja400069s,105,6(a),203,Pb0.96Ba0.03Na0.01Se1,Pb0.96Ba0.03Na0.01Se1,476.5,96280,0.00071346,0.000083648,1.7352,0.26123,0.0000103864,0.0004111687
3503,10.1021/ja400069s,105,6(a),203,Pb0.96Ba0.03Na0.01Se1,Pb0.96Ba0.03Na0.01Se1,477,96107,0.00071432,0.000083826,1.7335,0.26231,0.0000104051,0.0004120681
3503,10.1021/ja400069s,105,6(a),203,Pb0.96Ba0.03Na0.01Se1,Pb0.96Ba0.03Na0.01Se1,477.5,95934,0.00071518,0.000084005,1.7317,0.26338,0.0000104238,0.000412993
3503,10.1021/ja400069s,105,6(a),203,Pb0.96Ba0.03Na0.01Se1,Pb0.96Ba0.03Na0.01Se1,478,95762,0.00071605,0.000084184,1.73,0.26446,0.0000104426,0.0004139017
3503,10.1021/ja400069s,105,6(a),203,Pb0.96Ba0.03Na0.01Se1,Pb0.96Ba0.03Na0.01Se1,478.5,95590,0.00071691,0.000084364,1.7282,0.26554,0.0000104613,0.0004148305
3503,10.1021/ja400069s,105,6(a),203,Pb0.96Ba0.03Na0.01Se1,Pb0.96Ba0.03Na0.01Se1,479,95418,0.00071777,0.000084544,1.7265,0.26661,0.0000104802,0.000415737
3503,10.1021/ja400069s,105,6(a),203,Pb0.96Ba0.03Na0.01Se1,Pb0.96Ba0.03Na0.01Se1,479.5,95246,0.00071864,0.000084724,1.7248,0.26769,0.0000104991,0.0004166512
3503,10.1021/ja400069s,105,6(a),203,Pb0.96Ba0.03Na0.01Se1,Pb0.96Ba0.03Na0.01Se1,480,95074,0.0007195,0.000084904,1.7231,0.26876,0.0000105181,0.0004175614
3503,10.1021/ja400069s,105,6(a),203,Pb0.96Ba0.03Na0.01Se1,Pb0.96Ba0.03Na0.01Se1,480.5,94903,0.00072036,0.000085085,1.7213,0.26984,0.0000105371,0.0004184976
3503,10.1021/ja400069s,105,6(a),203,Pb0.96Ba0.03Na0.01Se1,Pb0.96Ba0.03Na0.01Se1,481,94732,0.00072123,0.000085265,1.7196,0.27091,0.0000105561,0.0004194173
3503,10.1021/ja400069s,105,6(a),203,Pb0.96Ba0.03Na0.01Se1,Pb0.96Ba0.03Na0.01Se1,481.5,94561,0.00072209,0.000085447,1.7179,0.27199,0.0000105752,0.000420333
3503,10.1021/ja400069s,105,6(a),203,Pb0.96Ba0.03Na0.01Se1,Pb0.96Ba0.03Na0.01Se1,482,94390,0.00072295,0.000085628,1.7162,0.27307,0.0000105943,0.0004212504
3503,10.1021/ja400069s,105,6(a),203,Pb0.96Ba0.03Na0.01Se1,Pb0.96Ba0.03Na0.01Se1,482.5,94219,0.00072382,0.00008581,1.7145,0.27414,0.0000106136,0.0004221756
3503,10.1021/ja400069s,105,6(a),203,Pb0.96Ba0.03Na0.01Se1,Pb0.96Ba0.03Na0.01Se1,483,94049,0.00072468,0.000085992,1.7128,0.27522,0.0000106328,0.0004230967
3503,10.1021/ja400069s,105,6(a),203,Pb0.96Ba0.03Na0.01Se1,Pb0.96Ba0.03Na0.01Se1,483.5,93879,0.00072554,0.000086174,1.711,0.27629,0.000010652,0.0004240444
3503,10.1021/ja400069s,105,6(a),203,Pb0.96Ba0.03Na0.01Se1,Pb0.96Ba0.03Na0.01Se1,484,93709,0.00072641,0.000086356,1.7093,0.27737,0.0000106713,0.0004249751
3503,10.1021/ja400069s,105,6(a),203,Pb0.96Ba0.03Na0.01Se1,Pb0.96Ba0.03Na0.01Se1,484.5,93539,0.00072727,0.000086539,1.7076,0.27845,0.0000106907,0.0004259019
3503,10.1021/ja400069s,105,6(a),203,Pb0.96Ba0.03Na0.01Se1,Pb0.96Ba0.03Na0.01Se1,485,93370,0.00072813,0.000086722,1.7059,0.27952,0.0000107101,0.0004268304
3503,10.1021/ja400069s,105,6(a),203,Pb0.96Ba0.03Na0.01Se1,Pb0.96Ba0.03Na0.01Se1,485.5,93201,0.000729,0.000086905,1.7042,0.2806,0.0000107295,0.0004277667
3503,10.1021/ja400069s,105,6(a),203,Pb0.96Ba0.03Na0.01Se1,Pb0.96Ba0.03Na0.01Se1,486,93032,0.00072986,0.000087089,1.7025,0.28167,0.000010749,0.000428699
3503,10.1021/ja400069s,105,6(a),203,Pb0.96Ba0.03Na0.01Se1,Pb0.96Ba0.03Na0.01Se1,486.5,92863,0.00073072,0.000087273,1.7008,0.28275,0.0000107686,0.0004296331
3503,10.1021/ja400069s,105,6(a),203,Pb0.96Ba0.03Na0.01Se1,Pb0.96Ba0.03Na0.01Se1,487,92694,0.00073159,0.000087457,1.6992,0.28383,0.0000107882,0.0004305497
3503,10.1021/ja400069s,105,6(a),203,Pb0.96Ba0.03Na0.01Se1,Pb0.96Ba0.03Na0.01Se1,487.5,92526,0.00073245,0.000087641,1.6975,0.2849,0.0000108078,0.0004314875
3503,10.1021/ja400069s,105,6(a),203,Pb0.96Ba0.03Na0.01Se1,Pb0.96Ba0.03Na0.01Se1,488,92358,0.00073331,0.000087826,1.6958,0.28598,0.0000108274,0.0004324272
3503,10.1021/ja400069s,105,6(a),203,Pb0.96Ba0.03Na0.01Se1,Pb0.96Ba0.03Na0.01Se1,488.5,92190,0.00073418,0.000088011,1.6941,0.28705,0.0000108472,0.0004333747
3503,10.1021/ja400069s,105,6(a),203,Pb0.96Ba0.03Na0.01Se1,Pb0.96Ba0.03Na0.01Se1,489,92022,0.00073504,0.000088196,1.6924,0.28813,0.000010867,0.0004343181
3503,10.1021/ja400069s,105,6(a),203,Pb0.96Ba0.03Na0.01Se1,Pb0.96Ba0.03Na0.01Se1,489.5,91854,0.0007359,0.000088382,1.6907,0.28921,0.0000108868,0.0004352635
3503,10.1021/ja400069s,105,6(a),203,Pb0.96Ba0.03Na0.01Se1,Pb0.96Ba0.03Na0.01Se1,490,91687,0.00073677,0.000088567,1.6891,0.29028,0.0000109067,0.0004361909
3503,10.1021/ja400069s,105,6(a),203,Pb0.96Ba0.03Na0.01Se1,Pb0.96Ba0.03Na0.01Se1,490.5,91520,0.00073763,0.000088753,1.6874,0.29136,0.0000109266,0.00043714
3503,10.1021/ja400069s,105,6(a),203,Pb0.96Ba0.03Na0.01Se1,Pb0.96Ba0.03Na0.01Se1,491,91353,0.00073849,0.000088939,1.6857,0.29243,0.0000109465,0.000438091
3503,10.1021/ja400069s,105,6(a),203,Pb0.96Ba0.03Na0.01Se1,Pb0.96Ba0.03Na0.01Se1,491.5,91187,0.00073936,0.000089126,1.684,0.29351,0.0000109665,0.0004390499
3503,10.1021/ja400069s,105,6(a),203,Pb0.96Ba0.03Na0.01Se1,Pb0.96Ba0.03Na0.01Se1,492,91020,0.00074022,0.000089313,1.6824,0.29459,0.0000109866,0.0004399786
3503,10.1021/ja400069s,105,6(a),203,Pb0.96Ba0.03Na0.01Se1,Pb0.96Ba0.03Na0.01Se1,492.5,90854,0.00074108,0.0000895,1.6807,0.29566,0.0000110067,0.0004409353
3503,10.1021/ja400069s,105,6(a),203,Pb0.96Ba0.03Na0.01Se1,Pb0.96Ba0.03Na0.01Se1,493,90688,0.00074195,0.000089687,1.6791,0.29674,0.0000110268,0.0004418736
3503,10.1021/ja400069s,105,6(a),203,Pb0.96Ba0.03Na0.01Se1,Pb0.96Ba0.03Na0.01Se1,493.5,90522,0.00074281,0.000089875,1.6774,0.29781,0.000011047,0.0004428341
3503,10.1021/ja400069s,105,6(a),203,Pb0.96Ba0.03Na0.01Se1,Pb0.96Ba0.03Na0.01Se1,494,90357,0.00074367,0.000090063,1.6757,0.29889,0.0000110672,0.0004437966
3503,10.1021/ja400069s,105,6(a),203,Pb0.96Ba0.03Na0.01Se1,Pb0.96Ba0.03Na0.01Se1,494.5,90191,0.00074454,0.000090251,1.6741,0.29997,0.0000110876,0.0004447405
3503,10.1021/ja400069s,105,6(a),203,Pb0.96Ba0.03Na0.01Se1,Pb0.96Ba0.03Na0.01Se1,495,90026,0.0007454,0.000090439,1.6724,0.30104,0.0000111079,0.0004457068
3503,10.1021/ja400069s,105,6(a),203,Pb0.96Ba0.03Na0.01Se1,Pb0.96Ba0.03Na0.01Se1,495.5,89861,0.00074626,0.000090628,1.6708,0.30212,0.0000111283,0.0004466483
3503,10.1021/ja400069s,105,6(a),203,Pb0.96Ba0.03Na0.01Se1,Pb0.96Ba0.03Na0.01Se1,496,89696,0.00074713,0.000090817,1.6691,0.30319,0.0000111488,0.0004476245
3503,10.1021/ja400069s,105,6(a),203,Pb0.96Ba0.03Na0.01Se1,Pb0.96Ba0.03Na0.01Se1,496.5,89532,0.00074799,0.000091006,1.6675,0.30427,0.0000111692,0.0004485697
3503,10.1021/ja400069s,105,6(a),203,Pb0.96Ba0.03Na0.01Se1,Pb0.96Ba0.03Na0.01Se1,497,89368,0.00074885,0.000091195,1.6659,0.30535,0.0000111897,0.0004495168
3503,10.1021/ja400069s,105,6(a),203,Pb0.96Ba0.03Na0.01Se1,Pb0.96Ba0.03Na0.01Se1,497.5,89204,0.00074972,0.000091385,1.6642,0.30642,0.0000112103,0.0004504987
3503,10.1021/ja400069s,105,6(a),203,Pb0.96Ba0.03Na0.01Se1,Pb0.96Ba0.03Na0.01Se1,498,89040,0.00075058,0.000091575,1.6626,0.3075,0.0000112309,0.0004514495
3503,10.1021/ja400069s,105,6(a),203,Pb0.96Ba0.03Na0.01Se1,Pb0.96Ba0.03Na0.01Se1,498.5,88876,0.00075144,0.000091765,1.6609,0.30857,0.0000112516,0.0004524294
3503,10.1021/ja400069s,105,6(a),203,Pb0.96Ba0.03Na0.01Se1,Pb0.96Ba0.03Na0.01Se1,499,88713,0.00075231,0.000091955,1.6593,0.30965,0.0000112723,0.00045339
3503,10.1021/ja400069s,105,6(a),203,Pb0.96Ba0.03Na0.01Se1,Pb0.96Ba0.03Na0.01Se1,499.5,88550,0.00075317,0.000092146,1.6577,0.31073,0.0000112931,0.0004543464
3503,10.1021/ja400069s,105,6(a),203,Pb0.96Ba0.03Na0.01Se1,Pb0.96Ba0.03Na0.01Se1,500,88387,0.00075403,0.000092337,1.6561,0.3118,0.0000113139,0.0004553046
3503,10.1021/ja400069s,105,6(a),203,Pb0.96Ba0.03Na0.01Se1,Pb0.96Ba0.03Na0.01Se1,500.5,88224,0.00075489,0.000092528,1.6544,0.31288,0.0000113348,0.0004562923
3503,10.1021/ja400069s,105,6(a),203,Pb0.96Ba0.03Na0.01Se1,Pb0.96Ba0.03Na0.01Se1,501,88061,0.00075576,0.000092719,1.6528,0.31395,0.0000113558,0.0004572604
3503,10.1021/ja400069s,105,6(a),203,Pb0.96Ba0.03Na0.01Se1,Pb0.96Ba0.03Na0.01Se1,501.5,87899,0.00075662,0.000092911,1.6512,0.31503,0.0000113767,0.0004582243
3503,10.1021/ja400069s,105,6(a),203,Pb0.96Ba0.03Na0.01Se1,Pb0.96Ba0.03Na0.01Se1,502,87737,0.00075748,0.000093103,1.6496,0.31611,0.0000113977,0.0004591901
3503,10.1021/ja400069s,105,6(a),203,Pb0.96Ba0.03Na0.01Se1,Pb0.96Ba0.03Na0.01Se1,502.5,87575,0.00075835,0.000093295,1.648,0.31718,0.0000114188,0.0004601638
3503,10.1021/ja400069s,105,6(a),203,Pb0.96Ba0.03Na0.01Se1,Pb0.96Ba0.03Na0.01Se1,503,87413,0.00075921,0.000093488,1.6463,0.31826,0.0000114399,0.0004611614
3503,10.1021/ja400069s,105,6(a),203,Pb0.96Ba0.03Na0.01Se1,Pb0.96Ba0.03Na0.01Se1,503.5,87251,0.00076007,0.00009368,1.6447,0.31933,0.0000114612,0.0004621329
3503,10.1021/ja400069s,105,6(a),203,Pb0.96Ba0.03Na0.01Se1,Pb0.96Ba0.03Na0.01Se1,504,87090,0.00076094,0.000093873,1.6431,0.32041,0.0000114824,0.0004631124
3503,10.1021/ja400069s,105,6(a),203,Pb0.96Ba0.03Na0.01Se1,Pb0.96Ba0.03Na0.01Se1,504.5,86929,0.0007618,0.000094066,1.6415,0.32149,0.0000115036,0.0004640877
3503,10.1021/ja400069s,105,6(a),203,Pb0.96Ba0.03Na0.01Se1,Pb0.96Ba0.03Na0.01Se1,505,86768,0.00076266,0.00009426,1.6399,0.32256,0.000011525,0.0004650649
3503,10.1021/ja400069s,105,6(a),203,Pb0.96Ba0.03Na0.01Se1,Pb0.96Ba0.03Na0.01Se1,505.5,86608,0.00076353,0.000094454,1.6383,0.32364,0.0000115463,0.0004660502
3503,10.1021/ja400069s,105,6(a),203,Pb0.96Ba0.03Na0.01Se1,Pb0.96Ba0.03Na0.01Se1,506,86447,0.00076439,0.000094647,1.6367,0.32471,0.0000115678,0.0004670312
3503,10.1021/ja400069s,105,6(a),203,Pb0.96Ba0.03Na0.01Se1,Pb0.96Ba0.03Na0.01Se1,506.5,86287,0.00076525,0.000094842,1.6351,0.32579,0.0000115892,0.0004680142
3503,10.1021/ja400069s,105,6(a),203,Pb0.96Ba0.03Na0.01Se1,Pb0.96Ba0.03Na0.01Se1,507,86127,0.00076612,0.000095036,1.6335,0.32687,0.0000116108,0.0004690052
3503,10.1021/ja400069s,105,6(a),203,Pb0.96Ba0.03Na0.01Se1,Pb0.96Ba0.03Na0.01Se1,507.5,85967,0.00076698,0.000095231,1.6319,0.32794,0.0000116324,0.000469992
3503,10.1021/ja400069s,105,6(a),203,Pb0.96Ba0.03Na0.01Se1,Pb0.96Ba0.03Na0.01Se1,508,85807,0.00076784,0.000095426,1.6303,0.32902,0.0000116541,0.0004709808
3503,10.1021/ja400069s,105,6(a),203,Pb0.96Ba0.03Na0.01Se1,Pb0.96Ba0.03Na0.01Se1,508.5,85648,0.00076871,0.000095621,1.6288,0.33009,0.0000116757,0.0004719487
3503,10.1021/ja400069s,105,6(a),203,Pb0.96Ba0.03Na0.01Se1,Pb0.96Ba0.03Na0.01Se1,509,85489,0.00076957,0.000095816,1.6272,0.33117,0.0000116974,0.0004729412
3503,10.1021/ja400069s,105,6(a),203,Pb0.96Ba0.03Na0.01Se1,Pb0.96Ba0.03Na0.01Se1,509.5,85330,0.00077043,0.000096012,1.6256,0.33225,0.0000117192,0.0004739358
3503,10.1021/ja400069s,105,6(a),203,Pb0.96Ba0.03Na0.01Se1,Pb0.96Ba0.03Na0.01Se1,510,85171,0.0007713,0.000096208,1.624,0.33332,0.0000117411,0.0004749384
3503,10.1021/ja400069s,105,6(a),203,Pb0.96Ba0.03Na0.01Se1,Pb0.96Ba0.03Na0.01Se1,510.5,85013,0.00077216,0.000096404,1.6224,0.3344,0.0000117629,0.0004759369
3503,10.1021/ja400069s,105,6(a),203,Pb0.96Ba0.03Na0.01Se1,Pb0.96Ba0.03Na0.01Se1,511,84854,0.00077302,0.0000966,1.6209,0.33547,0.0000117849,0.0004769079
3503,10.1021/ja400069s,105,6(a),203,Pb0.96Ba0.03Na0.01Se1,Pb0.96Ba0.03Na0.01Se1,511.5,84696,0.00077389,0.000096797,1.6193,0.33655,0.0000118069,0.0004779164
3503,10.1021/ja400069s,105,6(a),203,Pb0.96Ba0.03Na0.01Se1,Pb0.96Ba0.03Na0.01Se1,512,84538,0.00077475,0.000096993,1.6177,0.33763,0.000011829,0.0004789207
3503,10.1021/ja400069s,105,6(a),203,Pb0.96Ba0.03Na0.01Se1,Pb0.96Ba0.03Na0.01Se1,512.5,84381,0.00077561,0.00009719,1.6162,0.3387,0.000011851,0.0004798973
3503,10.1021/ja400069s,105,6(a),203,Pb0.96Ba0.03Na0.01Se1,Pb0.96Ba0.03Na0.01Se1,513,84223,0.00077648,0.000097388,1.6146,0.33978,0.0000118732,0.0004809117
3503,10.1021/ja400069s,105,6(a),203,Pb0.96Ba0.03Na0.01Se1,Pb0.96Ba0.03Na0.01Se1,513.5,84066,0.00077734,0.000097585,1.613,0.34085,0.0000118954,0.0004819219
3503,10.1021/ja400069s,105,6(a),203,Pb0.96Ba0.03Na0.01Se1,Pb0.96Ba0.03Na0.01Se1,514,83909,0.0007782,0.000097783,1.6115,0.34193,0.0000119177,0.0004829041
3503,10.1021/ja400069s,105,6(a),203,Pb0.96Ba0.03Na0.01Se1,Pb0.96Ba0.03Na0.01Se1,514.5,83752,0.00077907,0.000097981,1.6099,0.34301,0.00001194,0.0004839245
3503,10.1021/ja400069s,105,6(a),203,Pb0.96Ba0.03Na0.01Se1,Pb0.96Ba0.03Na0.01Se1,515,83595,0.00077993,0.000098179,1.6084,0.34408,0.0000119624,0.0004849105
3503,10.1021/ja400069s,105,6(a),203,Pb0.96Ba0.03Na0.01Se1,Pb0.96Ba0.03Na0.01Se1,515.5,83439,0.00078079,0.000098378,1.6068,0.34516,0.0000119848,0.0004859286
3503,10.1021/ja400069s,105,6(a),203,Pb0.96Ba0.03Na0.01Se1,Pb0.96Ba0.03Na0.01Se1,516,83283,0.00078166,0.000098576,1.6052,0.34623,0.0000120073,0.0004869549
3503,10.1021/ja400069s,105,6(a),203,Pb0.96Ba0.03Na0.01Se1,Pb0.96Ba0.03Na0.01Se1,516.5,83127,0.00078252,0.000098775,1.6037,0.34731,0.0000120298,0.0004879466
3503,10.1021/ja400069s,105,6(a),203,Pb0.96Ba0.03Na0.01Se1,Pb0.96Ba0.03Na0.01Se1,517,82971,0.00078338,0.000098974,1.6022,0.34839,0.0000120524,0.0004889402
3503,10.1021/ja400069s,105,6(a),203,Pb0.96Ba0.03Na0.01Se1,Pb0.96Ba0.03Na0.01Se1,517.5,82815,0.00078425,0.000099174,1.6006,0.34946,0.0000120751,0.0004899725
3503,10.1021/ja400069s,105,6(a),203,Pb0.96Ba0.03Na0.01Se1,Pb0.96Ba0.03Na0.01Se1,518,82660,0.00078511,0.000099373,1.5991,0.35054,0.0000120977,0.0004909699
3503,10.1021/ja400069s,105,6(a),203,Pb0.96Ba0.03Na0.01Se1,Pb0.96Ba0.03Na0.01Se1,518.5,82505,0.00078597,0.000099573,1.5975,0.35161,0.0000121205,0.000492
3503,10.1021/ja400069s,105,6(a),203,Pb0.96Ba0.03Na0.01Se1,Pb0.96Ba0.03Na0.01Se1,519,82350,0.00078684,0.000099773,1.596,0.35269,0.0000121433,0.0004930075
3503,10.1021/ja400069s,105,6(a),203,Pb0.96Ba0.03Na0.01Se1,Pb0.96Ba0.03Na0.01Se1,519.5,82195,0.0007877,0.000099973,1.5945,0.35377,0.0000121662,0.0004940107