sid,DOI,figureid,fignum,sampleid,samplename,composition,Temperature,Electrical conductivity,Power factor,Seebeck coefficient,Thermal conductivity,ZT,Electrical resistivity,Figure of merit Z
3503,10.1021/ja400069s,105,6(a),393,Pb0.95Ba0.04Na0.01Se1,Pb0.95Ba0.04Na0.01Se1,367,154140,0.00045347,0.000046595,2.2703,0.046864,0.0000064876,0.0001997401
3503,10.1021/ja400069s,105,6(a),393,Pb0.95Ba0.04Na0.01Se1,Pb0.95Ba0.04Na0.01Se1,367.5,153880,0.00045424,0.000046709,2.2678,0.047798,0.0000064986,0.0002002999
3503,10.1021/ja400069s,105,6(a),393,Pb0.95Ba0.04Na0.01Se1,Pb0.95Ba0.04Na0.01Se1,368,153620,0.00045502,0.000046824,2.2653,0.048731,0.0000065096,0.0002008652
3503,10.1021/ja400069s,105,6(a),393,Pb0.95Ba0.04Na0.01Se1,Pb0.95Ba0.04Na0.01Se1,368.5,153360,0.00045579,0.000046939,2.2628,0.049665,0.0000065206,0.0002014274
3503,10.1021/ja400069s,105,6(a),393,Pb0.95Ba0.04Na0.01Se1,Pb0.95Ba0.04Na0.01Se1,369,153100,0.00045657,0.000047053,2.2603,0.050599,0.0000065317,0.0002019953
3503,10.1021/ja400069s,105,6(a),393,Pb0.95Ba0.04Na0.01Se1,Pb0.95Ba0.04Na0.01Se1,369.5,152850,0.00045734,0.000047168,2.2578,0.051533,0.0000065424,0.00020256
3503,10.1021/ja400069s,105,6(a),393,Pb0.95Ba0.04Na0.01Se1,Pb0.95Ba0.04Na0.01Se1,370,152590,0.00045812,0.000047283,2.2553,0.052467,0.0000065535,0.0002031304
3503,10.1021/ja400069s,105,6(a),393,Pb0.95Ba0.04Na0.01Se1,Pb0.95Ba0.04Na0.01Se1,370.5,152330,0.00045889,0.000047398,2.2529,0.053401,0.0000065647,0.0002036886
3503,10.1021/ja400069s,105,6(a),393,Pb0.95Ba0.04Na0.01Se1,Pb0.95Ba0.04Na0.01Se1,371,152080,0.00045967,0.000047513,2.2504,0.054334,0.0000065755,0.0002042615
3503,10.1021/ja400069s,105,6(a),393,Pb0.95Ba0.04Na0.01Se1,Pb0.95Ba0.04Na0.01Se1,371.5,151820,0.00046044,0.000047628,2.2479,0.055268,0.0000065867,0.0002048312
3503,10.1021/ja400069s,105,6(a),393,Pb0.95Ba0.04Na0.01Se1,Pb0.95Ba0.04Na0.01Se1,372,151560,0.00046122,0.000047744,2.2454,0.056202,0.000006598,0.0002054066
3503,10.1021/ja400069s,105,6(a),393,Pb0.95Ba0.04Na0.01Se1,Pb0.95Ba0.04Na0.01Se1,372.5,151310,0.000462,0.000047859,2.243,0.057136,0.0000066089,0.0002059741
3503,10.1021/ja400069s,105,6(a),393,Pb0.95Ba0.04Na0.01Se1,Pb0.95Ba0.04Na0.01Se1,373,151050,0.00046277,0.000047974,2.2405,0.05807,0.0000066203,0.0002065476
3503,10.1021/ja400069s,105,6(a),393,Pb0.95Ba0.04Na0.01Se1,Pb0.95Ba0.04Na0.01Se1,373.5,150800,0.00046355,0.00004809,2.2381,0.059004,0.0000066313,0.0002071176
3503,10.1021/ja400069s,105,6(a),393,Pb0.95Ba0.04Na0.01Se1,Pb0.95Ba0.04Na0.01Se1,374,150540,0.00046432,0.000048205,2.2356,0.059937,0.0000066428,0.0002076937
3503,10.1021/ja400069s,105,6(a),393,Pb0.95Ba0.04Na0.01Se1,Pb0.95Ba0.04Na0.01Se1,374.5,150290,0.0004651,0.000048321,2.2332,0.060871,0.0000066538,0.0002082662
3503,10.1021/ja400069s,105,6(a),393,Pb0.95Ba0.04Na0.01Se1,Pb0.95Ba0.04Na0.01Se1,375,150040,0.00046587,0.000048437,2.2307,0.061805,0.0000066649,0.0002088448
3503,10.1021/ja400069s,105,6(a),393,Pb0.95Ba0.04Na0.01Se1,Pb0.95Ba0.04Na0.01Se1,375.5,149780,0.00046665,0.000048553,2.2283,0.062739,0.0000066765,0.0002094197
3503,10.1021/ja400069s,105,6(a),393,Pb0.95Ba0.04Na0.01Se1,Pb0.95Ba0.04Na0.01Se1,376,149530,0.00046742,0.000048668,2.2258,0.063673,0.0000066876,0.0002100009
3503,10.1021/ja400069s,105,6(a),393,Pb0.95Ba0.04Na0.01Se1,Pb0.95Ba0.04Na0.01Se1,376.5,149280,0.0004682,0.000048784,2.2234,0.064607,0.0000066988,0.0002105784
3503,10.1021/ja400069s,105,6(a),393,Pb0.95Ba0.04Na0.01Se1,Pb0.95Ba0.04Na0.01Se1,377,149030,0.00046897,0.000048901,2.221,0.065541,0.0000067101,0.0002111526
3503,10.1021/ja400069s,105,6(a),393,Pb0.95Ba0.04Na0.01Se1,Pb0.95Ba0.04Na0.01Se1,377.5,148770,0.00046975,0.000049017,2.2185,0.066474,0.0000067218,0.0002117422
3503,10.1021/ja400069s,105,6(a),393,Pb0.95Ba0.04Na0.01Se1,Pb0.95Ba0.04Na0.01Se1,378,148520,0.00047052,0.000049133,2.2161,0.067408,0.0000067331,0.0002123189
3503,10.1021/ja400069s,105,6(a),393,Pb0.95Ba0.04Na0.01Se1,Pb0.95Ba0.04Na0.01Se1,378.5,148270,0.0004713,0.000049249,2.2137,0.068342,0.0000067445,0.0002129015
3503,10.1021/ja400069s,105,6(a),393,Pb0.95Ba0.04Na0.01Se1,Pb0.95Ba0.04Na0.01Se1,379,148020,0.00047207,0.000049366,2.2113,0.069276,0.0000067558,0.0002134808
3503,10.1021/ja400069s,105,6(a),393,Pb0.95Ba0.04Na0.01Se1,Pb0.95Ba0.04Na0.01Se1,379.5,147770,0.00047285,0.000049483,2.2088,0.07021,0.0000067673,0.0002140755
3503,10.1021/ja400069s,105,6(a),393,Pb0.95Ba0.04Na0.01Se1,Pb0.95Ba0.04Na0.01Se1,380,147520,0.00047362,0.000049599,2.2064,0.071144,0.0000067787,0.0002146574
3503,10.1021/ja400069s,105,6(a),393,Pb0.95Ba0.04Na0.01Se1,Pb0.95Ba0.04Na0.01Se1,380.5,147270,0.0004744,0.000049716,2.204,0.072077,0.0000067902,0.000215245
3503,10.1021/ja400069s,105,6(a),393,Pb0.95Ba0.04Na0.01Se1,Pb0.95Ba0.04Na0.01Se1,381,147020,0.00047517,0.000049833,2.2016,0.073011,0.0000068018,0.0002158294
3503,10.1021/ja400069s,105,6(a),393,Pb0.95Ba0.04Na0.01Se1,Pb0.95Ba0.04Na0.01Se1,381.5,146770,0.00047595,0.00004995,2.1992,0.073945,0.0000068134,0.0002164196
3503,10.1021/ja400069s,105,6(a),393,Pb0.95Ba0.04Na0.01Se1,Pb0.95Ba0.04Na0.01Se1,382,146520,0.00047672,0.000050067,2.1968,0.074879,0.000006825,0.0002170066
3503,10.1021/ja400069s,105,6(a),393,Pb0.95Ba0.04Na0.01Se1,Pb0.95Ba0.04Na0.01Se1,382.5,146280,0.0004775,0.000050184,2.1944,0.075813,0.0000068362,0.0002175993
3503,10.1021/ja400069s,105,6(a),393,Pb0.95Ba0.04Na0.01Se1,Pb0.95Ba0.04Na0.01Se1,383,146030,0.00047827,0.000050302,2.192,0.076747,0.0000068479,0.0002181889
3503,10.1021/ja400069s,105,6(a),393,Pb0.95Ba0.04Na0.01Se1,Pb0.95Ba0.04Na0.01Se1,383.5,145780,0.00047905,0.000050419,2.1896,0.07768,0.0000068597,0.0002187843
3503,10.1021/ja400069s,105,6(a),393,Pb0.95Ba0.04Na0.01Se1,Pb0.95Ba0.04Na0.01Se1,384,145530,0.00047983,0.000050537,2.1872,0.078614,0.0000068714,0.0002193809
3503,10.1021/ja400069s,105,6(a),393,Pb0.95Ba0.04Na0.01Se1,Pb0.95Ba0.04Na0.01Se1,384.5,145290,0.0004806,0.000050655,2.1849,0.079548,0.0000068828,0.0002199643
3503,10.1021/ja400069s,105,6(a),393,Pb0.95Ba0.04Na0.01Se1,Pb0.95Ba0.04Na0.01Se1,385,145040,0.00048138,0.000050772,2.1825,0.080482,0.0000068946,0.0002205636
3503,10.1021/ja400069s,105,6(a),393,Pb0.95Ba0.04Na0.01Se1,Pb0.95Ba0.04Na0.01Se1,385.5,144790,0.00048215,0.00005089,2.1801,0.081416,0.0000069066,0.0002211596
3503,10.1021/ja400069s,105,6(a),393,Pb0.95Ba0.04Na0.01Se1,Pb0.95Ba0.04Na0.01Se1,386,144550,0.00048293,0.000051009,2.1777,0.08235,0.000006918,0.0002217615
3503,10.1021/ja400069s,105,6(a),393,Pb0.95Ba0.04Na0.01Se1,Pb0.95Ba0.04Na0.01Se1,386.5,144300,0.0004837,0.000051127,2.1754,0.083284,0.00000693,0.0002223499
3503,10.1021/ja400069s,105,6(a),393,Pb0.95Ba0.04Na0.01Se1,Pb0.95Ba0.04Na0.01Se1,387,144060,0.00048448,0.000051245,2.173,0.084217,0.0000069416,0.0002229544
3503,10.1021/ja400069s,105,6(a),393,Pb0.95Ba0.04Na0.01Se1,Pb0.95Ba0.04Na0.01Se1,387.5,143810,0.00048525,0.000051364,2.1706,0.085151,0.0000069536,0.0002235557
3503,10.1021/ja400069s,105,6(a),393,Pb0.95Ba0.04Na0.01Se1,Pb0.95Ba0.04Na0.01Se1,388,143570,0.00048603,0.000051482,2.1683,0.086085,0.0000069652,0.0002241526
3503,10.1021/ja400069s,105,6(a),393,Pb0.95Ba0.04Na0.01Se1,Pb0.95Ba0.04Na0.01Se1,388.5,143330,0.0004868,0.000051601,2.1659,0.087019,0.0000069769,0.0002247565
3503,10.1021/ja400069s,105,6(a),393,Pb0.95Ba0.04Na0.01Se1,Pb0.95Ba0.04Na0.01Se1,389,143080,0.00048758,0.00005172,2.1636,0.087953,0.0000069891,0.0002253559
3503,10.1021/ja400069s,105,6(a),393,Pb0.95Ba0.04Na0.01Se1,Pb0.95Ba0.04Na0.01Se1,389.5,142840,0.00048835,0.000051839,2.1612,0.088887,0.0000070008,0.0002259624
3503,10.1021/ja400069s,105,6(a),393,Pb0.95Ba0.04Na0.01Se1,Pb0.95Ba0.04Na0.01Se1,390,142600,0.00048913,0.000051958,2.1589,0.08982,0.0000070126,0.0002265645
3503,10.1021/ja400069s,105,6(a),393,Pb0.95Ba0.04Na0.01Se1,Pb0.95Ba0.04Na0.01Se1,390.5,142350,0.0004899,0.000052077,2.1565,0.090754,0.0000070249,0.0002271737
3503,10.1021/ja400069s,105,6(a),393,Pb0.95Ba0.04Na0.01Se1,Pb0.95Ba0.04Na0.01Se1,391,142110,0.00049068,0.000052197,2.1542,0.091688,0.0000070368,0.0002277783
3503,10.1021/ja400069s,105,6(a),393,Pb0.95Ba0.04Na0.01Se1,Pb0.95Ba0.04Na0.01Se1,391.5,141870,0.00049145,0.000052316,2.1518,0.092622,0.0000070487,0.0002283902
3503,10.1021/ja400069s,105,6(a),393,Pb0.95Ba0.04Na0.01Se1,Pb0.95Ba0.04Na0.01Se1,392,141630,0.00049223,0.000052436,2.1495,0.093556,0.0000070607,0.0002289974
3503,10.1021/ja400069s,105,6(a),393,Pb0.95Ba0.04Na0.01Se1,Pb0.95Ba0.04Na0.01Se1,392.5,141390,0.000493,0.000052556,2.1472,0.09449,0.0000070726,0.0002296013
3503,10.1021/ja400069s,105,6(a),393,Pb0.95Ba0.04Na0.01Se1,Pb0.95Ba0.04Na0.01Se1,393,141140,0.00049378,0.000052676,2.1449,0.095424,0.0000070852,0.0002302112
3503,10.1021/ja400069s,105,6(a),393,Pb0.95Ba0.04Na0.01Se1,Pb0.95Ba0.04Na0.01Se1,393.5,140900,0.00049455,0.000052796,2.1425,0.096357,0.0000070972,0.0002308285
3503,10.1021/ja400069s,105,6(a),393,Pb0.95Ba0.04Na0.01Se1,Pb0.95Ba0.04Na0.01Se1,394,140660,0.00049533,0.000052916,2.1402,0.097291,0.0000071093,0.000231441
3503,10.1021/ja400069s,105,6(a),393,Pb0.95Ba0.04Na0.01Se1,Pb0.95Ba0.04Na0.01Se1,394.5,140420,0.0004961,0.000053036,2.1379,0.098225,0.0000071215,0.0002320501
3503,10.1021/ja400069s,105,6(a),393,Pb0.95Ba0.04Na0.01Se1,Pb0.95Ba0.04Na0.01Se1,395,140180,0.00049688,0.000053157,2.1356,0.099159,0.0000071337,0.0002326653
3503,10.1021/ja400069s,105,6(a),393,Pb0.95Ba0.04Na0.01Se1,Pb0.95Ba0.04Na0.01Se1,395.5,139940,0.00049766,0.000053278,2.1333,0.10009,0.0000071459,0.0002332818
3503,10.1021/ja400069s,105,6(a),393,Pb0.95Ba0.04Na0.01Se1,Pb0.95Ba0.04Na0.01Se1,396,139710,0.00049843,0.000053399,2.131,0.10103,0.0000071577,0.0002338949
3503,10.1021/ja400069s,105,6(a),393,Pb0.95Ba0.04Na0.01Se1,Pb0.95Ba0.04Na0.01Se1,396.5,139470,0.00049921,0.00005352,2.1287,0.10196,0.00000717,0.000234514
3503,10.1021/ja400069s,105,6(a),393,Pb0.95Ba0.04Na0.01Se1,Pb0.95Ba0.04Na0.01Se1,397,139230,0.00049998,0.000053641,2.1264,0.10289,0.0000071824,0.0002351298
3503,10.1021/ja400069s,105,6(a),393,Pb0.95Ba0.04Na0.01Se1,Pb0.95Ba0.04Na0.01Se1,397.5,138990,0.00050076,0.000053762,2.1241,0.10383,0.0000071948,0.0002357516
3503,10.1021/ja400069s,105,6(a),393,Pb0.95Ba0.04Na0.01Se1,Pb0.95Ba0.04Na0.01Se1,398,138750,0.00050153,0.000053884,2.1218,0.10476,0.0000072072,0.0002363701
3503,10.1021/ja400069s,105,6(a),393,Pb0.95Ba0.04Na0.01Se1,Pb0.95Ba0.04Na0.01Se1,398.5,138520,0.00050231,0.000054005,2.1195,0.1057,0.0000072192,0.0002369946
3503,10.1021/ja400069s,105,6(a),393,Pb0.95Ba0.04Na0.01Se1,Pb0.95Ba0.04Na0.01Se1,399,138280,0.00050308,0.000054127,2.1172,0.10663,0.0000072317,0.0002376157
3503,10.1021/ja400069s,105,6(a),393,Pb0.95Ba0.04Na0.01Se1,Pb0.95Ba0.04Na0.01Se1,399.5,138040,0.00050386,0.000054249,2.1149,0.10756,0.0000072443,0.0002382429
3503,10.1021/ja400069s,105,6(a),393,Pb0.95Ba0.04Na0.01Se1,Pb0.95Ba0.04Na0.01Se1,400,137810,0.00050463,0.000054371,2.1126,0.1085,0.0000072564,0.0002388668
3503,10.1021/ja400069s,105,6(a),393,Pb0.95Ba0.04Na0.01Se1,Pb0.95Ba0.04Na0.01Se1,400.5,137570,0.00050541,0.000054494,2.1103,0.10943,0.000007269,0.0002394968
3503,10.1021/ja400069s,105,6(a),393,Pb0.95Ba0.04Na0.01Se1,Pb0.95Ba0.04Na0.01Se1,401,137330,0.00050618,0.000054616,2.1081,0.11036,0.0000072817,0.0002401119
3503,10.1021/ja400069s,105,6(a),393,Pb0.95Ba0.04Na0.01Se1,Pb0.95Ba0.04Na0.01Se1,401.5,137100,0.00050696,0.000054739,2.1058,0.1113,0.0000072939,0.0002407446
3503,10.1021/ja400069s,105,6(a),393,Pb0.95Ba0.04Na0.01Se1,Pb0.95Ba0.04Na0.01Se1,402,136860,0.00050773,0.000054861,2.1035,0.11223,0.0000073067,0.0002413739
3503,10.1021/ja400069s,105,6(a),393,Pb0.95Ba0.04Na0.01Se1,Pb0.95Ba0.04Na0.01Se1,402.5,136630,0.00050851,0.000054984,2.1013,0.11317,0.000007319,0.0002419978
3503,10.1021/ja400069s,105,6(a),393,Pb0.95Ba0.04Na0.01Se1,Pb0.95Ba0.04Na0.01Se1,403,136390,0.00050928,0.000055108,2.099,0.1141,0.0000073319,0.0002426298
3503,10.1021/ja400069s,105,6(a),393,Pb0.95Ba0.04Na0.01Se1,Pb0.95Ba0.04Na0.01Se1,403.5,136160,0.00051006,0.000055231,2.0967,0.11503,0.0000073443,0.000243268
3503,10.1021/ja400069s,105,6(a),393,Pb0.95Ba0.04Na0.01Se1,Pb0.95Ba0.04Na0.01Se1,404,135930,0.00051083,0.000055354,2.0945,0.11597,0.0000073567,0.0002438911
3503,10.1021/ja400069s,105,6(a),393,Pb0.95Ba0.04Na0.01Se1,Pb0.95Ba0.04Na0.01Se1,404.5,135690,0.00051161,0.000055478,2.0922,0.1169,0.0000073697,0.0002445321
3503,10.1021/ja400069s,105,6(a),393,Pb0.95Ba0.04Na0.01Se1,Pb0.95Ba0.04Na0.01Se1,405,135460,0.00051238,0.000055602,2.09,0.11784,0.0000073823,0.0002451579
3503,10.1021/ja400069s,105,6(a),393,Pb0.95Ba0.04Na0.01Se1,Pb0.95Ba0.04Na0.01Se1,405.5,135230,0.00051316,0.000055726,2.0877,0.11877,0.0000073948,0.0002458016
3503,10.1021/ja400069s,105,6(a),393,Pb0.95Ba0.04Na0.01Se1,Pb0.95Ba0.04Na0.01Se1,406,135000,0.00051393,0.00005585,2.0855,0.1197,0.0000074074,0.0002464301
3503,10.1021/ja400069s,105,6(a),393,Pb0.95Ba0.04Na0.01Se1,Pb0.95Ba0.04Na0.01Se1,406.5,134760,0.00051471,0.000055974,2.0832,0.12064,0.0000074206,0.0002470766
3503,10.1021/ja400069s,105,6(a),393,Pb0.95Ba0.04Na0.01Se1,Pb0.95Ba0.04Na0.01Se1,407,134530,0.00051549,0.000056099,2.081,0.12157,0.0000074333,0.0002477126
3503,10.1021/ja400069s,105,6(a),393,Pb0.95Ba0.04Na0.01Se1,Pb0.95Ba0.04Na0.01Se1,407.5,134300,0.00051626,0.000056224,2.0788,0.1225,0.000007446,0.0002483452
3503,10.1021/ja400069s,105,6(a),393,Pb0.95Ba0.04Na0.01Se1,Pb0.95Ba0.04Na0.01Se1,408,134070,0.00051704,0.000056349,2.0765,0.12344,0.0000074588,0.0002489959
3503,10.1021/ja400069s,105,6(a),393,Pb0.95Ba0.04Na0.01Se1,Pb0.95Ba0.04Na0.01Se1,408.5,133840,0.00051781,0.000056474,2.0743,0.12437,0.0000074716,0.0002496312
3503,10.1021/ja400069s,105,6(a),393,Pb0.95Ba0.04Na0.01Se1,Pb0.95Ba0.04Na0.01Se1,409,133610,0.00051859,0.000056599,2.0721,0.12531,0.0000074845,0.0002502727
3503,10.1021/ja400069s,105,6(a),393,Pb0.95Ba0.04Na0.01Se1,Pb0.95Ba0.04Na0.01Se1,409.5,133380,0.00051936,0.000056725,2.0699,0.12624,0.0000074974,0.0002509107
3503,10.1021/ja400069s,105,6(a),393,Pb0.95Ba0.04Na0.01Se1,Pb0.95Ba0.04Na0.01Se1,410,133150,0.00052014,0.00005685,2.0676,0.12717,0.0000075103,0.000251567
3503,10.1021/ja400069s,105,6(a),393,Pb0.95Ba0.04Na0.01Se1,Pb0.95Ba0.04Na0.01Se1,410.5,132920,0.00052091,0.000056976,2.0654,0.12811,0.0000075233,0.0002522078
3503,10.1021/ja400069s,105,6(a),393,Pb0.95Ba0.04Na0.01Se1,Pb0.95Ba0.04Na0.01Se1,411,132690,0.00052169,0.000057102,2.0632,0.12904,0.0000075364,0.0002528548
3503,10.1021/ja400069s,105,6(a),393,Pb0.95Ba0.04Na0.01Se1,Pb0.95Ba0.04Na0.01Se1,411.5,132460,0.00052246,0.000057228,2.061,0.12998,0.0000075494,0.0002534983
3503,10.1021/ja400069s,105,6(a),393,Pb0.95Ba0.04Na0.01Se1,Pb0.95Ba0.04Na0.01Se1,412,132230,0.00052324,0.000057355,2.0588,0.13091,0.0000075626,0.000254148
3503,10.1021/ja400069s,105,6(a),393,Pb0.95Ba0.04Na0.01Se1,Pb0.95Ba0.04Na0.01Se1,412.5,132000,0.00052401,0.000057481,2.0566,0.13184,0.0000075758,0.0002547943
3503,10.1021/ja400069s,105,6(a),393,Pb0.95Ba0.04Na0.01Se1,Pb0.95Ba0.04Na0.01Se1,413,131770,0.00052479,0.000057608,2.0544,0.13278,0.000007589,0.0002554468
3503,10.1021/ja400069s,105,6(a),393,Pb0.95Ba0.04Na0.01Se1,Pb0.95Ba0.04Na0.01Se1,413.5,131550,0.00052556,0.000057735,2.0522,0.13371,0.0000076017,0.0002560959
3503,10.1021/ja400069s,105,6(a),393,Pb0.95Ba0.04Na0.01Se1,Pb0.95Ba0.04Na0.01Se1,414,131320,0.00052634,0.000057863,2.05,0.13464,0.000007615,0.0002567512
3503,10.1021/ja400069s,105,6(a),393,Pb0.95Ba0.04Na0.01Se1,Pb0.95Ba0.04Na0.01Se1,414.5,131090,0.00052711,0.00005799,2.0478,0.13558,0.0000076283,0.0002574031
3503,10.1021/ja400069s,105,6(a),393,Pb0.95Ba0.04Na0.01Se1,Pb0.95Ba0.04Na0.01Se1,415,130860,0.00052789,0.000058118,2.0456,0.13651,0.0000076418,0.0002580612
3503,10.1021/ja400069s,105,6(a),393,Pb0.95Ba0.04Na0.01Se1,Pb0.95Ba0.04Na0.01Se1,415.5,130640,0.00052866,0.000058245,2.0435,0.13745,0.0000076546,0.0002587032
3503,10.1021/ja400069s,105,6(a),393,Pb0.95Ba0.04Na0.01Se1,Pb0.95Ba0.04Na0.01Se1,416,130410,0.00052944,0.000058373,2.0413,0.13838,0.0000076681,0.0002593641
3503,10.1021/ja400069s,105,6(a),393,Pb0.95Ba0.04Na0.01Se1,Pb0.95Ba0.04Na0.01Se1,416.5,130190,0.00053021,0.000058502,2.0391,0.13931,0.0000076811,0.0002600216
3503,10.1021/ja400069s,105,6(a),393,Pb0.95Ba0.04Na0.01Se1,Pb0.95Ba0.04Na0.01Se1,417,129960,0.00053099,0.00005863,2.0369,0.14025,0.0000076947,0.0002606854
3503,10.1021/ja400069s,105,6(a),393,Pb0.95Ba0.04Na0.01Se1,Pb0.95Ba0.04Na0.01Se1,417.5,129730,0.00053176,0.000058759,2.0348,0.14118,0.0000077083,0.0002613328
3503,10.1021/ja400069s,105,6(a),393,Pb0.95Ba0.04Na0.01Se1,Pb0.95Ba0.04Na0.01Se1,418,129510,0.00053254,0.000058888,2.0326,0.14212,0.0000077214,0.0002619994
3503,10.1021/ja400069s,105,6(a),393,Pb0.95Ba0.04Na0.01Se1,Pb0.95Ba0.04Na0.01Se1,418.5,129290,0.00053332,0.000059017,2.0304,0.14305,0.0000077346,0.0002626675
3503,10.1021/ja400069s,105,6(a),393,Pb0.95Ba0.04Na0.01Se1,Pb0.95Ba0.04Na0.01Se1,419,129060,0.00053409,0.000059146,2.0283,0.14398,0.0000077483,0.000263319
3503,10.1021/ja400069s,105,6(a),393,Pb0.95Ba0.04Na0.01Se1,Pb0.95Ba0.04Na0.01Se1,419.5,128840,0.00053487,0.000059275,2.0261,0.14492,0.0000077616,0.0002639899
3503,10.1021/ja400069s,105,6(a),393,Pb0.95Ba0.04Na0.01Se1,Pb0.95Ba0.04Na0.01Se1,420,128610,0.00053564,0.000059405,2.024,0.14585,0.0000077754,0.0002646443
3503,10.1021/ja400069s,105,6(a),393,Pb0.95Ba0.04Na0.01Se1,Pb0.95Ba0.04Na0.01Se1,420.5,128390,0.00053642,0.000059535,2.0218,0.14678,0.0000077888,0.000265318
3503,10.1021/ja400069s,105,6(a),393,Pb0.95Ba0.04Na0.01Se1,Pb0.95Ba0.04Na0.01Se1,421,128170,0.00053719,0.000059665,2.0197,0.14772,0.0000078021,0.0002659751
3503,10.1021/ja400069s,105,6(a),393,Pb0.95Ba0.04Na0.01Se1,Pb0.95Ba0.04Na0.01Se1,421.5,127940,0.00053797,0.000059795,2.0175,0.14865,0.0000078162,0.0002666518
3503,10.1021/ja400069s,105,6(a),393,Pb0.95Ba0.04Na0.01Se1,Pb0.95Ba0.04Na0.01Se1,422,127720,0.00053874,0.000059926,2.0154,0.14959,0.0000078296,0.0002673117
3503,10.1021/ja400069s,105,6(a),393,Pb0.95Ba0.04Na0.01Se1,Pb0.95Ba0.04Na0.01Se1,422.5,127500,0.00053952,0.000060057,2.0132,0.15052,0.0000078431,0.0002679913
3503,10.1021/ja400069s,105,6(a),393,Pb0.95Ba0.04Na0.01Se1,Pb0.95Ba0.04Na0.01Se1,423,127280,0.00054029,0.000060187,2.0111,0.15145,0.0000078567,0.000268654
3503,10.1021/ja400069s,105,6(a),393,Pb0.95Ba0.04Na0.01Se1,Pb0.95Ba0.04Na0.01Se1,423.5,127050,0.00054107,0.000060319,2.009,0.15239,0.0000078709,0.000269323
3503,10.1021/ja400069s,105,6(a),393,Pb0.95Ba0.04Na0.01Se1,Pb0.95Ba0.04Na0.01Se1,424,126830,0.00054184,0.00006045,2.0068,0.15332,0.0000078846,0.000270002
3503,10.1021/ja400069s,105,6(a),393,Pb0.95Ba0.04Na0.01Se1,Pb0.95Ba0.04Na0.01Se1,424.5,126610,0.00054262,0.000060582,2.0047,0.15426,0.0000078983,0.0002706739
3503,10.1021/ja400069s,105,6(a),393,Pb0.95Ba0.04Na0.01Se1,Pb0.95Ba0.04Na0.01Se1,425,126390,0.00054339,0.000060713,2.0026,0.15519,0.000007912,0.0002713423
3503,10.1021/ja400069s,105,6(a),393,Pb0.95Ba0.04Na0.01Se1,Pb0.95Ba0.04Na0.01Se1,425.5,126170,0.00054417,0.000060845,2.0005,0.15612,0.0000079258,0.000272017
3503,10.1021/ja400069s,105,6(a),393,Pb0.95Ba0.04Na0.01Se1,Pb0.95Ba0.04Na0.01Se1,426,125950,0.00054494,0.000060978,1.9983,0.15706,0.0000079397,0.0002727018
3503,10.1021/ja400069s,105,6(a),393,Pb0.95Ba0.04Na0.01Se1,Pb0.95Ba0.04Na0.01Se1,426.5,125730,0.00054572,0.00006111,1.9962,0.15799,0.0000079536,0.0002733794
3503,10.1021/ja400069s,105,6(a),393,Pb0.95Ba0.04Na0.01Se1,Pb0.95Ba0.04Na0.01Se1,427,125510,0.00054649,0.000061243,1.9941,0.15892,0.0000079675,0.0002740535
3503,10.1021/ja400069s,105,6(a),393,Pb0.95Ba0.04Na0.01Se1,Pb0.95Ba0.04Na0.01Se1,427.5,125290,0.00054727,0.000061376,1.992,0.15986,0.0000079815,0.0002747339
3503,10.1021/ja400069s,105,6(a),393,Pb0.95Ba0.04Na0.01Se1,Pb0.95Ba0.04Na0.01Se1,428,125070,0.00054804,0.000061509,1.9899,0.16079,0.0000079955,0.0002754108
3503,10.1021/ja400069s,105,6(a),393,Pb0.95Ba0.04Na0.01Se1,Pb0.95Ba0.04Na0.01Se1,428.5,124850,0.00054882,0.000061642,1.9878,0.16173,0.0000080096,0.0002760942
3503,10.1021/ja400069s,105,6(a),393,Pb0.95Ba0.04Na0.01Se1,Pb0.95Ba0.04Na0.01Se1,429,124640,0.00054959,0.000061776,1.9857,0.16266,0.0000080231,0.0002767739
3503,10.1021/ja400069s,105,6(a),393,Pb0.95Ba0.04Na0.01Se1,Pb0.95Ba0.04Na0.01Se1,429.5,124420,0.00055037,0.00006191,1.9836,0.16359,0.0000080373,0.0002774602
3503,10.1021/ja400069s,105,6(a),393,Pb0.95Ba0.04Na0.01Se1,Pb0.95Ba0.04Na0.01Se1,430,124200,0.00055115,0.000062044,1.9815,0.16453,0.0000080515,0.0002781479