sid,DOI,figureid,fignum,sampleid,samplename,composition,Temperature,Electrical conductivity,Power factor,Seebeck coefficient,Thermal conductivity,ZT,Electrical resistivity,Figure of merit Z
3503,10.1021/ja400069s,105,6(a),286,Pb0.98Sr0.01Na0.01Se1,Pb0.98Sr0.01Na0.01Se1,747.5,47412,0.0011901,0.00016848,1.3667,0.6918,0.0000210917,0.0008707836
3503,10.1021/ja400069s,105,6(a),286,Pb0.98Sr0.01Na0.01Se1,Pb0.98Sr0.01Na0.01Se1,748,47312,0.0011911,0.00016871,1.3654,0.69278,0.0000211363,0.0008723451
3503,10.1021/ja400069s,105,6(a),286,Pb0.98Sr0.01Na0.01Se1,Pb0.98Sr0.01Na0.01Se1,748.5,47212,0.0011922,0.00016893,1.3641,0.69375,0.0000211811,0.0008739828
3503,10.1021/ja400069s,105,6(a),286,Pb0.98Sr0.01Na0.01Se1,Pb0.98Sr0.01Na0.01Se1,749,47113,0.0011932,0.00016916,1.3628,0.69473,0.0000212256,0.0008755503
3503,10.1021/ja400069s,105,6(a),286,Pb0.98Sr0.01Na0.01Se1,Pb0.98Sr0.01Na0.01Se1,749.5,47015,0.0011942,0.00016939,1.3615,0.6957,0.0000212698,0.0008771208
3503,10.1021/ja400069s,105,6(a),286,Pb0.98Sr0.01Na0.01Se1,Pb0.98Sr0.01Na0.01Se1,750,46916,0.0011952,0.00016961,1.3602,0.69667,0.0000213147,0.0008786943
3503,10.1021/ja400069s,105,6(a),286,Pb0.98Sr0.01Na0.01Se1,Pb0.98Sr0.01Na0.01Se1,750.5,46819,0.0011962,0.00016984,1.3589,0.69765,0.0000213589,0.0008802708
3503,10.1021/ja400069s,105,6(a),286,Pb0.98Sr0.01Na0.01Se1,Pb0.98Sr0.01Na0.01Se1,751,46721,0.0011972,0.00017007,1.3576,0.69862,0.0000214037,0.0008818503
3503,10.1021/ja400069s,105,6(a),286,Pb0.98Sr0.01Na0.01Se1,Pb0.98Sr0.01Na0.01Se1,751.5,46624,0.0011983,0.00017029,1.3563,0.6996,0.0000214482,0.0008835066
3503,10.1021/ja400069s,105,6(a),286,Pb0.98Sr0.01Na0.01Se1,Pb0.98Sr0.01Na0.01Se1,752,46528,0.0011993,0.00017052,1.355,0.70057,0.0000214924,0.0008850923
3503,10.1021/ja400069s,105,6(a),286,Pb0.98Sr0.01Na0.01Se1,Pb0.98Sr0.01Na0.01Se1,752.5,46432,0.0012003,0.00017075,1.3538,0.70155,0.0000215369,0.0008866155
3503,10.1021/ja400069s,105,6(a),286,Pb0.98Sr0.01Na0.01Se1,Pb0.98Sr0.01Na0.01Se1,753,46336,0.0012013,0.00017097,1.3525,0.70252,0.0000215815,0.000888207
3503,10.1021/ja400069s,105,6(a),286,Pb0.98Sr0.01Na0.01Se1,Pb0.98Sr0.01Na0.01Se1,753.5,46241,0.0012023,0.0001712,1.3512,0.7035,0.0000216258,0.0008898017
3503,10.1021/ja400069s,105,6(a),286,Pb0.98Sr0.01Na0.01Se1,Pb0.98Sr0.01Na0.01Se1,754,46146,0.0012033,0.00017143,1.3499,0.70447,0.0000216704,0.0008913994
3503,10.1021/ja400069s,105,6(a),286,Pb0.98Sr0.01Na0.01Se1,Pb0.98Sr0.01Na0.01Se1,754.5,46052,0.0012043,0.00017166,1.3486,0.70545,0.0000217146,0.0008930001
3503,10.1021/ja400069s,105,6(a),286,Pb0.98Sr0.01Na0.01Se1,Pb0.98Sr0.01Na0.01Se1,755,45958,0.0012054,0.00017188,1.3474,0.70642,0.000021759,0.0008946118
3503,10.1021/ja400069s,105,6(a),286,Pb0.98Sr0.01Na0.01Se1,Pb0.98Sr0.01Na0.01Se1,755.5,45865,0.0012064,0.00017211,1.3461,0.7074,0.0000218031,0.0008962187
3503,10.1021/ja400069s,105,6(a),286,Pb0.98Sr0.01Na0.01Se1,Pb0.98Sr0.01Na0.01Se1,756,45772,0.0012074,0.00017234,1.3448,0.70837,0.0000218474,0.0008978287
3503,10.1021/ja400069s,105,6(a),286,Pb0.98Sr0.01Na0.01Se1,Pb0.98Sr0.01Na0.01Se1,756.5,45679,0.0012084,0.00017257,1.3436,0.70935,0.0000218919,0.0008993748
3503,10.1021/ja400069s,105,6(a),286,Pb0.98Sr0.01Na0.01Se1,Pb0.98Sr0.01Na0.01Se1,757,45587,0.0012094,0.00017279,1.3423,0.71032,0.0000219361,0.0009009908
3503,10.1021/ja400069s,105,6(a),286,Pb0.98Sr0.01Na0.01Se1,Pb0.98Sr0.01Na0.01Se1,757.5,45495,0.0012104,0.00017302,1.3411,0.7113,0.0000219804,0.0009025427
3503,10.1021/ja400069s,105,6(a),286,Pb0.98Sr0.01Na0.01Se1,Pb0.98Sr0.01Na0.01Se1,758,45404,0.0012115,0.00017325,1.3398,0.71227,0.0000220245,0.0009042394
3503,10.1021/ja400069s,105,6(a),286,Pb0.98Sr0.01Na0.01Se1,Pb0.98Sr0.01Na0.01Se1,758.5,45313,0.0012125,0.00017348,1.3386,0.71325,0.0000220687,0.0009057971
3503,10.1021/ja400069s,105,6(a),286,Pb0.98Sr0.01Na0.01Se1,Pb0.98Sr0.01Na0.01Se1,759,45223,0.0012135,0.0001737,1.3373,0.71422,0.0000221126,0.0009074254
3503,10.1021/ja400069s,105,6(a),286,Pb0.98Sr0.01Na0.01Se1,Pb0.98Sr0.01Na0.01Se1,759.5,45133,0.0012145,0.00017393,1.3361,0.7152,0.0000221567,0.0009089888
3503,10.1021/ja400069s,105,6(a),286,Pb0.98Sr0.01Na0.01Se1,Pb0.98Sr0.01Na0.01Se1,760,45044,0.0012155,0.00017416,1.3349,0.71617,0.0000222005,0.0009105551
3503,10.1021/ja400069s,105,6(a),286,Pb0.98Sr0.01Na0.01Se1,Pb0.98Sr0.01Na0.01Se1,760.5,44955,0.0012165,0.00017439,1.3336,0.71715,0.0000222445,0.0009121926
3503,10.1021/ja400069s,105,6(a),286,Pb0.98Sr0.01Na0.01Se1,Pb0.98Sr0.01Na0.01Se1,761,44866,0.0012175,0.00017462,1.3324,0.71812,0.0000222886,0.0009137646
3503,10.1021/ja400069s,105,6(a),286,Pb0.98Sr0.01Na0.01Se1,Pb0.98Sr0.01Na0.01Se1,761.5,44778,0.0012186,0.00017484,1.3312,0.7191,0.0000223324,0.0009154147
3503,10.1021/ja400069s,105,6(a),286,Pb0.98Sr0.01Na0.01Se1,Pb0.98Sr0.01Na0.01Se1,762,44691,0.0012196,0.00017507,1.3299,0.72007,0.0000223759,0.0009170614
3503,10.1021/ja400069s,105,6(a),286,Pb0.98Sr0.01Na0.01Se1,Pb0.98Sr0.01Na0.01Se1,762.5,,0.0012206,0.0001753,1.3287,0.72105,,0.0009186423
3503,10.1021/ja400069s,105,6(a),286,Pb0.98Sr0.01Na0.01Se1,Pb0.98Sr0.01Na0.01Se1,763,,0.0012216,0.00017553,1.3275,0.72202,,0.000920226
3503,10.1021/ja400069s,105,6(a),286,Pb0.98Sr0.01Na0.01Se1,Pb0.98Sr0.01Na0.01Se1,763.5,,0.0012226,0.00017576,1.3263,0.723,,0.0009218126
3503,10.1021/ja400069s,105,6(a),286,Pb0.98Sr0.01Na0.01Se1,Pb0.98Sr0.01Na0.01Se1,764,,0.0012236,0.00017599,1.3251,0.72397,,0.000923402
3503,10.1021/ja400069s,105,6(a),286,Pb0.98Sr0.01Na0.01Se1,Pb0.98Sr0.01Na0.01Se1,764.5,,0.0012246,0.00017621,1.3238,0.72494,,0.0009250642
3503,10.1021/ja400069s,105,6(a),286,Pb0.98Sr0.01Na0.01Se1,Pb0.98Sr0.01Na0.01Se1,765,,0.0012257,0.00017644,1.3226,0.72592,,0.0009267352
3503,10.1021/ja400069s,105,6(a),286,Pb0.98Sr0.01Na0.01Se1,Pb0.98Sr0.01Na0.01Se1,765.5,,0.0012267,0.00017667,1.3214,0.72689,,0.0009283336
3503,10.1021/ja400069s,105,6(a),286,Pb0.98Sr0.01Na0.01Se1,Pb0.98Sr0.01Na0.01Se1,766,,0.0012277,0.0001769,1.3202,0.72787,,0.0009299349
3503,10.1021/ja400069s,105,6(a),286,Pb0.98Sr0.01Na0.01Se1,Pb0.98Sr0.01Na0.01Se1,766.5,,0.0012287,0.00017713,1.319,0.72884,,0.000931539
3503,10.1021/ja400069s,105,6(a),286,Pb0.98Sr0.01Na0.01Se1,Pb0.98Sr0.01Na0.01Se1,767,,0.0012297,0.00017736,1.3178,0.72982,,0.0009331462
3503,10.1021/ja400069s,105,6(a),286,Pb0.98Sr0.01Na0.01Se1,Pb0.98Sr0.01Na0.01Se1,767.5,,0.0012307,0.00017759,1.3166,0.73079,,0.0009347562
3503,10.1021/ja400069s,105,6(a),286,Pb0.98Sr0.01Na0.01Se1,Pb0.98Sr0.01Na0.01Se1,768,,0.0012318,0.00017782,1.3155,0.73177,,0.000936374
3503,10.1021/ja400069s,105,6(a),286,Pb0.98Sr0.01Na0.01Se1,Pb0.98Sr0.01Na0.01Se1,768.5,,0.0012328,0.00017805,1.3143,0.73274,,0.0009379898
3503,10.1021/ja400069s,105,6(a),286,Pb0.98Sr0.01Na0.01Se1,Pb0.98Sr0.01Na0.01Se1,769,,0.0012338,0.00017828,1.3131,0.73372,,0.0009396086
3503,10.1021/ja400069s,105,6(a),286,Pb0.98Sr0.01Na0.01Se1,Pb0.98Sr0.01Na0.01Se1,769.5,,0.0012348,0.00017851,1.3119,0.73469,,0.0009412303
3503,10.1021/ja400069s,105,6(a),286,Pb0.98Sr0.01Na0.01Se1,Pb0.98Sr0.01Na0.01Se1,770,,0.0012358,0.00017873,1.3107,0.73567,,0.000942855
3503,10.1021/ja400069s,105,6(a),286,Pb0.98Sr0.01Na0.01Se1,Pb0.98Sr0.01Na0.01Se1,770.5,,0.0012368,0.00017896,1.3096,0.73664,,0.0009444105
3503,10.1021/ja400069s,105,6(a),286,Pb0.98Sr0.01Na0.01Se1,Pb0.98Sr0.01Na0.01Se1,771,,0.0012378,0.00017919,1.3084,0.73762,,0.000946041
3503,10.1021/ja400069s,105,6(a),286,Pb0.98Sr0.01Na0.01Se1,Pb0.98Sr0.01Na0.01Se1,771.5,,0.0012389,0.00017942,1.3072,0.73859,,0.0009477509
3503,10.1021/ja400069s,105,6(a),286,Pb0.98Sr0.01Na0.01Se1,Pb0.98Sr0.01Na0.01Se1,772,,0.0012399,0.00017965,1.3061,0.73957,,0.0009493148
3503,10.1021/ja400069s,105,6(a),286,Pb0.98Sr0.01Na0.01Se1,Pb0.98Sr0.01Na0.01Se1,772.5,,0.0012409,0.00017988,1.3049,0.74054,,0.0009509541
3503,10.1021/ja400069s,105,6(a),286,Pb0.98Sr0.01Na0.01Se1,Pb0.98Sr0.01Na0.01Se1,773,,0.0012419,0.00018011,1.3037,0.74152,,0.0009525965
3503,10.1021/ja400069s,105,6(a),286,Pb0.98Sr0.01Na0.01Se1,Pb0.98Sr0.01Na0.01Se1,773.5,,0.0012429,0.00018034,1.3026,0.74249,,0.0009541686
3503,10.1021/ja400069s,105,6(a),286,Pb0.98Sr0.01Na0.01Se1,Pb0.98Sr0.01Na0.01Se1,774,,0.0012439,0.00018057,1.3014,0.74347,,0.0009558168
3503,10.1021/ja400069s,105,6(a),286,Pb0.98Sr0.01Na0.01Se1,Pb0.98Sr0.01Na0.01Se1,774.5,,0.001245,0.0001808,1.3003,0.74444,,0.0009574714
3503,10.1021/ja400069s,105,6(a),286,Pb0.98Sr0.01Na0.01Se1,Pb0.98Sr0.01Na0.01Se1,775,,0.001246,0.00018103,1.2991,0.74542,,0.0009591255
3503,10.1021/ja400069s,105,6(a),286,Pb0.98Sr0.01Na0.01Se1,Pb0.98Sr0.01Na0.01Se1,775.5,,0.001247,0.00018126,1.298,0.74639,,0.0009607088
3503,10.1021/ja400069s,105,6(a),286,Pb0.98Sr0.01Na0.01Se1,Pb0.98Sr0.01Na0.01Se1,776,,0.001248,0.0001815,1.2968,0.74737,,0.0009623689
3503,10.1021/ja400069s,105,6(a),286,Pb0.98Sr0.01Na0.01Se1,Pb0.98Sr0.01Na0.01Se1,776.5,,0.001249,0.00018173,1.2957,0.74834,,0.0009639577
3503,10.1021/ja400069s,105,6(a),286,Pb0.98Sr0.01Na0.01Se1,Pb0.98Sr0.01Na0.01Se1,777,,0.00125,0.00018196,1.2946,0.74932,,0.0009655492
3503,10.1021/ja400069s,105,6(a),286,Pb0.98Sr0.01Na0.01Se1,Pb0.98Sr0.01Na0.01Se1,777.5,,0.001251,0.00018219,1.2934,0.75029,,0.0009672182
3503,10.1021/ja400069s,105,6(a),286,Pb0.98Sr0.01Na0.01Se1,Pb0.98Sr0.01Na0.01Se1,778,,0.0012521,0.00018242,1.2923,0.75127,,0.0009688927
3503,10.1021/ja400069s,105,6(a),286,Pb0.98Sr0.01Na0.01Se1,Pb0.98Sr0.01Na0.01Se1,778.5,,0.0012531,0.00018265,1.2912,0.75224,,0.0009704926
3503,10.1021/ja400069s,105,6(a),286,Pb0.98Sr0.01Na0.01Se1,Pb0.98Sr0.01Na0.01Se1,779,,0.0012541,0.00018288,1.2901,0.75321,,0.0009720952
3503,10.1021/ja400069s,105,6(a),286,Pb0.98Sr0.01Na0.01Se1,Pb0.98Sr0.01Na0.01Se1,779.5,,0.0012551,0.00018311,1.289,0.75419,,0.0009737005
3503,10.1021/ja400069s,105,6(a),286,Pb0.98Sr0.01Na0.01Se1,Pb0.98Sr0.01Na0.01Se1,780,,0.0012561,0.00018334,1.2878,0.75516,,0.0009753844
3503,10.1021/ja400069s,105,6(a),286,Pb0.98Sr0.01Na0.01Se1,Pb0.98Sr0.01Na0.01Se1,780.5,,0.0012571,0.00018357,1.2867,0.75614,,0.0009769954
3503,10.1021/ja400069s,105,6(a),286,Pb0.98Sr0.01Na0.01Se1,Pb0.98Sr0.01Na0.01Se1,781,,0.0012582,0.0001838,1.2856,0.75711,,0.000978687
3503,10.1021/ja400069s,105,6(a),286,Pb0.98Sr0.01Na0.01Se1,Pb0.98Sr0.01Na0.01Se1,781.5,,0.0012592,0.00018404,1.2845,0.75809,,0.0009803036
3503,10.1021/ja400069s,105,6(a),286,Pb0.98Sr0.01Na0.01Se1,Pb0.98Sr0.01Na0.01Se1,782,,0.0012602,0.00018427,1.2834,0.75906,,0.000981923
3503,10.1021/ja400069s,105,6(a),286,Pb0.98Sr0.01Na0.01Se1,Pb0.98Sr0.01Na0.01Se1,782.5,,0.0012612,0.0001845,1.2823,0.76004,,0.0009835452
3503,10.1021/ja400069s,105,6(a),286,Pb0.98Sr0.01Na0.01Se1,Pb0.98Sr0.01Na0.01Se1,783,,0.0012622,0.00018473,1.2812,0.76101,,0.0009851702
3503,10.1021/ja400069s,105,6(a),286,Pb0.98Sr0.01Na0.01Se1,Pb0.98Sr0.01Na0.01Se1,783.5,,0.0012632,0.00018496,1.2801,0.76199,,0.0009867979
3503,10.1021/ja400069s,105,6(a),286,Pb0.98Sr0.01Na0.01Se1,Pb0.98Sr0.01Na0.01Se1,784,,0.0012642,0.00018519,1.279,0.76296,,0.0009884285
3503,10.1021/ja400069s,105,6(a),286,Pb0.98Sr0.01Na0.01Se1,Pb0.98Sr0.01Na0.01Se1,784.5,,0.0012653,0.00018543,1.2779,0.76394,,0.0009901401
3503,10.1021/ja400069s,105,6(a),286,Pb0.98Sr0.01Na0.01Se1,Pb0.98Sr0.01Na0.01Se1,785,,0.0012663,0.00018566,1.2768,0.76491,,0.0009917763
3503,10.1021/ja400069s,105,6(a),286,Pb0.98Sr0.01Na0.01Se1,Pb0.98Sr0.01Na0.01Se1,785.5,,0.0012673,0.00018589,1.2758,0.76589,,0.0009933375
3503,10.1021/ja400069s,105,6(a),286,Pb0.98Sr0.01Na0.01Se1,Pb0.98Sr0.01Na0.01Se1,786,,0.0012683,0.00018612,1.2747,0.76686,,0.0009949792
3503,10.1021/ja400069s,105,6(a),286,Pb0.98Sr0.01Na0.01Se1,Pb0.98Sr0.01Na0.01Se1,786.5,,0.0012693,0.00018635,1.2736,0.76784,,0.0009966237
3503,10.1021/ja400069s,105,6(a),286,Pb0.98Sr0.01Na0.01Se1,Pb0.98Sr0.01Na0.01Se1,787,,0.0012703,0.00018659,1.2725,0.76881,,0.0009982711
3503,10.1021/ja400069s,105,6(a),286,Pb0.98Sr0.01Na0.01Se1,Pb0.98Sr0.01Na0.01Se1,787.5,,0.0012714,0.00018682,1.2715,0.76979,,0.0009999214
3503,10.1021/ja400069s,105,6(a),286,Pb0.98Sr0.01Na0.01Se1,Pb0.98Sr0.01Na0.01Se1,788,,0.0012724,0.00018705,1.2704,0.77076,,0.0010015743
3503,10.1021/ja400069s,105,6(a),286,Pb0.98Sr0.01Na0.01Se1,Pb0.98Sr0.01Na0.01Se1,788.5,,0.0012734,0.00018728,1.2693,0.77174,,0.0010032301
3503,10.1021/ja400069s,105,6(a),286,Pb0.98Sr0.01Na0.01Se1,Pb0.98Sr0.01Na0.01Se1,789,,0.0012744,0.00018752,1.2683,0.77271,,0.0010048096
3503,10.1021/ja400069s,105,6(a),286,Pb0.98Sr0.01Na0.01Se1,Pb0.98Sr0.01Na0.01Se1,789.5,,0.0012754,0.00018775,1.2672,0.77369,,0.001006471
3503,10.1021/ja400069s,105,6(a),286,Pb0.98Sr0.01Na0.01Se1,Pb0.98Sr0.01Na0.01Se1,790,,0.0012764,0.00018798,1.2662,0.77466,,0.0010080556
3503,10.1021/ja400069s,105,6(a),286,Pb0.98Sr0.01Na0.01Se1,Pb0.98Sr0.01Na0.01Se1,790.5,,0.0012774,0.00018822,1.2651,0.77564,,0.0010097226
3503,10.1021/ja400069s,105,6(a),286,Pb0.98Sr0.01Na0.01Se1,Pb0.98Sr0.01Na0.01Se1,791,,0.0012785,0.00018845,1.2641,0.77661,,0.0010113915
3503,10.1021/ja400069s,105,6(a),286,Pb0.98Sr0.01Na0.01Se1,Pb0.98Sr0.01Na0.01Se1,791.5,,0.0012795,0.00018868,1.263,0.77759,,0.0010130641
3503,10.1021/ja400069s,105,6(a),286,Pb0.98Sr0.01Na0.01Se1,Pb0.98Sr0.01Na0.01Se1,792,,0.0012805,0.00018892,1.262,0.77856,,0.0010146593
3503,10.1021/ja400069s,105,6(a),286,Pb0.98Sr0.01Na0.01Se1,Pb0.98Sr0.01Na0.01Se1,792.5,,0.0012815,0.00018915,1.2609,0.77954,,0.0010163375
3503,10.1021/ja400069s,105,6(a),286,Pb0.98Sr0.01Na0.01Se1,Pb0.98Sr0.01Na0.01Se1,793,,0.0012825,0.00018938,1.2599,0.78051,,0.0010179379
3503,10.1021/ja400069s,105,6(a),286,Pb0.98Sr0.01Na0.01Se1,Pb0.98Sr0.01Na0.01Se1,793.5,,0.0012835,0.00018962,1.2589,0.78149,,0.0010195409
3503,10.1021/ja400069s,105,6(a),286,Pb0.98Sr0.01Na0.01Se1,Pb0.98Sr0.01Na0.01Se1,794,,0.0012846,0.00018985,1.2578,0.78246,,0.001021307
3503,10.1021/ja400069s,105,6(a),286,Pb0.98Sr0.01Na0.01Se1,Pb0.98Sr0.01Na0.01Se1,794.5,,0.0012856,0.00019008,1.2568,0.78343,,0.0010229153
3503,10.1021/ja400069s,105,6(a),286,Pb0.98Sr0.01Na0.01Se1,Pb0.98Sr0.01Na0.01Se1,795,,0.0012866,0.00019032,1.2558,0.78441,,0.0010245262
3503,10.1021/ja400069s,105,6(a),286,Pb0.98Sr0.01Na0.01Se1,Pb0.98Sr0.01Na0.01Se1,795.5,,0.0012876,0.00019055,1.2548,0.78538,,0.0010261396
3503,10.1021/ja400069s,105,6(a),286,Pb0.98Sr0.01Na0.01Se1,Pb0.98Sr0.01Na0.01Se1,796,,0.0012886,0.00019079,1.2538,0.78636,,0.0010277556
3503,10.1021/ja400069s,105,6(a),286,Pb0.98Sr0.01Na0.01Se1,Pb0.98Sr0.01Na0.01Se1,796.5,,0.0012896,0.00019102,1.2527,0.78733,,0.0010294564
3503,10.1021/ja400069s,105,6(a),286,Pb0.98Sr0.01Na0.01Se1,Pb0.98Sr0.01Na0.01Se1,797,,0.0012906,0.00019125,1.2517,0.78831,,0.0010310777
3503,10.1021/ja400069s,105,6(a),286,Pb0.98Sr0.01Na0.01Se1,Pb0.98Sr0.01Na0.01Se1,797.5,,0.0012917,0.00019149,1.2507,0.78928,,0.0010327816
3503,10.1021/ja400069s,105,6(a),286,Pb0.98Sr0.01Na0.01Se1,Pb0.98Sr0.01Na0.01Se1,798,,0.0012927,0.00019172,1.2497,0.79026,,0.0010344083
3503,10.1021/ja400069s,105,6(a),286,Pb0.98Sr0.01Na0.01Se1,Pb0.98Sr0.01Na0.01Se1,798.5,,0.0012937,0.00019196,1.2487,0.79123,,0.0010360375
3503,10.1021/ja400069s,105,6(a),286,Pb0.98Sr0.01Na0.01Se1,Pb0.98Sr0.01Na0.01Se1,799,,0.0012947,0.00019219,1.2477,0.79221,,0.0010376693
3503,10.1021/ja400069s,105,6(a),286,Pb0.98Sr0.01Na0.01Se1,Pb0.98Sr0.01Na0.01Se1,799.5,,0.0012957,0.00019243,1.2467,0.79318,,0.0010393038
3503,10.1021/ja400069s,105,6(a),286,Pb0.98Sr0.01Na0.01Se1,Pb0.98Sr0.01Na0.01Se1,800,,0.0012967,0.00019266,1.2457,0.79416,,0.0010409408
3503,10.1021/ja400069s,105,6(a),286,Pb0.98Sr0.01Na0.01Se1,Pb0.98Sr0.01Na0.01Se1,800.5,,0.0012978,0.0001929,1.2447,0.79513,,0.0010426609
3503,10.1021/ja400069s,105,6(a),286,Pb0.98Sr0.01Na0.01Se1,Pb0.98Sr0.01Na0.01Se1,801,,0.0012988,0.00019313,1.2438,0.79611,,0.0010442193
3503,10.1021/ja400069s,105,6(a),286,Pb0.98Sr0.01Na0.01Se1,Pb0.98Sr0.01Na0.01Se1,801.5,,0.0012998,0.00019337,1.2428,0.79708,,0.0010458642
3503,10.1021/ja400069s,105,6(a),286,Pb0.98Sr0.01Na0.01Se1,Pb0.98Sr0.01Na0.01Se1,802,,0.0013008,0.0001936,1.2418,0.79806,,0.0010475117
3503,10.1021/ja400069s,105,6(a),286,Pb0.98Sr0.01Na0.01Se1,Pb0.98Sr0.01Na0.01Se1,802.5,,0.0013018,0.00019384,1.2408,0.79903,,0.0010491618
3503,10.1021/ja400069s,105,6(a),286,Pb0.98Sr0.01Na0.01Se1,Pb0.98Sr0.01Na0.01Se1,803,,0.0013028,0.00019407,1.2398,0.80001,,0.0010508146
3503,10.1021/ja400069s,105,6(a),286,Pb0.98Sr0.01Na0.01Se1,Pb0.98Sr0.01Na0.01Se1,803.5,,0.0013038,0.00019431,1.2389,0.80098,,0.0010523852
3503,10.1021/ja400069s,105,6(a),286,Pb0.98Sr0.01Na0.01Se1,Pb0.98Sr0.01Na0.01Se1,804,,0.0013049,0.00019454,1.2379,0.80196,,0.0010541239
3503,10.1021/ja400069s,105,6(a),286,Pb0.98Sr0.01Na0.01Se1,Pb0.98Sr0.01Na0.01Se1,804.5,,0.0013059,0.00019478,1.2369,0.80293,,0.0010557846
3503,10.1021/ja400069s,105,6(a),286,Pb0.98Sr0.01Na0.01Se1,Pb0.98Sr0.01Na0.01Se1,805,,0.0013069,0.00019502,1.236,0.80391,,0.0010573625
3503,10.1021/ja400069s,105,6(a),286,Pb0.98Sr0.01Na0.01Se1,Pb0.98Sr0.01Na0.01Se1,805.5,,0.0013079,0.00019525,1.235,0.80488,,0.0010590283
3503,10.1021/ja400069s,105,6(a),286,Pb0.98Sr0.01Na0.01Se1,Pb0.98Sr0.01Na0.01Se1,806,,0.0013089,0.00019549,1.2341,0.80586,,0.001060611
3503,10.1021/ja400069s,105,6(a),286,Pb0.98Sr0.01Na0.01Se1,Pb0.98Sr0.01Na0.01Se1,806.5,,0.0013099,0.00019572,1.2331,0.80683,,0.0010622821
3503,10.1021/ja400069s,105,6(a),286,Pb0.98Sr0.01Na0.01Se1,Pb0.98Sr0.01Na0.01Se1,807,,0.001311,0.00019596,1.2322,0.80781,,0.0010639507
3503,10.1021/ja400069s,105,6(a),286,Pb0.98Sr0.01Na0.01Se1,Pb0.98Sr0.01Na0.01Se1,807.5,,0.001312,0.0001962,1.2312,0.80878,,0.001065627
3503,10.1021/ja400069s,105,6(a),286,Pb0.98Sr0.01Na0.01Se1,Pb0.98Sr0.01Na0.01Se1,808,,0.001313,0.00019643,1.2303,0.80976,,0.0010672194
3503,10.1021/ja400069s,105,6(a),286,Pb0.98Sr0.01Na0.01Se1,Pb0.98Sr0.01Na0.01Se1,808.5,,0.001314,0.00019667,1.2293,0.81073,,0.001068901
3503,10.1021/ja400069s,105,6(a),286,Pb0.98Sr0.01Na0.01Se1,Pb0.98Sr0.01Na0.01Se1,809,,0.001315,0.00019691,1.2284,0.8117,,0.0010704982
3503,10.1021/ja400069s,105,6(a),286,Pb0.98Sr0.01Na0.01Se1,Pb0.98Sr0.01Na0.01Se1,809.5,,0.001316,0.00019714,1.2275,0.81268,,0.0010720978
3503,10.1021/ja400069s,105,6(a),286,Pb0.98Sr0.01Na0.01Se1,Pb0.98Sr0.01Na0.01Se1,810,,0.001317,0.00019738,1.2265,0.81365,,0.0010737872
3503,10.1021/ja400069s,105,6(a),286,Pb0.98Sr0.01Na0.01Se1,Pb0.98Sr0.01Na0.01Se1,810.5,,0.0013181,0.00019762,1.2256,0.81463,,0.0010754732
3503,10.1021/ja400069s,105,6(a),286,Pb0.98Sr0.01Na0.01Se1,Pb0.98Sr0.01Na0.01Se1,811,,0.0013191,0.00019786,1.2247,0.8156,,0.0010770801
3503,10.1021/ja400069s,105,6(a),286,Pb0.98Sr0.01Na0.01Se1,Pb0.98Sr0.01Na0.01Se1,811.5,,0.0013201,0.00019809,1.2238,0.81658,,0.0010786893
3503,10.1021/ja400069s,105,6(a),286,Pb0.98Sr0.01Na0.01Se1,Pb0.98Sr0.01Na0.01Se1,812,,0.0013211,0.00019833,1.2228,0.81755,,0.0010803893
3503,10.1021/ja400069s,105,6(a),286,Pb0.98Sr0.01Na0.01Se1,Pb0.98Sr0.01Na0.01Se1,812.5,,0.0013221,0.00019857,1.2219,0.81853,,0.0010820034
3503,10.1021/ja400069s,105,6(a),286,Pb0.98Sr0.01Na0.01Se1,Pb0.98Sr0.01Na0.01Se1,813,,0.0013231,0.00019881,1.221,0.8195,,0.00108362
3503,10.1021/ja400069s,105,6(a),286,Pb0.98Sr0.01Na0.01Se1,Pb0.98Sr0.01Na0.01Se1,813.5,,0.0013241,0.00019904,1.2201,0.82048,,0.0010852389
3503,10.1021/ja400069s,105,6(a),286,Pb0.98Sr0.01Na0.01Se1,Pb0.98Sr0.01Na0.01Se1,814,,0.0013252,0.00019928,1.2192,0.82145,,0.0010869423
3503,10.1021/ja400069s,105,6(a),286,Pb0.98Sr0.01Na0.01Se1,Pb0.98Sr0.01Na0.01Se1,814.5,,0.0013262,0.00019952,1.2183,0.82243,,0.001088566
3503,10.1021/ja400069s,105,6(a),286,Pb0.98Sr0.01Na0.01Se1,Pb0.98Sr0.01Na0.01Se1,815,,0.0013272,0.00019976,1.2174,0.8234,,0.0010901922
3503,10.1021/ja400069s,105,6(a),286,Pb0.98Sr0.01Na0.01Se1,Pb0.98Sr0.01Na0.01Se1,815.5,,0.0013282,0.0002,1.2165,0.82438,,0.0010918208
3503,10.1021/ja400069s,105,6(a),286,Pb0.98Sr0.01Na0.01Se1,Pb0.98Sr0.01Na0.01Se1,816,,0.0013292,0.00020024,1.2156,0.82535,,0.0010934518
3503,10.1021/ja400069s,105,6(a),286,Pb0.98Sr0.01Na0.01Se1,Pb0.98Sr0.01Na0.01Se1,816.5,,0.0013302,0.00020047,1.2147,0.82633,,0.0010950852
3503,10.1021/ja400069s,105,6(a),286,Pb0.98Sr0.01Na0.01Se1,Pb0.98Sr0.01Na0.01Se1,817,,0.0013313,0.00020071,1.2138,0.8273,,0.0010968034
3503,10.1021/ja400069s,105,6(a),286,Pb0.98Sr0.01Na0.01Se1,Pb0.98Sr0.01Na0.01Se1,817.5,,0.0013323,0.00020095,1.2129,0.82828,,0.0010984418
3503,10.1021/ja400069s,105,6(a),286,Pb0.98Sr0.01Na0.01Se1,Pb0.98Sr0.01Na0.01Se1,818,,0.0013333,0.00020119,1.2121,0.82925,,0.0010999917