sid,DOI,figureid,fignum,sampleid,samplename,composition,Temperature,Electrical conductivity,Power factor,Seebeck coefficient,Thermal conductivity,ZT,Electrical resistivity,Figure of merit Z
3503,10.1021/ja400069s,105,6(a),203,Pb0.96Ba0.03Na0.01Se1,Pb0.96Ba0.03Na0.01Se1,584.5,63817,0.00089992,0.00012756,1.4132,0.49364,0.0000156698,0.0006367959
3503,10.1021/ja400069s,105,6(a),203,Pb0.96Ba0.03Na0.01Se1,Pb0.96Ba0.03Na0.01Se1,585,63688,0.00090079,0.00012778,1.4119,0.49472,0.0000157015,0.0006379984
3503,10.1021/ja400069s,105,6(a),203,Pb0.96Ba0.03Na0.01Se1,Pb0.96Ba0.03Na0.01Se1,585.5,63560,0.00090165,0.000128,1.4106,0.4958,0.0000157332,0.0006391961
3503,10.1021/ja400069s,105,6(a),203,Pb0.96Ba0.03Na0.01Se1,Pb0.96Ba0.03Na0.01Se1,586,63432,0.00090251,0.00012822,1.4094,0.49687,0.0000157649,0.0006403505
3503,10.1021/ja400069s,105,6(a),203,Pb0.96Ba0.03Na0.01Se1,Pb0.96Ba0.03Na0.01Se1,586.5,63305,0.00090338,0.00012844,1.4081,0.49795,0.0000157965,0.0006415595
3503,10.1021/ja400069s,105,6(a),203,Pb0.96Ba0.03Na0.01Se1,Pb0.96Ba0.03Na0.01Se1,587,63177,0.00090424,0.00012866,1.4069,0.49902,0.0000158285,0.000642718
3503,10.1021/ja400069s,105,6(a),203,Pb0.96Ba0.03Na0.01Se1,Pb0.96Ba0.03Na0.01Se1,587.5,63050,0.0009051,0.00012888,1.4056,0.5001,0.0000158604,0.0006439243
3503,10.1021/ja400069s,105,6(a),203,Pb0.96Ba0.03Na0.01Se1,Pb0.96Ba0.03Na0.01Se1,588,62922,0.00090597,0.00012911,1.4044,0.50118,0.0000158927,0.000645094
3503,10.1021/ja400069s,105,6(a),203,Pb0.96Ba0.03Na0.01Se1,Pb0.96Ba0.03Na0.01Se1,588.5,62795,0.00090683,0.00012933,1.4031,0.50225,0.0000159248,0.0006463046
3503,10.1021/ja400069s,105,6(a),203,Pb0.96Ba0.03Na0.01Se1,Pb0.96Ba0.03Na0.01Se1,589,62669,0.00090769,0.00012955,1.4019,0.50333,0.0000159569,0.0006474713
3503,10.1021/ja400069s,105,6(a),203,Pb0.96Ba0.03Na0.01Se1,Pb0.96Ba0.03Na0.01Se1,589.5,62542,0.00090856,0.00012977,1.4006,0.5044,0.0000159893,0.0006486934
3503,10.1021/ja400069s,105,6(a),203,Pb0.96Ba0.03Na0.01Se1,Pb0.96Ba0.03Na0.01Se1,590,62416,0.00090942,0.00012999,1.3994,0.50548,0.0000160215,0.0006498642
3503,10.1021/ja400069s,105,6(a),203,Pb0.96Ba0.03Na0.01Se1,Pb0.96Ba0.03Na0.01Se1,590.5,62289,0.00091028,0.00013022,1.3981,0.50656,0.0000160542,0.0006510836
3503,10.1021/ja400069s,105,6(a),203,Pb0.96Ba0.03Na0.01Se1,Pb0.96Ba0.03Na0.01Se1,591,62163,0.00091115,0.00013044,1.3969,0.50763,0.0000160867,0.0006522657
3503,10.1021/ja400069s,105,6(a),203,Pb0.96Ba0.03Na0.01Se1,Pb0.96Ba0.03Na0.01Se1,591.5,62037,0.00091201,0.00013066,1.3956,0.50871,0.0000161194,0.0006534895
3503,10.1021/ja400069s,105,6(a),203,Pb0.96Ba0.03Na0.01Se1,Pb0.96Ba0.03Na0.01Se1,592,61912,0.00091287,0.00013088,1.3944,0.50978,0.000016152,0.0006546687
3503,10.1021/ja400069s,105,6(a),203,Pb0.96Ba0.03Na0.01Se1,Pb0.96Ba0.03Na0.01Se1,592.5,61786,0.00091374,0.0001311,1.3932,0.51086,0.0000161849,0.000655857
3503,10.1021/ja400069s,105,6(a),203,Pb0.96Ba0.03Na0.01Se1,Pb0.96Ba0.03Na0.01Se1,593,61661,0.0009146,0.00013133,1.3919,0.51194,0.0000162177,0.0006570874
3503,10.1021/ja400069s,105,6(a),203,Pb0.96Ba0.03Na0.01Se1,Pb0.96Ba0.03Na0.01Se1,593.5,61536,0.00091546,0.00013155,1.3907,0.51301,0.0000162507,0.0006582728
3503,10.1021/ja400069s,105,6(a),203,Pb0.96Ba0.03Na0.01Se1,Pb0.96Ba0.03Na0.01Se1,594,61411,0.00091633,0.00013177,1.3895,0.51409,0.0000162837,0.0006594674
3503,10.1021/ja400069s,105,6(a),203,Pb0.96Ba0.03Na0.01Se1,Pb0.96Ba0.03Na0.01Se1,594.5,61286,0.00091719,0.00013199,1.3882,0.51516,0.0000163169,0.0006607045
3503,10.1021/ja400069s,105,6(a),203,Pb0.96Ba0.03Na0.01Se1,Pb0.96Ba0.03Na0.01Se1,595,61162,0.00091805,0.00013222,1.387,0.51624,0.00001635,0.0006618962
3503,10.1021/ja400069s,105,6(a),203,Pb0.96Ba0.03Na0.01Se1,Pb0.96Ba0.03Na0.01Se1,595.5,61038,0.00091892,0.00013244,1.3858,0.51732,0.0000163832,0.0006630971
3503,10.1021/ja400069s,105,6(a),203,Pb0.96Ba0.03Na0.01Se1,Pb0.96Ba0.03Na0.01Se1,596,60913,0.00091978,0.00013266,1.3846,0.51839,0.0000164169,0.0006642929
3503,10.1021/ja400069s,105,6(a),203,Pb0.96Ba0.03Na0.01Se1,Pb0.96Ba0.03Na0.01Se1,596.5,60789,0.00092064,0.00013289,1.3834,0.51947,0.0000164503,0.0006654908
3503,10.1021/ja400069s,105,6(a),203,Pb0.96Ba0.03Na0.01Se1,Pb0.96Ba0.03Na0.01Se1,597,60666,0.00092151,0.00013311,1.3821,0.52054,0.0000164837,0.0006667463
3503,10.1021/ja400069s,105,6(a),203,Pb0.96Ba0.03Na0.01Se1,Pb0.96Ba0.03Na0.01Se1,597.5,60542,0.00092237,0.00013333,1.3809,0.52162,0.0000165175,0.0006679484
3503,10.1021/ja400069s,105,6(a),203,Pb0.96Ba0.03Na0.01Se1,Pb0.96Ba0.03Na0.01Se1,598,60419,0.00092323,0.00013356,1.3797,0.5227,0.0000165511,0.0006691527
3503,10.1021/ja400069s,105,6(a),203,Pb0.96Ba0.03Na0.01Se1,Pb0.96Ba0.03Na0.01Se1,598.5,60296,0.00092409,0.00013378,1.3785,0.52377,0.0000165848,0.0006703591
3503,10.1021/ja400069s,105,6(a),203,Pb0.96Ba0.03Na0.01Se1,Pb0.96Ba0.03Na0.01Se1,599,60173,0.00092496,0.000134,1.3773,0.52485,0.0000166187,0.0006715748
3503,10.1021/ja400069s,105,6(a),203,Pb0.96Ba0.03Na0.01Se1,Pb0.96Ba0.03Na0.01Se1,599.5,60050,0.00092582,0.00013423,1.3761,0.52592,0.0000166528,0.0006727854
3503,10.1021/ja400069s,105,6(a),203,Pb0.96Ba0.03Na0.01Se1,Pb0.96Ba0.03Na0.01Se1,600,59927,0.00092668,0.00013445,1.3748,0.527,0.000016687,0.0006740471
3503,10.1021/ja400069s,105,6(a),203,Pb0.96Ba0.03Na0.01Se1,Pb0.96Ba0.03Na0.01Se1,600.5,59805,0.00092755,0.00013467,1.3736,0.52808,0.000016721,0.0006752694
3503,10.1021/ja400069s,105,6(a),203,Pb0.96Ba0.03Na0.01Se1,Pb0.96Ba0.03Na0.01Se1,601,59683,0.00092841,0.0001349,1.3724,0.52915,0.0000167552,0.0006764864
3503,10.1021/ja400069s,105,6(a),203,Pb0.96Ba0.03Na0.01Se1,Pb0.96Ba0.03Na0.01Se1,601.5,59561,0.00092927,0.00013512,1.3712,0.53023,0.0000167895,0.0006777057
3503,10.1021/ja400069s,105,6(a),203,Pb0.96Ba0.03Na0.01Se1,Pb0.96Ba0.03Na0.01Se1,602,59439,0.00093014,0.00013534,1.37,0.5313,0.000016824,0.0006789343
3503,10.1021/ja400069s,105,6(a),203,Pb0.96Ba0.03Na0.01Se1,Pb0.96Ba0.03Na0.01Se1,602.5,59317,0.000931,0.00013557,1.3688,0.53238,0.0000168586,0.0006801578
3503,10.1021/ja400069s,105,6(a),203,Pb0.96Ba0.03Na0.01Se1,Pb0.96Ba0.03Na0.01Se1,603,59196,0.00093186,0.00013579,1.3676,0.53346,0.000016893,0.0006813834
3503,10.1021/ja400069s,105,6(a),203,Pb0.96Ba0.03Na0.01Se1,Pb0.96Ba0.03Na0.01Se1,603.5,59074,0.00093273,0.00013601,1.3664,0.53453,0.0000169279,0.0006826186
3503,10.1021/ja400069s,105,6(a),203,Pb0.96Ba0.03Na0.01Se1,Pb0.96Ba0.03Na0.01Se1,604,58953,0.00093359,0.00013624,1.3652,0.53561,0.0000169627,0.0006838485
3503,10.1021/ja400069s,105,6(a),203,Pb0.96Ba0.03Na0.01Se1,Pb0.96Ba0.03Na0.01Se1,604.5,58832,0.00093445,0.00013646,1.364,0.53668,0.0000169976,0.0006850806
3503,10.1021/ja400069s,105,6(a),203,Pb0.96Ba0.03Na0.01Se1,Pb0.96Ba0.03Na0.01Se1,605,58712,0.00093532,0.00013668,1.3628,0.53776,0.0000170323,0.0006863223
3503,10.1021/ja400069s,105,6(a),203,Pb0.96Ba0.03Na0.01Se1,Pb0.96Ba0.03Na0.01Se1,605.5,58591,0.00093618,0.00013691,1.3617,0.53884,0.0000170675,0.0006875083
3503,10.1021/ja400069s,105,6(a),203,Pb0.96Ba0.03Na0.01Se1,Pb0.96Ba0.03Na0.01Se1,606,58471,0.00093704,0.00013713,1.3605,0.53991,0.0000171025,0.0006887468
3503,10.1021/ja400069s,105,6(a),203,Pb0.96Ba0.03Na0.01Se1,Pb0.96Ba0.03Na0.01Se1,606.5,58350,0.00093791,0.00013736,1.3593,0.54099,0.000017138,0.0006899949
3503,10.1021/ja400069s,105,6(a),203,Pb0.96Ba0.03Na0.01Se1,Pb0.96Ba0.03Na0.01Se1,607,58230,0.00093877,0.00013758,1.3581,0.54206,0.0000171733,0.0006912378
3503,10.1021/ja400069s,105,6(a),203,Pb0.96Ba0.03Na0.01Se1,Pb0.96Ba0.03Na0.01Se1,607.5,58111,0.00093963,0.0001378,1.3569,0.54314,0.0000172084,0.0006924829
3503,10.1021/ja400069s,105,6(a),203,Pb0.96Ba0.03Na0.01Se1,Pb0.96Ba0.03Na0.01Se1,608,57991,0.0009405,0.00013803,1.3557,0.54422,0.0000172441,0.0006937376
3503,10.1021/ja400069s,105,6(a),203,Pb0.96Ba0.03Na0.01Se1,Pb0.96Ba0.03Na0.01Se1,608.5,57872,0.00094136,0.00013825,1.3546,0.54529,0.0000172795,0.0006949358
3503,10.1021/ja400069s,105,6(a),203,Pb0.96Ba0.03Na0.01Se1,Pb0.96Ba0.03Na0.01Se1,609,57752,0.00094222,0.00013848,1.3534,0.54637,0.0000173154,0.0006961874
3503,10.1021/ja400069s,105,6(a),203,Pb0.96Ba0.03Na0.01Se1,Pb0.96Ba0.03Na0.01Se1,609.5,57633,0.00094309,0.0001387,1.3522,0.54744,0.0000173512,0.0006974486
3503,10.1021/ja400069s,105,6(a),203,Pb0.96Ba0.03Na0.01Se1,Pb0.96Ba0.03Na0.01Se1,610,57515,0.00094395,0.00013893,1.351,0.54852,0.0000173868,0.0006987047
3503,10.1021/ja400069s,105,6(a),203,Pb0.96Ba0.03Na0.01Se1,Pb0.96Ba0.03Na0.01Se1,610.5,57396,0.00094481,0.00013915,1.3499,0.5496,0.0000174228,0.0006999111
3503,10.1021/ja400069s,105,6(a),203,Pb0.96Ba0.03Na0.01Se1,Pb0.96Ba0.03Na0.01Se1,611,57277,0.00094568,0.00013937,1.3487,0.55067,0.000017459,0.0007011789
3503,10.1021/ja400069s,105,6(a),203,Pb0.96Ba0.03Na0.01Se1,Pb0.96Ba0.03Na0.01Se1,611.5,57159,0.00094654,0.0001396,1.3475,0.55175,0.0000174951,0.0007024416
3503,10.1021/ja400069s,105,6(a),203,Pb0.96Ba0.03Na0.01Se1,Pb0.96Ba0.03Na0.01Se1,612,57041,0.0009474,0.00013982,1.3463,0.55282,0.0000175312,0.0007037065
3503,10.1021/ja400069s,105,6(a),203,Pb0.96Ba0.03Na0.01Se1,Pb0.96Ba0.03Na0.01Se1,612.5,56923,0.00094827,0.00014005,1.3452,0.5539,0.0000175676,0.0007049286
3503,10.1021/ja400069s,105,6(a),203,Pb0.96Ba0.03Na0.01Se1,Pb0.96Ba0.03Na0.01Se1,613,56805,0.00094913,0.00014027,1.344,0.55498,0.0000176041,0.0007061979
3503,10.1021/ja400069s,105,6(a),203,Pb0.96Ba0.03Na0.01Se1,Pb0.96Ba0.03Na0.01Se1,613.5,56688,0.00094999,0.0001405,1.3428,0.55605,0.0000176404,0.0007074695
3503,10.1021/ja400069s,105,6(a),203,Pb0.96Ba0.03Na0.01Se1,Pb0.96Ba0.03Na0.01Se1,614,56571,0.00095086,0.00014072,1.3417,0.55713,0.0000176769,0.0007086979
3503,10.1021/ja400069s,105,6(a),203,Pb0.96Ba0.03Na0.01Se1,Pb0.96Ba0.03Na0.01Se1,614.5,56453,0.00095172,0.00014095,1.3405,0.5582,0.0000177139,0.0007099739
3503,10.1021/ja400069s,105,6(a),203,Pb0.96Ba0.03Na0.01Se1,Pb0.96Ba0.03Na0.01Se1,615,56336,0.00095258,0.00014117,1.3394,0.55928,0.0000177506,0.000711199
3503,10.1021/ja400069s,105,6(a),203,Pb0.96Ba0.03Na0.01Se1,Pb0.96Ba0.03Na0.01Se1,615.5,56220,0.00095345,0.0001414,1.3382,0.56036,0.0000177873,0.0007124869
3503,10.1021/ja400069s,105,6(a),203,Pb0.96Ba0.03Na0.01Se1,Pb0.96Ba0.03Na0.01Se1,616,56103,0.00095431,0.00014162,1.3371,0.56143,0.0000178244,0.0007137163
3503,10.1021/ja400069s,105,6(a),203,Pb0.96Ba0.03Na0.01Se1,Pb0.96Ba0.03Na0.01Se1,616.5,55987,0.00095517,0.00014184,1.3359,0.56251,0.0000178613,0.0007150011
3503,10.1021/ja400069s,105,6(a),203,Pb0.96Ba0.03Na0.01Se1,Pb0.96Ba0.03Na0.01Se1,617,55870,0.00095604,0.00014207,1.3348,0.56358,0.0000178987,0.0007162421
3503,10.1021/ja400069s,105,6(a),203,Pb0.96Ba0.03Na0.01Se1,Pb0.96Ba0.03Na0.01Se1,617.5,55754,0.0009569,0.00014229,1.3336,0.56466,0.0000179359,0.0007175315
3503,10.1021/ja400069s,105,6(a),203,Pb0.96Ba0.03Na0.01Se1,Pb0.96Ba0.03Na0.01Se1,618,55638,0.00095776,0.00014252,1.3325,0.56574,0.0000179733,0.0007187692
3503,10.1021/ja400069s,105,6(a),203,Pb0.96Ba0.03Na0.01Se1,Pb0.96Ba0.03Na0.01Se1,618.5,55523,0.00095863,0.00014274,1.3313,0.56681,0.0000180106,0.0007200706
3503,10.1021/ja400069s,105,6(a),203,Pb0.96Ba0.03Na0.01Se1,Pb0.96Ba0.03Na0.01Se1,619,55407,0.00095949,0.00014297,1.3302,0.56789,0.0000180483,0.0007213126
3503,10.1021/ja400069s,105,6(a),203,Pb0.96Ba0.03Na0.01Se1,Pb0.96Ba0.03Na0.01Se1,619.5,55292,0.00096035,0.00014319,1.329,0.56896,0.0000180858,0.000722611
3503,10.1021/ja400069s,105,6(a),203,Pb0.96Ba0.03Na0.01Se1,Pb0.96Ba0.03Na0.01Se1,620,55177,0.00096122,0.00014342,1.3279,0.57004,0.0000181235,0.0007238647
3503,10.1021/ja400069s,105,6(a),203,Pb0.96Ba0.03Na0.01Se1,Pb0.96Ba0.03Na0.01Se1,620.5,55062,0.00096208,0.00014364,1.3267,0.57112,0.0000181613,0.0007251677
3503,10.1021/ja400069s,105,6(a),203,Pb0.96Ba0.03Na0.01Se1,Pb0.96Ba0.03Na0.01Se1,621,54947,0.00096294,0.00014387,1.3256,0.57219,0.0000181994,0.0007264182
3503,10.1021/ja400069s,105,6(a),203,Pb0.96Ba0.03Na0.01Se1,Pb0.96Ba0.03Na0.01Se1,621.5,54832,0.00096381,0.00014409,1.3245,0.57327,0.0000182375,0.0007276784
3503,10.1021/ja400069s,105,6(a),203,Pb0.96Ba0.03Na0.01Se1,Pb0.96Ba0.03Na0.01Se1,622,54718,0.00096467,0.00014432,1.3233,0.57434,0.0000182755,0.0007289881
3503,10.1021/ja400069s,105,6(a),203,Pb0.96Ba0.03Na0.01Se1,Pb0.96Ba0.03Na0.01Se1,622.5,54604,0.00096553,0.00014454,1.3222,0.57542,0.0000183137,0.000730245
3503,10.1021/ja400069s,105,6(a),203,Pb0.96Ba0.03Na0.01Se1,Pb0.96Ba0.03Na0.01Se1,623,54490,0.00096639,0.00014477,1.3211,0.5765,0.000018352,0.000731504
3503,10.1021/ja400069s,105,6(a),203,Pb0.96Ba0.03Na0.01Se1,Pb0.96Ba0.03Na0.01Se1,623.5,54376,0.00096726,0.00014499,1.3199,0.57757,0.0000183905,0.0007328282
3503,10.1021/ja400069s,105,6(a),203,Pb0.96Ba0.03Na0.01Se1,Pb0.96Ba0.03Na0.01Se1,624,54262,0.00096812,0.00014522,1.3188,0.57865,0.0000184291,0.0007340916
3503,10.1021/ja400069s,105,6(a),203,Pb0.96Ba0.03Na0.01Se1,Pb0.96Ba0.03Na0.01Se1,624.5,54149,0.00096898,0.00014544,1.3177,0.57972,0.0000184676,0.0007353571
3503,10.1021/ja400069s,105,6(a),203,Pb0.96Ba0.03Na0.01Se1,Pb0.96Ba0.03Na0.01Se1,625,54035,0.00096985,0.00014567,1.3165,0.5808,0.0000185065,0.0007366882
3503,10.1021/ja400069s,105,6(a),203,Pb0.96Ba0.03Na0.01Se1,Pb0.96Ba0.03Na0.01Se1,625.5,53922,0.00097071,0.00014589,1.3154,0.58188,0.0000185453,0.000737958
3503,10.1021/ja400069s,105,6(a),203,Pb0.96Ba0.03Na0.01Se1,Pb0.96Ba0.03Na0.01Se1,626,53809,0.00097157,0.00014612,1.3143,0.58295,0.0000185843,0.00073923
3503,10.1021/ja400069s,105,6(a),203,Pb0.96Ba0.03Na0.01Se1,Pb0.96Ba0.03Na0.01Se1,626.5,53697,0.00097244,0.00014634,1.3132,0.58403,0.000018623,0.0007405117
3503,10.1021/ja400069s,105,6(a),203,Pb0.96Ba0.03Na0.01Se1,Pb0.96Ba0.03Na0.01Se1,627,53584,0.0009733,0.00014657,1.3121,0.5851,0.0000186623,0.000741788
3503,10.1021/ja400069s,105,6(a),203,Pb0.96Ba0.03Na0.01Se1,Pb0.96Ba0.03Na0.01Se1,627.5,53472,0.00097416,0.00014679,1.3109,0.58618,0.0000187014,0.000743123
3503,10.1021/ja400069s,105,6(a),203,Pb0.96Ba0.03Na0.01Se1,Pb0.96Ba0.03Na0.01Se1,628,53360,0.00097503,0.00014702,1.3098,0.58726,0.0000187406,0.0007444114
3503,10.1021/ja400069s,105,6(a),203,Pb0.96Ba0.03Na0.01Se1,Pb0.96Ba0.03Na0.01Se1,628.5,53248,0.00097589,0.00014724,1.3087,0.58833,0.00001878,0.0007456942
3503,10.1021/ja400069s,105,6(a),203,Pb0.96Ba0.03Na0.01Se1,Pb0.96Ba0.03Na0.01Se1,629,53136,0.00097675,0.00014747,1.3076,0.58941,0.0000188196,0.0007469792
3503,10.1021/ja400069s,105,6(a),203,Pb0.96Ba0.03Na0.01Se1,Pb0.96Ba0.03Na0.01Se1,629.5,53024,0.00097762,0.00014769,1.3065,0.59048,0.0000188594,0.000748274
3503,10.1021/ja400069s,105,6(a),203,Pb0.96Ba0.03Na0.01Se1,Pb0.96Ba0.03Na0.01Se1,630,52913,0.00097848,0.00014792,1.3054,0.59156,0.0000188989,0.0007495634
3503,10.1021/ja400069s,105,6(a),203,Pb0.96Ba0.03Na0.01Se1,Pb0.96Ba0.03Na0.01Se1,630.5,52801,0.00097934,0.00014814,1.3043,0.59264,0.000018939,0.0007508549
3503,10.1021/ja400069s,105,6(a),203,Pb0.96Ba0.03Na0.01Se1,Pb0.96Ba0.03Na0.01Se1,631,52690,0.00098021,0.00014836,1.3032,0.59371,0.0000189789,0.0007521562
3503,10.1021/ja400069s,105,6(a),203,Pb0.96Ba0.03Na0.01Se1,Pb0.96Ba0.03Na0.01Se1,631.5,52579,0.00098107,0.00014859,1.3021,0.59479,0.000019019,0.0007534521
3503,10.1021/ja400069s,105,6(a),203,Pb0.96Ba0.03Na0.01Se1,Pb0.96Ba0.03Na0.01Se1,632,52469,0.00098193,0.00014881,1.301,0.59586,0.0000190589,0.0007547502
3503,10.1021/ja400069s,105,6(a),203,Pb0.96Ba0.03Na0.01Se1,Pb0.96Ba0.03Na0.01Se1,632.5,52358,0.0009828,0.00014904,1.2999,0.59694,0.0000190993,0.0007560582
3503,10.1021/ja400069s,105,6(a),203,Pb0.96Ba0.03Na0.01Se1,Pb0.96Ba0.03Na0.01Se1,633,52248,0.00098366,0.00014926,1.2988,0.59802,0.0000191395,0.0007573606
3503,10.1021/ja400069s,105,6(a),203,Pb0.96Ba0.03Na0.01Se1,Pb0.96Ba0.03Na0.01Se1,633.5,52137,0.00098452,0.00014949,1.2977,0.59909,0.0000191802,0.0007586653
3503,10.1021/ja400069s,105,6(a),203,Pb0.96Ba0.03Na0.01Se1,Pb0.96Ba0.03Na0.01Se1,634,52027,0.00098539,0.00014971,1.2966,0.60017,0.0000192208,0.0007599799
3503,10.1021/ja400069s,105,6(a),203,Pb0.96Ba0.03Na0.01Se1,Pb0.96Ba0.03Na0.01Se1,634.5,51918,0.00098625,0.00014994,1.2955,0.60124,0.0000192611,0.0007612891
3503,10.1021/ja400069s,105,6(a),203,Pb0.96Ba0.03Na0.01Se1,Pb0.96Ba0.03Na0.01Se1,635,51808,0.00098711,0.00015016,1.2944,0.60232,0.000019302,0.0007626004
3503,10.1021/ja400069s,105,6(a),203,Pb0.96Ba0.03Na0.01Se1,Pb0.96Ba0.03Na0.01Se1,635.5,51698,0.00098798,0.00015039,1.2933,0.6034,0.0000193431,0.0007639218
3503,10.1021/ja400069s,105,6(a),203,Pb0.96Ba0.03Na0.01Se1,Pb0.96Ba0.03Na0.01Se1,636,51589,0.00098884,0.00015061,1.2922,0.60447,0.000019384,0.0007652376
3503,10.1021/ja400069s,105,6(a),203,Pb0.96Ba0.03Na0.01Se1,Pb0.96Ba0.03Na0.01Se1,636.5,51480,0.0009897,0.00015084,1.2911,0.60555,0.000019425,0.0007665557
3503,10.1021/ja400069s,105,6(a),203,Pb0.96Ba0.03Na0.01Se1,Pb0.96Ba0.03Na0.01Se1,637,51371,0.00099057,0.00015106,1.29,0.60662,0.0000194662,0.0007678837
3503,10.1021/ja400069s,105,6(a),203,Pb0.96Ba0.03Na0.01Se1,Pb0.96Ba0.03Na0.01Se1,637.5,51262,0.00099143,0.00015129,1.2889,0.6077,0.0000195076,0.0007692063
3503,10.1021/ja400069s,105,6(a),203,Pb0.96Ba0.03Na0.01Se1,Pb0.96Ba0.03Na0.01Se1,638,51154,0.00099229,0.00015151,1.2878,0.60878,0.0000195488,0.0007705311
3503,10.1021/ja400069s,105,6(a),203,Pb0.96Ba0.03Na0.01Se1,Pb0.96Ba0.03Na0.01Se1,638.5,51045,0.00099316,0.00015174,1.2868,0.60985,0.0000195906,0.000771806
3503,10.1021/ja400069s,105,6(a),203,Pb0.96Ba0.03Na0.01Se1,Pb0.96Ba0.03Na0.01Se1,639,50937,0.00099402,0.00015196,1.2857,0.61093,0.0000196321,0.0007731353
3503,10.1021/ja400069s,105,6(a),203,Pb0.96Ba0.03Na0.01Se1,Pb0.96Ba0.03Na0.01Se1,639.5,50829,0.00099488,0.00015219,1.2846,0.612,0.0000196738,0.0007744668
3503,10.1021/ja400069s,105,6(a),203,Pb0.96Ba0.03Na0.01Se1,Pb0.96Ba0.03Na0.01Se1,640,50721,0.00099575,0.00015241,1.2835,0.61308,0.0000197157,0.0007758083
3503,10.1021/ja400069s,105,6(a),203,Pb0.96Ba0.03Na0.01Se1,Pb0.96Ba0.03Na0.01Se1,640.5,50614,0.00099661,0.00015264,1.2824,0.61416,0.0000197574,0.0007771444
3503,10.1021/ja400069s,105,6(a),203,Pb0.96Ba0.03Na0.01Se1,Pb0.96Ba0.03Na0.01Se1,641,50506,0.00099747,0.00015286,1.2814,0.61523,0.0000197996,0.000778422
3503,10.1021/ja400069s,105,6(a),203,Pb0.96Ba0.03Na0.01Se1,Pb0.96Ba0.03Na0.01Se1,641.5,50399,0.00099834,0.00015308,1.2803,0.61631,0.0000198417,0.0007797704
3503,10.1021/ja400069s,105,6(a),203,Pb0.96Ba0.03Na0.01Se1,Pb0.96Ba0.03Na0.01Se1,642,50292,0.0009992,0.00015331,1.2792,0.61738,0.0000198839,0.0007811132
3503,10.1021/ja400069s,105,6(a),203,Pb0.96Ba0.03Na0.01Se1,Pb0.96Ba0.03Na0.01Se1,642.5,50185,0.0010001,0.00015353,1.2781,0.61846,0.0000199263,0.0007824896
3503,10.1021/ja400069s,105,6(a),203,Pb0.96Ba0.03Na0.01Se1,Pb0.96Ba0.03Na0.01Se1,643,50078,0.0010009,0.00015376,1.2771,0.61954,0.0000199688,0.0007837288
3503,10.1021/ja400069s,105,6(a),203,Pb0.96Ba0.03Na0.01Se1,Pb0.96Ba0.03Na0.01Se1,643.5,49971,0.0010018,0.00015398,1.276,0.62061,0.0000200116,0.0007851097
3503,10.1021/ja400069s,105,6(a),203,Pb0.96Ba0.03Na0.01Se1,Pb0.96Ba0.03Na0.01Se1,644,49865,0.0010027,0.00015421,1.2749,0.62169,0.0000200541,0.0007864931
3503,10.1021/ja400069s,105,6(a),203,Pb0.96Ba0.03Na0.01Se1,Pb0.96Ba0.03Na0.01Se1,644.5,49759,0.0010035,0.00015443,1.2739,0.62276,0.0000200969,0.0007877384
3503,10.1021/ja400069s,105,6(a),203,Pb0.96Ba0.03Na0.01Se1,Pb0.96Ba0.03Na0.01Se1,645,49652,0.0010044,0.00015466,1.2728,0.62384,0.0000201402,0.0007891263
3503,10.1021/ja400069s,105,6(a),203,Pb0.96Ba0.03Na0.01Se1,Pb0.96Ba0.03Na0.01Se1,645.5,49547,0.0010052,0.00015488,1.2717,0.62491,0.0000201829,0.000790438
3503,10.1021/ja400069s,105,6(a),203,Pb0.96Ba0.03Na0.01Se1,Pb0.96Ba0.03Na0.01Se1,646,49441,0.0010061,0.0001551,1.2707,0.62599,0.0000202261,0.0007917683
3503,10.1021/ja400069s,105,6(a),203,Pb0.96Ba0.03Na0.01Se1,Pb0.96Ba0.03Na0.01Se1,646.5,49335,0.001007,0.00015533,1.2696,0.62707,0.0000202696,0.0007931632
3503,10.1021/ja400069s,105,6(a),203,Pb0.96Ba0.03Na0.01Se1,Pb0.96Ba0.03Na0.01Se1,647,49230,0.0010078,0.00015555,1.2686,0.62814,0.0000203128,0.000794419
3503,10.1021/ja400069s,105,6(a),203,Pb0.96Ba0.03Na0.01Se1,Pb0.96Ba0.03Na0.01Se1,647.5,49125,0.0010087,0.00015578,1.2675,0.62922,0.0000203562,0.0007958185
3503,10.1021/ja400069s,105,6(a),203,Pb0.96Ba0.03Na0.01Se1,Pb0.96Ba0.03Na0.01Se1,648,49020,0.0010096,0.000156,1.2665,0.63029,0.0000203998,0.0007971575
3503,10.1021/ja400069s,105,6(a),203,Pb0.96Ba0.03Na0.01Se1,Pb0.96Ba0.03Na0.01Se1,648.5,48915,0.0010104,0.00015622,1.2654,0.63137,0.0000204436,0.0007984827