sid,DOI,figureid,fignum,sampleid,samplename,composition,Temperature,Electrical conductivity,Power factor,Seebeck coefficient,Thermal conductivity,ZT,Electrical resistivity,Figure of merit Z
3503,10.1021/ja400069s,105,6(a),286,Pb0.98Sr0.01Na0.01Se1,Pb0.98Sr0.01Na0.01Se1,554,114290,0.00079721,0.000088039,2.1008,0.31454,0.0000087497,0.0003794792
3503,10.1021/ja400069s,105,6(a),286,Pb0.98Sr0.01Na0.01Se1,Pb0.98Sr0.01Na0.01Se1,554.5,114040,0.00079822,0.000088219,2.0983,0.31552,0.0000087689,0.0003804127
3503,10.1021/ja400069s,105,6(a),286,Pb0.98Sr0.01Na0.01Se1,Pb0.98Sr0.01Na0.01Se1,555,113800,0.00079924,0.000088399,2.0958,0.31649,0.0000087873,0.0003813532
3503,10.1021/ja400069s,105,6(a),286,Pb0.98Sr0.01Na0.01Se1,Pb0.98Sr0.01Na0.01Se1,555.5,113560,0.00080025,0.00008858,2.0934,0.31746,0.0000088059,0.0003822729
3503,10.1021/ja400069s,105,6(a),286,Pb0.98Sr0.01Na0.01Se1,Pb0.98Sr0.01Na0.01Se1,556,113320,0.00080127,0.00008876,2.0909,0.31844,0.0000088246,0.0003832178
3503,10.1021/ja400069s,105,6(a),286,Pb0.98Sr0.01Na0.01Se1,Pb0.98Sr0.01Na0.01Se1,556.5,113080,0.00080228,0.000088941,2.0884,0.31941,0.0000088433,0.0003841601
3503,10.1021/ja400069s,105,6(a),286,Pb0.98Sr0.01Na0.01Se1,Pb0.98Sr0.01Na0.01Se1,557,112840,0.0008033,0.000089122,2.086,0.32039,0.0000088621,0.0003850911
3503,10.1021/ja400069s,105,6(a),286,Pb0.98Sr0.01Na0.01Se1,Pb0.98Sr0.01Na0.01Se1,557.5,112600,0.00080431,0.000089303,2.0835,0.32136,0.000008881,0.0003860379
3503,10.1021/ja400069s,105,6(a),286,Pb0.98Sr0.01Na0.01Se1,Pb0.98Sr0.01Na0.01Se1,558,112360,0.00080533,0.000089485,2.0811,0.32234,0.0000089,0.0003869732
3503,10.1021/ja400069s,105,6(a),286,Pb0.98Sr0.01Na0.01Se1,Pb0.98Sr0.01Na0.01Se1,558.5,112120,0.00080634,0.000089666,2.0786,0.32331,0.000008919,0.0003879246
3503,10.1021/ja400069s,105,6(a),286,Pb0.98Sr0.01Na0.01Se1,Pb0.98Sr0.01Na0.01Se1,559,111880,0.00080736,0.000089848,2.0762,0.32429,0.0000089381,0.0003888643
3503,10.1021/ja400069s,105,6(a),286,Pb0.98Sr0.01Na0.01Se1,Pb0.98Sr0.01Na0.01Se1,559.5,111640,0.00080837,0.00009003,2.0737,0.32526,0.0000089574,0.0003898201
3503,10.1021/ja400069s,105,6(a),286,Pb0.98Sr0.01Na0.01Se1,Pb0.98Sr0.01Na0.01Se1,560,111400,0.00080939,0.000090213,2.0713,0.32624,0.0000089767,0.0003907643
3503,10.1021/ja400069s,105,6(a),286,Pb0.98Sr0.01Na0.01Se1,Pb0.98Sr0.01Na0.01Se1,560.5,111160,0.0008104,0.000090395,2.0688,0.32721,0.000008996,0.0003917247
3503,10.1021/ja400069s,105,6(a),286,Pb0.98Sr0.01Na0.01Se1,Pb0.98Sr0.01Na0.01Se1,561,110930,0.00081142,0.000090578,2.0664,0.32819,0.0000090147,0.0003926732
3503,10.1021/ja400069s,105,6(a),286,Pb0.98Sr0.01Na0.01Se1,Pb0.98Sr0.01Na0.01Se1,561.5,110690,0.00081243,0.00009076,2.064,0.32916,0.0000090342,0.0003936192
3503,10.1021/ja400069s,105,6(a),286,Pb0.98Sr0.01Na0.01Se1,Pb0.98Sr0.01Na0.01Se1,562,110450,0.00081345,0.000090943,2.0616,0.33014,0.0000090539,0.0003945722
3503,10.1021/ja400069s,105,6(a),286,Pb0.98Sr0.01Na0.01Se1,Pb0.98Sr0.01Na0.01Se1,562.5,110220,0.00081447,0.000091127,2.0591,0.33111,0.0000090728,0.0003955466
3503,10.1021/ja400069s,105,6(a),286,Pb0.98Sr0.01Na0.01Se1,Pb0.98Sr0.01Na0.01Se1,563,109980,0.00081548,0.00009131,2.0567,0.33209,0.0000090926,0.0003964992
3503,10.1021/ja400069s,105,6(a),286,Pb0.98Sr0.01Na0.01Se1,Pb0.98Sr0.01Na0.01Se1,563.5,109750,0.0008165,0.000091494,2.0543,0.33306,0.0000091116,0.000397459
3503,10.1021/ja400069s,105,6(a),286,Pb0.98Sr0.01Na0.01Se1,Pb0.98Sr0.01Na0.01Se1,564,109510,0.00081751,0.000091678,2.0519,0.33404,0.0000091316,0.0003984161
3503,10.1021/ja400069s,105,6(a),286,Pb0.98Sr0.01Na0.01Se1,Pb0.98Sr0.01Na0.01Se1,564.5,109280,0.00081853,0.000091862,2.0495,0.33501,0.0000091508,0.0003993803
3503,10.1021/ja400069s,105,6(a),286,Pb0.98Sr0.01Na0.01Se1,Pb0.98Sr0.01Na0.01Se1,565,109040,0.00081954,0.000092046,2.047,0.33599,0.0000091709,0.0004003615
3503,10.1021/ja400069s,105,6(a),286,Pb0.98Sr0.01Na0.01Se1,Pb0.98Sr0.01Na0.01Se1,565.5,108810,0.00082056,0.00009223,2.0446,0.33696,0.0000091903,0.0004013303
3503,10.1021/ja400069s,105,6(a),286,Pb0.98Sr0.01Na0.01Se1,Pb0.98Sr0.01Na0.01Se1,566,108570,0.00082157,0.000092415,2.0422,0.33794,0.0000092106,0.0004022965
3503,10.1021/ja400069s,105,6(a),286,Pb0.98Sr0.01Na0.01Se1,Pb0.98Sr0.01Na0.01Se1,566.5,108340,0.00082259,0.0000926,2.0398,0.33891,0.0000092302,0.0004032699
3503,10.1021/ja400069s,105,6(a),286,Pb0.98Sr0.01Na0.01Se1,Pb0.98Sr0.01Na0.01Se1,567,108110,0.0008236,0.000092785,2.0374,0.33989,0.0000092498,0.0004042407
3503,10.1021/ja400069s,105,6(a),286,Pb0.98Sr0.01Na0.01Se1,Pb0.98Sr0.01Na0.01Se1,567.5,107870,0.00082462,0.00009297,2.035,0.34086,0.0000092704,0.0004052187
3503,10.1021/ja400069s,105,6(a),286,Pb0.98Sr0.01Na0.01Se1,Pb0.98Sr0.01Na0.01Se1,568,107640,0.00082563,0.000093156,2.0326,0.34184,0.0000092902,0.000406194
3503,10.1021/ja400069s,105,6(a),286,Pb0.98Sr0.01Na0.01Se1,Pb0.98Sr0.01Na0.01Se1,568.5,107410,0.00082665,0.000093341,2.0302,0.34281,0.0000093101,0.0004071766
3503,10.1021/ja400069s,105,6(a),286,Pb0.98Sr0.01Na0.01Se1,Pb0.98Sr0.01Na0.01Se1,569,107180,0.00082766,0.000093527,2.0279,0.34379,0.0000093301,0.0004081365
3503,10.1021/ja400069s,105,6(a),286,Pb0.98Sr0.01Na0.01Se1,Pb0.98Sr0.01Na0.01Se1,569.5,106950,0.00082868,0.000093713,2.0255,0.34476,0.0000093502,0.0004091237
3503,10.1021/ja400069s,105,6(a),286,Pb0.98Sr0.01Na0.01Se1,Pb0.98Sr0.01Na0.01Se1,570,106720,0.00082969,0.000093899,2.0231,0.34573,0.0000093703,0.0004101082
3503,10.1021/ja400069s,105,6(a),286,Pb0.98Sr0.01Na0.01Se1,Pb0.98Sr0.01Na0.01Se1,570.5,106490,0.00083071,0.000094086,2.0207,0.34671,0.0000093906,0.0004111001
3503,10.1021/ja400069s,105,6(a),286,Pb0.98Sr0.01Na0.01Se1,Pb0.98Sr0.01Na0.01Se1,571,106250,0.00083173,0.000094272,2.0183,0.34768,0.0000094118,0.0004120943
3503,10.1021/ja400069s,105,6(a),286,Pb0.98Sr0.01Na0.01Se1,Pb0.98Sr0.01Na0.01Se1,571.5,106030,0.00083274,0.000094459,2.016,0.34866,0.0000094313,0.0004130655
3503,10.1021/ja400069s,105,6(a),286,Pb0.98Sr0.01Na0.01Se1,Pb0.98Sr0.01Na0.01Se1,572,105800,0.00083376,0.000094646,2.0136,0.34963,0.0000094518,0.0004140644
3503,10.1021/ja400069s,105,6(a),286,Pb0.98Sr0.01Na0.01Se1,Pb0.98Sr0.01Na0.01Se1,572.5,105570,0.00083477,0.000094833,2.0112,0.35061,0.0000094724,0.0004150607
3503,10.1021/ja400069s,105,6(a),286,Pb0.98Sr0.01Na0.01Se1,Pb0.98Sr0.01Na0.01Se1,573,105340,0.00083579,0.00009502,2.0089,0.35158,0.0000094931,0.0004160436
3503,10.1021/ja400069s,105,6(a),286,Pb0.98Sr0.01Na0.01Se1,Pb0.98Sr0.01Na0.01Se1,573.5,105110,0.0008368,0.000095208,2.0065,0.35256,0.0000095138,0.0004170446
3503,10.1021/ja400069s,105,6(a),286,Pb0.98Sr0.01Na0.01Se1,Pb0.98Sr0.01Na0.01Se1,574,104880,0.00083782,0.000095396,2.0042,0.35353,0.0000095347,0.0004180321
3503,10.1021/ja400069s,105,6(a),286,Pb0.98Sr0.01Na0.01Se1,Pb0.98Sr0.01Na0.01Se1,574.5,104650,0.00083883,0.000095583,2.0018,0.35451,0.0000095557,0.0004190379
3503,10.1021/ja400069s,105,6(a),286,Pb0.98Sr0.01Na0.01Se1,Pb0.98Sr0.01Na0.01Se1,575,104430,0.00083985,0.000095772,1.9994,0.35548,0.0000095758,0.000420051
3503,10.1021/ja400069s,105,6(a),286,Pb0.98Sr0.01Na0.01Se1,Pb0.98Sr0.01Na0.01Se1,575.5,104200,0.00084086,0.00009596,1.9971,0.35646,0.0000095969,0.0004210405
3503,10.1021/ja400069s,105,6(a),286,Pb0.98Sr0.01Na0.01Se1,Pb0.98Sr0.01Na0.01Se1,576,103970,0.00084188,0.000096148,1.9947,0.35743,0.0000096182,0.0004220585
3503,10.1021/ja400069s,105,6(a),286,Pb0.98Sr0.01Na0.01Se1,Pb0.98Sr0.01Na0.01Se1,576.5,103750,0.00084289,0.000096337,1.9924,0.35841,0.0000096386,0.0004230526
3503,10.1021/ja400069s,105,6(a),286,Pb0.98Sr0.01Na0.01Se1,Pb0.98Sr0.01Na0.01Se1,577,103520,0.00084391,0.000096526,1.9901,0.35938,0.00000966,0.0004240541
3503,10.1021/ja400069s,105,6(a),286,Pb0.98Sr0.01Na0.01Se1,Pb0.98Sr0.01Na0.01Se1,577.5,103300,0.00084492,0.000096715,1.9877,0.36036,0.0000096805,0.0004250742
3503,10.1021/ja400069s,105,6(a),286,Pb0.98Sr0.01Na0.01Se1,Pb0.98Sr0.01Na0.01Se1,578,103070,0.00084594,0.000096904,1.9854,0.36133,0.0000097021,0.0004260804
3503,10.1021/ja400069s,105,6(a),286,Pb0.98Sr0.01Na0.01Se1,Pb0.98Sr0.01Na0.01Se1,578.5,102850,0.00084696,0.000097093,1.9831,0.36231,0.0000097229,0.0004270889
3503,10.1021/ja400069s,105,6(a),286,Pb0.98Sr0.01Na0.01Se1,Pb0.98Sr0.01Na0.01Se1,579,102620,0.00084797,0.000097283,1.9807,0.36328,0.0000097447,0.0004281163
3503,10.1021/ja400069s,105,6(a),286,Pb0.98Sr0.01Na0.01Se1,Pb0.98Sr0.01Na0.01Se1,579.5,102400,0.00084899,0.000097473,1.9784,0.36426,0.0000097656,0.0004291296
3503,10.1021/ja400069s,105,6(a),286,Pb0.98Sr0.01Na0.01Se1,Pb0.98Sr0.01Na0.01Se1,580,102170,0.00085,0.000097663,1.9761,0.36523,0.0000097876,0.0004301402
3503,10.1021/ja400069s,105,6(a),286,Pb0.98Sr0.01Na0.01Se1,Pb0.98Sr0.01Na0.01Se1,580.5,101950,0.00085102,0.000097853,1.9738,0.36621,0.0000098087,0.0004311582
3503,10.1021/ja400069s,105,6(a),286,Pb0.98Sr0.01Na0.01Se1,Pb0.98Sr0.01Na0.01Se1,581,101730,0.00085203,0.000098043,1.9715,0.36718,0.0000098299,0.0004321735
3503,10.1021/ja400069s,105,6(a),286,Pb0.98Sr0.01Na0.01Se1,Pb0.98Sr0.01Na0.01Se1,581.5,101510,0.00085305,0.000098233,1.9691,0.36816,0.0000098512,0.0004332182
3503,10.1021/ja400069s,105,6(a),286,Pb0.98Sr0.01Na0.01Se1,Pb0.98Sr0.01Na0.01Se1,582,101280,0.00085406,0.000098424,1.9668,0.36913,0.0000098736,0.0004342384
3503,10.1021/ja400069s,105,6(a),286,Pb0.98Sr0.01Na0.01Se1,Pb0.98Sr0.01Na0.01Se1,582.5,101060,0.00085508,0.000098615,1.9645,0.37011,0.0000098951,0.000435266
3503,10.1021/ja400069s,105,6(a),286,Pb0.98Sr0.01Na0.01Se1,Pb0.98Sr0.01Na0.01Se1,583,100840,0.00085609,0.000098806,1.9622,0.37108,0.0000099167,0.0004362909
3503,10.1021/ja400069s,105,6(a),286,Pb0.98Sr0.01Na0.01Se1,Pb0.98Sr0.01Na0.01Se1,583.5,100620,0.00085711,0.000098997,1.9599,0.37206,0.0000099384,0.0004373233
3503,10.1021/ja400069s,105,6(a),286,Pb0.98Sr0.01Na0.01Se1,Pb0.98Sr0.01Na0.01Se1,584,100400,0.00085812,0.000099188,1.9576,0.37303,0.0000099602,0.0004383531
3503,10.1021/ja400069s,105,6(a),286,Pb0.98Sr0.01Na0.01Se1,Pb0.98Sr0.01Na0.01Se1,584.5,100180,0.00085914,0.00009938,1.9553,0.374,0.000009982,0.0004393904
3503,10.1021/ja400069s,105,6(a),286,Pb0.98Sr0.01Na0.01Se1,Pb0.98Sr0.01Na0.01Se1,585,99958,0.00086015,0.000099572,1.953,0.37498,0.0000100042,0.000440425
3503,10.1021/ja400069s,105,6(a),286,Pb0.98Sr0.01Na0.01Se1,Pb0.98Sr0.01Na0.01Se1,585.5,99738,0.00086117,0.000099764,1.9507,0.37595,0.0000100263,0.0004414672
3503,10.1021/ja400069s,105,6(a),286,Pb0.98Sr0.01Na0.01Se1,Pb0.98Sr0.01Na0.01Se1,586,99519,0.00086218,0.000099956,1.9485,0.37693,0.0000100483,0.000442484
3503,10.1021/ja400069s,105,6(a),286,Pb0.98Sr0.01Na0.01Se1,Pb0.98Sr0.01Na0.01Se1,586.5,99300,0.0008632,0.00010015,1.9462,0.3779,0.0000100705,0.000443531
3503,10.1021/ja400069s,105,6(a),286,Pb0.98Sr0.01Na0.01Se1,Pb0.98Sr0.01Na0.01Se1,587,99082,0.00086422,0.00010034,1.9439,0.37888,0.0000100927,0.0004445805
3503,10.1021/ja400069s,105,6(a),286,Pb0.98Sr0.01Na0.01Se1,Pb0.98Sr0.01Na0.01Se1,587.5,98863,0.00086523,0.00010053,1.9416,0.37985,0.000010115,0.0004456273
3503,10.1021/ja400069s,105,6(a),286,Pb0.98Sr0.01Na0.01Se1,Pb0.98Sr0.01Na0.01Se1,588,98646,0.00086625,0.00010073,1.9393,0.38083,0.0000101373,0.0004466818
3503,10.1021/ja400069s,105,6(a),286,Pb0.98Sr0.01Na0.01Se1,Pb0.98Sr0.01Na0.01Se1,588.5,98428,0.00086726,0.00010092,1.9371,0.3818,0.0000101597,0.0004477105
3503,10.1021/ja400069s,105,6(a),286,Pb0.98Sr0.01Na0.01Se1,Pb0.98Sr0.01Na0.01Se1,589,98211,0.00086828,0.00010111,1.9348,0.38278,0.0000101822,0.0004487699
3503,10.1021/ja400069s,105,6(a),286,Pb0.98Sr0.01Na0.01Se1,Pb0.98Sr0.01Na0.01Se1,589.5,97994,0.00086929,0.0001013,1.9325,0.38375,0.0000102047,0.0004498266
3503,10.1021/ja400069s,105,6(a),286,Pb0.98Sr0.01Na0.01Se1,Pb0.98Sr0.01Na0.01Se1,590,97778,0.00087031,0.0001015,1.9303,0.38473,0.0000102272,0.0004508677
3503,10.1021/ja400069s,105,6(a),286,Pb0.98Sr0.01Na0.01Se1,Pb0.98Sr0.01Na0.01Se1,590.5,97562,0.00087132,0.00010169,1.928,0.3857,0.0000102499,0.0004519295
3503,10.1021/ja400069s,105,6(a),286,Pb0.98Sr0.01Na0.01Se1,Pb0.98Sr0.01Na0.01Se1,591,97346,0.00087234,0.00010189,1.9258,0.38668,0.0000102726,0.0004529754
3503,10.1021/ja400069s,105,6(a),286,Pb0.98Sr0.01Na0.01Se1,Pb0.98Sr0.01Na0.01Se1,591.5,97131,0.00087335,0.00010208,1.9235,0.38765,0.0000102954,0.0004540421
3503,10.1021/ja400069s,105,6(a),286,Pb0.98Sr0.01Na0.01Se1,Pb0.98Sr0.01Na0.01Se1,592,96916,0.00087437,0.00010227,1.9213,0.38863,0.0000103182,0.0004550929
3503,10.1021/ja400069s,105,6(a),286,Pb0.98Sr0.01Na0.01Se1,Pb0.98Sr0.01Na0.01Se1,592.5,96701,0.00087538,0.00010247,1.919,0.3896,0.0000103412,0.0004561647
3503,10.1021/ja400069s,105,6(a),286,Pb0.98Sr0.01Na0.01Se1,Pb0.98Sr0.01Na0.01Se1,593,96487,0.0008764,0.00010266,1.9168,0.39058,0.0000103641,0.0004572204
3503,10.1021/ja400069s,105,6(a),286,Pb0.98Sr0.01Na0.01Se1,Pb0.98Sr0.01Na0.01Se1,593.5,96273,0.00087741,0.00010286,1.9145,0.39155,0.0000103871,0.0004582972
3503,10.1021/ja400069s,105,6(a),286,Pb0.98Sr0.01Na0.01Se1,Pb0.98Sr0.01Na0.01Se1,594,96059,0.00087843,0.00010305,1.9123,0.39253,0.0000104103,0.0004593578
3503,10.1021/ja400069s,105,6(a),286,Pb0.98Sr0.01Na0.01Se1,Pb0.98Sr0.01Na0.01Se1,594.5,95846,0.00087944,0.00010325,1.9101,0.3935,0.0000104334,0.0004604157
3503,10.1021/ja400069s,105,6(a),286,Pb0.98Sr0.01Na0.01Se1,Pb0.98Sr0.01Na0.01Se1,595,95633,0.00088046,0.00010344,1.9078,0.39448,0.0000104566,0.0004615054
3503,10.1021/ja400069s,105,6(a),286,Pb0.98Sr0.01Na0.01Se1,Pb0.98Sr0.01Na0.01Se1,595.5,95421,0.00088148,0.00010364,1.9056,0.39545,0.0000104799,0.0004625735
3503,10.1021/ja400069s,105,6(a),286,Pb0.98Sr0.01Na0.01Se1,Pb0.98Sr0.01Na0.01Se1,596,95209,0.00088249,0.00010383,1.9034,0.39643,0.0000105032,0.0004636388
3503,10.1021/ja400069s,105,6(a),286,Pb0.98Sr0.01Na0.01Se1,Pb0.98Sr0.01Na0.01Se1,596.5,94997,0.00088351,0.00010403,1.9011,0.3974,0.0000105266,0.0004647362
3503,10.1021/ja400069s,105,6(a),286,Pb0.98Sr0.01Na0.01Se1,Pb0.98Sr0.01Na0.01Se1,597,94785,0.00088452,0.00010422,1.8989,0.39838,0.0000105502,0.0004658065
3503,10.1021/ja400069s,105,6(a),286,Pb0.98Sr0.01Na0.01Se1,Pb0.98Sr0.01Na0.01Se1,597.5,94574,0.00088554,0.00010442,1.8967,0.39935,0.0000105737,0.0004668846
3503,10.1021/ja400069s,105,6(a),286,Pb0.98Sr0.01Na0.01Se1,Pb0.98Sr0.01Na0.01Se1,598,94364,0.00088655,0.00010462,1.8945,0.40033,0.0000105973,0.0004679599
3503,10.1021/ja400069s,105,6(a),286,Pb0.98Sr0.01Na0.01Se1,Pb0.98Sr0.01Na0.01Se1,598.5,94153,0.00088757,0.00010481,1.8923,0.4013,0.000010621,0.000469043
3503,10.1021/ja400069s,105,6(a),286,Pb0.98Sr0.01Na0.01Se1,Pb0.98Sr0.01Na0.01Se1,599,93943,0.00088858,0.00010501,1.8901,0.40228,0.0000106448,0.0004701233
3503,10.1021/ja400069s,105,6(a),286,Pb0.98Sr0.01Na0.01Se1,Pb0.98Sr0.01Na0.01Se1,599.5,93734,0.0008896,0.00010521,1.8879,0.40325,0.0000106685,0.0004712114
3503,10.1021/ja400069s,105,6(a),286,Pb0.98Sr0.01Na0.01Se1,Pb0.98Sr0.01Na0.01Se1,600,93524,0.00089061,0.0001054,1.8857,0.40422,0.0000106924,0.0004722968
3503,10.1021/ja400069s,105,6(a),286,Pb0.98Sr0.01Na0.01Se1,Pb0.98Sr0.01Na0.01Se1,600.5,93315,0.00089163,0.0001056,1.8835,0.4052,0.0000107164,0.00047339
3503,10.1021/ja400069s,105,6(a),286,Pb0.98Sr0.01Na0.01Se1,Pb0.98Sr0.01Na0.01Se1,601,93107,0.00089264,0.0001058,1.8813,0.40617,0.0000107403,0.0004744804
3503,10.1021/ja400069s,105,6(a),286,Pb0.98Sr0.01Na0.01Se1,Pb0.98Sr0.01Na0.01Se1,601.5,92899,0.00089366,0.00010599,1.8791,0.40715,0.0000107644,0.0004755787
3503,10.1021/ja400069s,105,6(a),286,Pb0.98Sr0.01Na0.01Se1,Pb0.98Sr0.01Na0.01Se1,602,92691,0.00089467,0.00010619,1.8769,0.40812,0.0000107885,0.0004766743
3503,10.1021/ja400069s,105,6(a),286,Pb0.98Sr0.01Na0.01Se1,Pb0.98Sr0.01Na0.01Se1,602.5,92483,0.00089569,0.00010639,1.8747,0.4091,0.0000108128,0.0004777778
3503,10.1021/ja400069s,105,6(a),286,Pb0.98Sr0.01Na0.01Se1,Pb0.98Sr0.01Na0.01Se1,603,92276,0.00089671,0.00010659,1.8725,0.41007,0.0000108371,0.0004788838
3503,10.1021/ja400069s,105,6(a),286,Pb0.98Sr0.01Na0.01Se1,Pb0.98Sr0.01Na0.01Se1,603.5,92069,0.00089772,0.00010678,1.8703,0.41105,0.0000108614,0.0004799872
3503,10.1021/ja400069s,105,6(a),286,Pb0.98Sr0.01Na0.01Se1,Pb0.98Sr0.01Na0.01Se1,604,91863,0.00089874,0.00010698,1.8681,0.41202,0.0000108858,0.0004810984
3503,10.1021/ja400069s,105,6(a),286,Pb0.98Sr0.01Na0.01Se1,Pb0.98Sr0.01Na0.01Se1,604.5,91657,0.00089975,0.00010718,1.866,0.413,0.0000109102,0.0004821811
3503,10.1021/ja400069s,105,6(a),286,Pb0.98Sr0.01Na0.01Se1,Pb0.98Sr0.01Na0.01Se1,605,91451,0.00090077,0.00010738,1.8638,0.41397,0.0000109348,0.0004832976
3503,10.1021/ja400069s,105,6(a),286,Pb0.98Sr0.01Na0.01Se1,Pb0.98Sr0.01Na0.01Se1,605.5,91246,0.00090178,0.00010758,1.8616,0.41495,0.0000109594,0.0004844113
3503,10.1021/ja400069s,105,6(a),286,Pb0.98Sr0.01Na0.01Se1,Pb0.98Sr0.01Na0.01Se1,606,91041,0.0009028,0.00010778,1.8595,0.41592,0.0000109841,0.0004855069
3503,10.1021/ja400069s,105,6(a),286,Pb0.98Sr0.01Na0.01Se1,Pb0.98Sr0.01Na0.01Se1,606.5,90836,0.00090381,0.00010797,1.8573,0.4169,0.0000110089,0.0004866257
3503,10.1021/ja400069s,105,6(a),286,Pb0.98Sr0.01Na0.01Se1,Pb0.98Sr0.01Na0.01Se1,607,90632,0.00090483,0.00010817,1.8551,0.41787,0.0000110336,0.0004877527
3503,10.1021/ja400069s,105,6(a),286,Pb0.98Sr0.01Na0.01Se1,Pb0.98Sr0.01Na0.01Se1,607.5,90428,0.00090584,0.00010837,1.853,0.41885,0.0000110585,0.0004888505
3503,10.1021/ja400069s,105,6(a),286,Pb0.98Sr0.01Na0.01Se1,Pb0.98Sr0.01Na0.01Se1,608,90224,0.00090686,0.00010857,1.8508,0.41982,0.0000110835,0.0004899827
3503,10.1021/ja400069s,105,6(a),286,Pb0.98Sr0.01Na0.01Se1,Pb0.98Sr0.01Na0.01Se1,608.5,90021,0.00090787,0.00010877,1.8487,0.4208,0.0000111085,0.0004910856
3503,10.1021/ja400069s,105,6(a),286,Pb0.98Sr0.01Na0.01Se1,Pb0.98Sr0.01Na0.01Se1,609,89818,0.00090889,0.00010897,1.8465,0.42177,0.0000111336,0.0004922231
3503,10.1021/ja400069s,105,6(a),286,Pb0.98Sr0.01Na0.01Se1,Pb0.98Sr0.01Na0.01Se1,609.5,89615,0.0009099,0.00010917,1.8444,0.42275,0.0000111588,0.0004933312
3503,10.1021/ja400069s,105,6(a),286,Pb0.98Sr0.01Na0.01Se1,Pb0.98Sr0.01Na0.01Se1,610,89413,0.00091092,0.00010937,1.8422,0.42372,0.0000111841,0.000494474
3503,10.1021/ja400069s,105,6(a),286,Pb0.98Sr0.01Na0.01Se1,Pb0.98Sr0.01Na0.01Se1,610.5,89211,0.00091193,0.00010957,1.8401,0.4247,0.0000112094,0.0004955872
3503,10.1021/ja400069s,105,6(a),286,Pb0.98Sr0.01Na0.01Se1,Pb0.98Sr0.01Na0.01Se1,611,89010,0.00091295,0.00010977,1.838,0.42567,0.0000112347,0.0004967084
3503,10.1021/ja400069s,105,6(a),286,Pb0.98Sr0.01Na0.01Se1,Pb0.98Sr0.01Na0.01Se1,611.5,88809,0.00091397,0.00010997,1.8358,0.42665,0.0000112601,0.0004978592
3503,10.1021/ja400069s,105,6(a),286,Pb0.98Sr0.01Na0.01Se1,Pb0.98Sr0.01Na0.01Se1,612,88608,0.00091498,0.00011017,1.8337,0.42762,0.0000112857,0.0004989802
3503,10.1021/ja400069s,105,6(a),286,Pb0.98Sr0.01Na0.01Se1,Pb0.98Sr0.01Na0.01Se1,612.5,88407,0.000916,0.00011037,1.8316,0.4286,0.0000113113,0.0005001092
3503,10.1021/ja400069s,105,6(a),286,Pb0.98Sr0.01Na0.01Se1,Pb0.98Sr0.01Na0.01Se1,613,88207,0.00091701,0.00011057,1.8294,0.42957,0.000011337,0.0005012627
3503,10.1021/ja400069s,105,6(a),286,Pb0.98Sr0.01Na0.01Se1,Pb0.98Sr0.01Na0.01Se1,613.5,88008,0.00091803,0.00011077,1.8273,0.43055,0.0000113626,0.000502397
3503,10.1021/ja400069s,105,6(a),286,Pb0.98Sr0.01Na0.01Se1,Pb0.98Sr0.01Na0.01Se1,614,87808,0.00091904,0.00011097,1.8252,0.43152,0.0000113885,0.0005035284
3503,10.1021/ja400069s,105,6(a),286,Pb0.98Sr0.01Na0.01Se1,Pb0.98Sr0.01Na0.01Se1,614.5,87609,0.00092006,0.00011118,1.8231,0.43249,0.0000114144,0.0005046679
3503,10.1021/ja400069s,105,6(a),286,Pb0.98Sr0.01Na0.01Se1,Pb0.98Sr0.01Na0.01Se1,615,87410,0.00092107,0.00011138,1.821,0.43347,0.0000114403,0.0005058045
3503,10.1021/ja400069s,105,6(a),286,Pb0.98Sr0.01Na0.01Se1,Pb0.98Sr0.01Na0.01Se1,615.5,87212,0.00092209,0.00011158,1.8189,0.43444,0.0000114663,0.0005069493
3503,10.1021/ja400069s,105,6(a),286,Pb0.98Sr0.01Na0.01Se1,Pb0.98Sr0.01Na0.01Se1,616,87014,0.0009231,0.00011178,1.8168,0.43542,0.0000114924,0.0005080911
3503,10.1021/ja400069s,105,6(a),286,Pb0.98Sr0.01Na0.01Se1,Pb0.98Sr0.01Na0.01Se1,616.5,86817,0.00092412,0.00011198,1.8146,0.43639,0.0000115185,0.0005092693
3503,10.1021/ja400069s,105,6(a),286,Pb0.98Sr0.01Na0.01Se1,Pb0.98Sr0.01Na0.01Se1,617,86619,0.00092513,0.00011218,1.8125,0.43737,0.0000115448,0.0005104166
3503,10.1021/ja400069s,105,6(a),286,Pb0.98Sr0.01Na0.01Se1,Pb0.98Sr0.01Na0.01Se1,617.5,86422,0.00092615,0.00011239,1.8104,0.43834,0.0000115711,0.000511572