sid,DOI,figureid,fignum,sampleid,samplename,composition,Temperature,Electrical conductivity,Power factor,Seebeck coefficient,Thermal conductivity,ZT,Electrical resistivity,Figure of merit Z
3503,10.1021/ja400069s,105,6(a),311,Pb0.99Na0.01Se1,Pb0.99Na0.01Se1,573.5,113220,0.00080015,0.000089915,2.3002,0.31734,0.0000088324,0.0003478611
3503,10.1021/ja400069s,105,6(a),311,Pb0.99Na0.01Se1,Pb0.99Na0.01Se1,574,112980,0.00080113,0.000090091,2.2975,0.31809,0.0000088511,0.0003486964
3503,10.1021/ja400069s,105,6(a),311,Pb0.99Na0.01Se1,Pb0.99Na0.01Se1,574.5,112740,0.00080212,0.000090268,2.2949,0.31885,0.00000887,0.0003495229
3503,10.1021/ja400069s,105,6(a),311,Pb0.99Na0.01Se1,Pb0.99Na0.01Se1,575,112510,0.0008031,0.000090445,2.2922,0.3196,0.0000088881,0.0003503621
3503,10.1021/ja400069s,105,6(a),311,Pb0.99Na0.01Se1,Pb0.99Na0.01Se1,575.5,112270,0.00080409,0.000090622,2.2895,0.32036,0.0000089071,0.0003512077
3503,10.1021/ja400069s,105,6(a),311,Pb0.99Na0.01Se1,Pb0.99Na0.01Se1,576,112030,0.00080507,0.000090799,2.2868,0.32112,0.0000089262,0.0003520509
3503,10.1021/ja400069s,105,6(a),311,Pb0.99Na0.01Se1,Pb0.99Na0.01Se1,576.5,111800,0.00080606,0.000090977,2.2841,0.32187,0.0000089445,0.0003529005
3503,10.1021/ja400069s,105,6(a),311,Pb0.99Na0.01Se1,Pb0.99Na0.01Se1,577,111560,0.00080705,0.000091154,2.2815,0.32263,0.0000089638,0.0003537366
3503,10.1021/ja400069s,105,6(a),311,Pb0.99Na0.01Se1,Pb0.99Na0.01Se1,577.5,111320,0.00080803,0.000091332,2.2788,0.32338,0.0000089831,0.0003545857
3503,10.1021/ja400069s,105,6(a),311,Pb0.99Na0.01Se1,Pb0.99Na0.01Se1,578,111090,0.00080902,0.00009151,2.2761,0.32414,0.0000090017,0.0003554413
3503,10.1021/ja400069s,105,6(a),311,Pb0.99Na0.01Se1,Pb0.99Na0.01Se1,578.5,110850,0.00081,0.000091688,2.2735,0.32489,0.0000090212,0.0003562789
3503,10.1021/ja400069s,105,6(a),311,Pb0.99Na0.01Se1,Pb0.99Na0.01Se1,579,110620,0.00081099,0.000091866,2.2708,0.32565,0.00000904,0.0003571385
3503,10.1021/ja400069s,105,6(a),311,Pb0.99Na0.01Se1,Pb0.99Na0.01Se1,579.5,110380,0.00081197,0.000092044,2.2682,0.3264,0.0000090596,0.0003579799
3503,10.1021/ja400069s,105,6(a),311,Pb0.99Na0.01Se1,Pb0.99Na0.01Se1,580,110150,0.00081296,0.000092222,2.2655,0.32716,0.0000090785,0.0003588435
3503,10.1021/ja400069s,105,6(a),311,Pb0.99Na0.01Se1,Pb0.99Na0.01Se1,580.5,109920,0.00081395,0.000092401,2.2629,0.32791,0.0000090975,0.0003596933
3503,10.1021/ja400069s,105,6(a),311,Pb0.99Na0.01Se1,Pb0.99Na0.01Se1,581,109680,0.00081493,0.00009258,2.2602,0.32867,0.0000091174,0.0003605566
3503,10.1021/ja400069s,105,6(a),311,Pb0.99Na0.01Se1,Pb0.99Na0.01Se1,581.5,109450,0.00081592,0.000092759,2.2576,0.32943,0.0000091366,0.0003614103
3503,10.1021/ja400069s,105,6(a),311,Pb0.99Na0.01Se1,Pb0.99Na0.01Se1,582,109220,0.0008169,0.000092938,2.2549,0.33018,0.0000091558,0.0003622777
3503,10.1021/ja400069s,105,6(a),311,Pb0.99Na0.01Se1,Pb0.99Na0.01Se1,582.5,108980,0.00081789,0.000093117,2.2523,0.33094,0.000009176,0.0003631355
3503,10.1021/ja400069s,105,6(a),311,Pb0.99Na0.01Se1,Pb0.99Na0.01Se1,583,108750,0.00081887,0.000093296,2.2497,0.33169,0.0000091954,0.0003639908
3503,10.1021/ja400069s,105,6(a),311,Pb0.99Na0.01Se1,Pb0.99Na0.01Se1,583.5,108520,0.00081986,0.000093475,2.247,0.33245,0.0000092149,0.0003648687
3503,10.1021/ja400069s,105,6(a),311,Pb0.99Na0.01Se1,Pb0.99Na0.01Se1,584,108280,0.00082085,0.000093655,2.2444,0.3332,0.0000092353,0.0003657325
3503,10.1021/ja400069s,105,6(a),311,Pb0.99Na0.01Se1,Pb0.99Na0.01Se1,584.5,108050,0.00082183,0.000093835,2.2418,0.33396,0.000009255,0.0003665938
3503,10.1021/ja400069s,105,6(a),311,Pb0.99Na0.01Se1,Pb0.99Na0.01Se1,585,107820,0.00082282,0.000094015,2.2392,0.33471,0.0000092747,0.0003674616
3503,10.1021/ja400069s,105,6(a),311,Pb0.99Na0.01Se1,Pb0.99Na0.01Se1,585.5,107590,0.0008238,0.000094195,2.2366,0.33547,0.0000092945,0.0003683269
3503,10.1021/ja400069s,105,6(a),311,Pb0.99Na0.01Se1,Pb0.99Na0.01Se1,586,107360,0.00082479,0.000094375,2.234,0.33622,0.0000093145,0.0003691987
3503,10.1021/ja400069s,105,6(a),311,Pb0.99Na0.01Se1,Pb0.99Na0.01Se1,586.5,107130,0.00082577,0.000094555,2.2314,0.33698,0.0000093345,0.0003700681
3503,10.1021/ja400069s,105,6(a),311,Pb0.99Na0.01Se1,Pb0.99Na0.01Se1,587,106900,0.00082676,0.000094736,2.2288,0.33774,0.0000093545,0.000370944
3503,10.1021/ja400069s,105,6(a),311,Pb0.99Na0.01Se1,Pb0.99Na0.01Se1,587.5,106670,0.00082774,0.000094916,2.2262,0.33849,0.0000093747,0.0003718174
3503,10.1021/ja400069s,105,6(a),311,Pb0.99Na0.01Se1,Pb0.99Na0.01Se1,588,106440,0.00082873,0.000095097,2.2236,0.33925,0.000009395,0.0003726974
3503,10.1021/ja400069s,105,6(a),311,Pb0.99Na0.01Se1,Pb0.99Na0.01Se1,588.5,106210,0.00082972,0.000095278,2.221,0.34,0.0000094153,0.0003735795
3503,10.1021/ja400069s,105,6(a),311,Pb0.99Na0.01Se1,Pb0.99Na0.01Se1,589,105980,0.0008307,0.000095459,2.2184,0.34076,0.0000094357,0.0003744591
3503,10.1021/ja400069s,105,6(a),311,Pb0.99Na0.01Se1,Pb0.99Na0.01Se1,589.5,105750,0.00083169,0.00009564,2.2158,0.34151,0.0000094563,0.0003753452
3503,10.1021/ja400069s,105,6(a),311,Pb0.99Na0.01Se1,Pb0.99Na0.01Se1,590,105520,0.00083267,0.000095821,2.2132,0.34227,0.0000094769,0.000376229
3503,10.1021/ja400069s,105,6(a),311,Pb0.99Na0.01Se1,Pb0.99Na0.01Se1,590.5,105290,0.00083366,0.000096003,2.2107,0.34302,0.0000094976,0.0003771023
3503,10.1021/ja400069s,105,6(a),311,Pb0.99Na0.01Se1,Pb0.99Na0.01Se1,591,105070,0.00083464,0.000096184,2.2081,0.34378,0.0000095175,0.0003779901
3503,10.1021/ja400069s,105,6(a),311,Pb0.99Na0.01Se1,Pb0.99Na0.01Se1,591.5,104840,0.00083563,0.000096366,2.2055,0.34453,0.0000095383,0.0003788846
3503,10.1021/ja400069s,105,6(a),311,Pb0.99Na0.01Se1,Pb0.99Na0.01Se1,592,104610,0.00083662,0.000096548,2.203,0.34529,0.0000095593,0.000379764
3503,10.1021/ja400069s,105,6(a),311,Pb0.99Na0.01Se1,Pb0.99Na0.01Se1,592.5,104380,0.0008376,0.00009673,2.2004,0.34604,0.0000095804,0.0003806581
3503,10.1021/ja400069s,105,6(a),311,Pb0.99Na0.01Se1,Pb0.99Na0.01Se1,593,104160,0.00083859,0.000096912,2.1978,0.3468,0.0000096006,0.0003815588
3503,10.1021/ja400069s,105,6(a),311,Pb0.99Na0.01Se1,Pb0.99Na0.01Se1,593.5,103930,0.00083957,0.000097094,2.1953,0.34756,0.0000096219,0.0003824398
3503,10.1021/ja400069s,105,6(a),311,Pb0.99Na0.01Se1,Pb0.99Na0.01Se1,594,103700,0.00084056,0.000097276,2.1927,0.34831,0.0000096432,0.0003833447
3503,10.1021/ja400069s,105,6(a),311,Pb0.99Na0.01Se1,Pb0.99Na0.01Se1,594.5,103480,0.00084154,0.000097459,2.1902,0.34907,0.0000096637,0.0003842298
3503,10.1021/ja400069s,105,6(a),311,Pb0.99Na0.01Se1,Pb0.99Na0.01Se1,595,103250,0.00084253,0.000097642,2.1876,0.34982,0.0000096852,0.000385139
3503,10.1021/ja400069s,105,6(a),311,Pb0.99Na0.01Se1,Pb0.99Na0.01Se1,595.5,103030,0.00084351,0.000097824,2.1851,0.35058,0.0000097059,0.0003860281
3503,10.1021/ja400069s,105,6(a),311,Pb0.99Na0.01Se1,Pb0.99Na0.01Se1,596,102800,0.0008445,0.000098007,2.1826,0.35133,0.0000097276,0.0003869239
3503,10.1021/ja400069s,105,6(a),311,Pb0.99Na0.01Se1,Pb0.99Na0.01Se1,596.5,102580,0.00084549,0.00009819,2.18,0.35209,0.0000097485,0.0003878394
3503,10.1021/ja400069s,105,6(a),311,Pb0.99Na0.01Se1,Pb0.99Na0.01Se1,597,102350,0.00084647,0.000098374,2.1775,0.35284,0.0000097704,0.0003887348
3503,10.1021/ja400069s,105,6(a),311,Pb0.99Na0.01Se1,Pb0.99Na0.01Se1,597.5,102130,0.00084746,0.000098557,2.175,0.3536,0.0000097914,0.0003896368
3503,10.1021/ja400069s,105,6(a),311,Pb0.99Na0.01Se1,Pb0.99Na0.01Se1,598,101900,0.00084844,0.00009874,2.1725,0.35435,0.0000098135,0.0003905362
3503,10.1021/ja400069s,105,6(a),311,Pb0.99Na0.01Se1,Pb0.99Na0.01Se1,598.5,101680,0.00084943,0.000098924,2.1699,0.35511,0.0000098348,0.0003914604
3503,10.1021/ja400069s,105,6(a),311,Pb0.99Na0.01Se1,Pb0.99Na0.01Se1,599,101460,0.00085041,0.000099108,2.1674,0.35587,0.0000098561,0.0003923641
3503,10.1021/ja400069s,105,6(a),311,Pb0.99Na0.01Se1,Pb0.99Na0.01Se1,599.5,101230,0.0008514,0.000099291,2.1649,0.35662,0.0000098785,0.0003932745
3503,10.1021/ja400069s,105,6(a),311,Pb0.99Na0.01Se1,Pb0.99Na0.01Se1,600,101010,0.00085239,0.000099475,2.1624,0.35738,0.0000099,0.000394187
3503,10.1021/ja400069s,105,6(a),311,Pb0.99Na0.01Se1,Pb0.99Na0.01Se1,600.5,100790,0.00085337,0.000099659,2.1599,0.35813,0.0000099216,0.000395097
3503,10.1021/ja400069s,105,6(a),311,Pb0.99Na0.01Se1,Pb0.99Na0.01Se1,601,100560,0.00085436,0.000099844,2.1574,0.35889,0.0000099443,0.0003960137
3503,10.1021/ja400069s,105,6(a),311,Pb0.99Na0.01Se1,Pb0.99Na0.01Se1,601.5,100340,0.00085534,0.00010003,2.1549,0.35964,0.0000099661,0.0003969279
3503,10.1021/ja400069s,105,6(a),311,Pb0.99Na0.01Se1,Pb0.99Na0.01Se1,602,100120,0.00085633,0.00010021,2.1524,0.3604,0.000009988,0.0003978489
3503,10.1021/ja400069s,105,6(a),311,Pb0.99Na0.01Se1,Pb0.99Na0.01Se1,602.5,99899,0.00085731,0.0001004,2.1499,0.36115,0.0000100101,0.0003987674
3503,10.1021/ja400069s,105,6(a),311,Pb0.99Na0.01Se1,Pb0.99Na0.01Se1,603,99678,0.0008583,0.00010058,2.1475,0.36191,0.0000100323,0.000399674
3503,10.1021/ja400069s,105,6(a),311,Pb0.99Na0.01Se1,Pb0.99Na0.01Se1,603.5,99457,0.00085928,0.00010077,2.145,0.36266,0.0000100546,0.0004005967
3503,10.1021/ja400069s,105,6(a),311,Pb0.99Na0.01Se1,Pb0.99Na0.01Se1,604,99237,0.00086027,0.00010095,2.1425,0.36342,0.0000100769,0.0004015263
3503,10.1021/ja400069s,105,6(a),311,Pb0.99Na0.01Se1,Pb0.99Na0.01Se1,604.5,99017,0.00086126,0.00010114,2.14,0.36417,0.0000100993,0.0004024579
3503,10.1021/ja400069s,105,6(a),311,Pb0.99Na0.01Se1,Pb0.99Na0.01Se1,605,98797,0.00086224,0.00010132,2.1375,0.36493,0.0000101218,0.0004033871
3503,10.1021/ja400069s,105,6(a),311,Pb0.99Na0.01Se1,Pb0.99Na0.01Se1,605.5,98577,0.00086323,0.00010151,2.1351,0.36569,0.0000101444,0.0004043042
3503,10.1021/ja400069s,105,6(a),311,Pb0.99Na0.01Se1,Pb0.99Na0.01Se1,606,98358,0.00086421,0.00010169,2.1326,0.36644,0.0000101669,0.0004052377
3503,10.1021/ja400069s,105,6(a),311,Pb0.99Na0.01Se1,Pb0.99Na0.01Se1,606.5,98139,0.0008652,0.00010188,2.1302,0.3672,0.0000101896,0.000406159
3503,10.1021/ja400069s,105,6(a),311,Pb0.99Na0.01Se1,Pb0.99Na0.01Se1,607,97920,0.00086618,0.00010206,2.1277,0.36795,0.0000102124,0.0004070969
3503,10.1021/ja400069s,105,6(a),311,Pb0.99Na0.01Se1,Pb0.99Na0.01Se1,607.5,97701,0.00086717,0.00010225,2.1252,0.36871,0.0000102353,0.0004080416
3503,10.1021/ja400069s,105,6(a),311,Pb0.99Na0.01Se1,Pb0.99Na0.01Se1,608,97483,0.00086816,0.00010244,2.1228,0.36946,0.0000102582,0.0004089693
3503,10.1021/ja400069s,105,6(a),311,Pb0.99Na0.01Se1,Pb0.99Na0.01Se1,608.5,97265,0.00086914,0.00010262,2.1204,0.37022,0.0000102812,0.0004098944
3503,10.1021/ja400069s,105,6(a),311,Pb0.99Na0.01Se1,Pb0.99Na0.01Se1,609,97048,0.00087013,0.00010281,2.1179,0.37097,0.0000103042,0.0004108456
3503,10.1021/ja400069s,105,6(a),311,Pb0.99Na0.01Se1,Pb0.99Na0.01Se1,609.5,96831,0.00087111,0.00010299,2.1155,0.37173,0.0000103273,0.000411775
3503,10.1021/ja400069s,105,6(a),311,Pb0.99Na0.01Se1,Pb0.99Na0.01Se1,610,96614,0.0008721,0.00010318,2.113,0.37248,0.0000103505,0.0004127307
3503,10.1021/ja400069s,105,6(a),311,Pb0.99Na0.01Se1,Pb0.99Na0.01Se1,610.5,96397,0.00087308,0.00010337,2.1106,0.37324,0.0000103738,0.0004136644
3503,10.1021/ja400069s,105,6(a),311,Pb0.99Na0.01Se1,Pb0.99Na0.01Se1,611,96181,0.00087407,0.00010355,2.1082,0.374,0.0000103971,0.0004146049
3503,10.1021/ja400069s,105,6(a),311,Pb0.99Na0.01Se1,Pb0.99Na0.01Se1,611.5,95965,0.00087505,0.00010374,2.1058,0.37475,0.0000104205,0.0004155428
3503,10.1021/ja400069s,105,6(a),311,Pb0.99Na0.01Se1,Pb0.99Na0.01Se1,612,95749,0.00087604,0.00010393,2.1033,0.37551,0.000010444,0.0004165074
3503,10.1021/ja400069s,105,6(a),311,Pb0.99Na0.01Se1,Pb0.99Na0.01Se1,612.5,95533,0.00087703,0.00010411,2.1009,0.37626,0.0000104676,0.0004174544
3503,10.1021/ja400069s,105,6(a),311,Pb0.99Na0.01Se1,Pb0.99Na0.01Se1,613,95318,0.00087801,0.0001043,2.0985,0.37702,0.0000104912,0.0004183989
3503,10.1021/ja400069s,105,6(a),311,Pb0.99Na0.01Se1,Pb0.99Na0.01Se1,613.5,95103,0.000879,0.00010449,2.0961,0.37777,0.0000105149,0.0004193502
3503,10.1021/ja400069s,105,6(a),311,Pb0.99Na0.01Se1,Pb0.99Na0.01Se1,614,94889,0.00087998,0.00010468,2.0937,0.37853,0.0000105386,0.000420299
3503,10.1021/ja400069s,105,6(a),311,Pb0.99Na0.01Se1,Pb0.99Na0.01Se1,614.5,94674,0.00088097,0.00010486,2.0913,0.37928,0.0000105626,0.0004212547
3503,10.1021/ja400069s,105,6(a),311,Pb0.99Na0.01Se1,Pb0.99Na0.01Se1,615,94460,0.00088195,0.00010505,2.0889,0.38004,0.0000105865,0.0004222079
3503,10.1021/ja400069s,105,6(a),311,Pb0.99Na0.01Se1,Pb0.99Na0.01Se1,615.5,94247,0.00088294,0.00010524,2.0865,0.38079,0.0000106104,0.000423168
3503,10.1021/ja400069s,105,6(a),311,Pb0.99Na0.01Se1,Pb0.99Na0.01Se1,616,94033,0.00088393,0.00010543,2.0841,0.38155,0.0000106346,0.0004241303
3503,10.1021/ja400069s,105,6(a),311,Pb0.99Na0.01Se1,Pb0.99Na0.01Se1,616.5,93820,0.00088491,0.00010561,2.0817,0.3823,0.0000106587,0.0004250901
3503,10.1021/ja400069s,105,6(a),311,Pb0.99Na0.01Se1,Pb0.99Na0.01Se1,617,93608,0.0008859,0.0001058,2.0793,0.38306,0.0000106828,0.0004260568
3503,10.1021/ja400069s,105,6(a),311,Pb0.99Na0.01Se1,Pb0.99Na0.01Se1,617.5,93395,0.00088688,0.00010599,2.0769,0.38382,0.0000107072,0.000427021
3503,10.1021/ja400069s,105,6(a),311,Pb0.99Na0.01Se1,Pb0.99Na0.01Se1,618,93183,0.00088787,0.00010618,2.0746,0.38457,0.0000107316,0.0004279717
3503,10.1021/ja400069s,105,6(a),311,Pb0.99Na0.01Se1,Pb0.99Na0.01Se1,618.5,92971,0.00088885,0.00010637,2.0722,0.38533,0.000010756,0.0004289403
3503,10.1021/ja400069s,105,6(a),311,Pb0.99Na0.01Se1,Pb0.99Na0.01Se1,619,92760,0.00088984,0.00010656,2.0698,0.38608,0.0000107805,0.0004299159
3503,10.1021/ja400069s,105,6(a),311,Pb0.99Na0.01Se1,Pb0.99Na0.01Se1,619.5,92548,0.00089082,0.00010674,2.0675,0.38684,0.0000108052,0.0004308682
3503,10.1021/ja400069s,105,6(a),311,Pb0.99Na0.01Se1,Pb0.99Na0.01Se1,620,92337,0.00089181,0.00010693,2.0651,0.38759,0.0000108299,0.0004318483
3503,10.1021/ja400069s,105,6(a),311,Pb0.99Na0.01Se1,Pb0.99Na0.01Se1,620.5,92127,0.0008928,0.00010712,2.0627,0.38835,0.0000108546,0.0004328308
3503,10.1021/ja400069s,105,6(a),311,Pb0.99Na0.01Se1,Pb0.99Na0.01Se1,621,91916,0.00089378,0.00010731,2.0604,0.3891,0.0000108795,0.0004337896
3503,10.1021/ja400069s,105,6(a),311,Pb0.99Na0.01Se1,Pb0.99Na0.01Se1,621.5,91706,0.00089477,0.0001075,2.058,0.38986,0.0000109044,0.0004347765
3503,10.1021/ja400069s,105,6(a),311,Pb0.99Na0.01Se1,Pb0.99Na0.01Se1,622,91497,0.00089575,0.00010769,2.0557,0.39061,0.0000109293,0.0004357397
3503,10.1021/ja400069s,105,6(a),311,Pb0.99Na0.01Se1,Pb0.99Na0.01Se1,622.5,91287,0.00089674,0.00010788,2.0533,0.39137,0.0000109545,0.0004367311
3503,10.1021/ja400069s,105,6(a),311,Pb0.99Na0.01Se1,Pb0.99Na0.01Se1,623,91078,0.00089772,0.00010807,2.051,0.39213,0.0000109796,0.0004376987
3503,10.1021/ja400069s,105,6(a),311,Pb0.99Na0.01Se1,Pb0.99Na0.01Se1,623.5,90869,0.00089871,0.00010826,2.0487,0.39288,0.0000110049,0.0004386733
3503,10.1021/ja400069s,105,6(a),311,Pb0.99Na0.01Se1,Pb0.99Na0.01Se1,624,90661,0.0008997,0.00010845,2.0463,0.39364,0.0000110301,0.0004396716
3503,10.1021/ja400069s,105,6(a),311,Pb0.99Na0.01Se1,Pb0.99Na0.01Se1,624.5,90453,0.00090068,0.00010864,2.044,0.39439,0.0000110555,0.0004406458
3503,10.1021/ja400069s,105,6(a),311,Pb0.99Na0.01Se1,Pb0.99Na0.01Se1,625,90245,0.00090167,0.00010883,2.0417,0.39515,0.0000110809,0.0004416271
3503,10.1021/ja400069s,105,6(a),311,Pb0.99Na0.01Se1,Pb0.99Na0.01Se1,625.5,90037,0.00090265,0.00010902,2.0393,0.3959,0.0000111065,0.0004426274
3503,10.1021/ja400069s,105,6(a),311,Pb0.99Na0.01Se1,Pb0.99Na0.01Se1,626,89830,0.00090364,0.00010921,2.037,0.39666,0.0000111321,0.0004436132
3503,10.1021/ja400069s,105,6(a),311,Pb0.99Na0.01Se1,Pb0.99Na0.01Se1,626.5,89623,0.00090462,0.0001094,2.0347,0.39741,0.0000111579,0.0004445963
3503,10.1021/ja400069s,105,6(a),311,Pb0.99Na0.01Se1,Pb0.99Na0.01Se1,627,89416,0.00090561,0.00010959,2.0324,0.39817,0.0000111837,0.0004455865
3503,10.1021/ja400069s,105,6(a),311,Pb0.99Na0.01Se1,Pb0.99Na0.01Se1,627.5,89210,0.00090659,0.00010978,2.0301,0.39892,0.0000112095,0.0004465741
3503,10.1021/ja400069s,105,6(a),311,Pb0.99Na0.01Se1,Pb0.99Na0.01Se1,628,89004,0.00090758,0.00010997,2.0278,0.39968,0.0000112355,0.0004475688
3503,10.1021/ja400069s,105,6(a),311,Pb0.99Na0.01Se1,Pb0.99Na0.01Se1,628.5,88798,0.00090857,0.00011016,2.0255,0.40043,0.0000112615,0.0004485658
3503,10.1021/ja400069s,105,6(a),311,Pb0.99Na0.01Se1,Pb0.99Na0.01Se1,629,88593,0.00090955,0.00011035,2.0232,0.40119,0.0000112876,0.0004495601
3503,10.1021/ja400069s,105,6(a),311,Pb0.99Na0.01Se1,Pb0.99Na0.01Se1,629.5,88388,0.00091054,0.00011054,2.0209,0.40195,0.0000113138,0.0004505616
3503,10.1021/ja400069s,105,6(a),311,Pb0.99Na0.01Se1,Pb0.99Na0.01Se1,630,88183,0.00091152,0.00011073,2.0186,0.4027,0.0000113401,0.0004515605
3503,10.1021/ja400069s,105,6(a),311,Pb0.99Na0.01Se1,Pb0.99Na0.01Se1,630.5,87978,0.00091251,0.00011092,2.0163,0.40346,0.0000113665,0.0004525666
3503,10.1021/ja400069s,105,6(a),311,Pb0.99Na0.01Se1,Pb0.99Na0.01Se1,631,87774,0.00091349,0.00011111,2.014,0.40421,0.0000113929,0.00045357
3503,10.1021/ja400069s,105,6(a),311,Pb0.99Na0.01Se1,Pb0.99Na0.01Se1,631.5,87570,0.00091448,0.0001113,2.0118,0.40497,0.0000114194,0.0004545581
3503,10.1021/ja400069s,105,6(a),311,Pb0.99Na0.01Se1,Pb0.99Na0.01Se1,632,87367,0.00091547,0.00011149,2.0095,0.40572,0.000011446,0.000455571
3503,10.1021/ja400069s,105,6(a),311,Pb0.99Na0.01Se1,Pb0.99Na0.01Se1,632.5,87164,0.00091645,0.00011168,2.0072,0.40648,0.0000114726,0.0004565813
3503,10.1021/ja400069s,105,6(a),311,Pb0.99Na0.01Se1,Pb0.99Na0.01Se1,633,86961,0.00091744,0.00011188,2.0049,0.40723,0.0000114994,0.0004575989
3503,10.1021/ja400069s,105,6(a),311,Pb0.99Na0.01Se1,Pb0.99Na0.01Se1,633.5,86758,0.00091842,0.00011207,2.0027,0.40799,0.0000115263,0.0004585909
3503,10.1021/ja400069s,105,6(a),311,Pb0.99Na0.01Se1,Pb0.99Na0.01Se1,634,86556,0.00091941,0.00011226,2.0004,0.40874,0.0000115532,0.0004596131
3503,10.1021/ja400069s,105,6(a),311,Pb0.99Na0.01Se1,Pb0.99Na0.01Se1,634.5,86354,0.00092039,0.00011245,1.9981,0.4095,0.0000115802,0.0004606326
3503,10.1021/ja400069s,105,6(a),311,Pb0.99Na0.01Se1,Pb0.99Na0.01Se1,635,86152,0.00092138,0.00011264,1.9959,0.41026,0.0000116074,0.0004616364
3503,10.1021/ja400069s,105,6(a),311,Pb0.99Na0.01Se1,Pb0.99Na0.01Se1,635.5,85951,0.00092237,0.00011283,1.9936,0.41101,0.0000116345,0.0004626655
3503,10.1021/ja400069s,105,6(a),311,Pb0.99Na0.01Se1,Pb0.99Na0.01Se1,636,85750,0.00092335,0.00011303,1.9914,0.41177,0.0000116618,0.0004636688
3503,10.1021/ja400069s,105,6(a),311,Pb0.99Na0.01Se1,Pb0.99Na0.01Se1,636.5,85549,0.00092434,0.00011322,1.9892,0.41252,0.0000116892,0.0004646793
3503,10.1021/ja400069s,105,6(a),311,Pb0.99Na0.01Se1,Pb0.99Na0.01Se1,637,85349,0.00092532,0.00011341,1.9869,0.41328,0.0000117166,0.0004657104
3503,10.1021/ja400069s,105,6(a),311,Pb0.99Na0.01Se1,Pb0.99Na0.01Se1,637.5,85148,0.00092631,0.0001136,1.9847,0.41403,0.0000117443,0.0004667254
3503,10.1021/ja400069s,105,6(a),311,Pb0.99Na0.01Se1,Pb0.99Na0.01Se1,638,84949,0.00092729,0.00011379,1.9824,0.41479,0.0000117718,0.0004677613
3503,10.1021/ja400069s,105,6(a),311,Pb0.99Na0.01Se1,Pb0.99Na0.01Se1,638.5,84749,0.00092828,0.00011399,1.9802,0.41554,0.0000117995,0.0004687809
3503,10.1021/ja400069s,105,6(a),311,Pb0.99Na0.01Se1,Pb0.99Na0.01Se1,639,84550,0.00092926,0.00011418,1.978,0.4163,0.0000118273,0.0004697978
3503,10.1021/ja400069s,105,6(a),311,Pb0.99Na0.01Se1,Pb0.99Na0.01Se1,639.5,84351,0.00093025,0.00011437,1.9758,0.41705,0.0000118552,0.0004708219
3503,10.1021/ja400069s,105,6(a),311,Pb0.99Na0.01Se1,Pb0.99Na0.01Se1,640,84153,0.00093124,0.00011456,1.9735,0.41781,0.0000118831,0.0004718723
3503,10.1021/ja400069s,105,6(a),311,Pb0.99Na0.01Se1,Pb0.99Na0.01Se1,640.5,83955,0.00093222,0.00011476,1.9713,0.41857,0.0000119111,0.0004728961
3503,10.1021/ja400069s,105,6(a),311,Pb0.99Na0.01Se1,Pb0.99Na0.01Se1,641,83757,0.00093321,0.00011495,1.9691,0.41932,0.0000119393,0.0004739272
3503,10.1021/ja400069s,105,6(a),311,Pb0.99Na0.01Se1,Pb0.99Na0.01Se1,641.5,83559,0.00093419,0.00011514,1.9669,0.42008,0.0000119676,0.0004749555
3503,10.1021/ja400069s,105,6(a),311,Pb0.99Na0.01Se1,Pb0.99Na0.01Se1,642,83362,0.00093518,0.00011534,1.9647,0.42083,0.0000119959,0.0004759912
3503,10.1021/ja400069s,105,6(a),311,Pb0.99Na0.01Se1,Pb0.99Na0.01Se1,642.5,83165,0.00093616,0.00011553,1.9625,0.42159,0.0000120243,0.0004770242