sid,DOI,figureid,fignum,sampleid,samplename,composition,Temperature,Electrical conductivity,Power factor,Seebeck coefficient,Thermal conductivity,ZT,Electrical resistivity,Figure of merit Z
3503,10.1021/ja400069s,105,6(a),393,Pb0.95Ba0.04Na0.01Se1,Pb0.95Ba0.04Na0.01Se1,751.5,33176,0.0010496,0.00019309,1.0942,0.76499,0.0000301423,0.0009592396
3503,10.1021/ja400069s,105,6(a),393,Pb0.95Ba0.04Na0.01Se1,Pb0.95Ba0.04Na0.01Se1,752,33105,0.0010504,0.0001933,1.0933,0.76592,0.0000302069,0.000960761
3503,10.1021/ja400069s,105,6(a),393,Pb0.95Ba0.04Na0.01Se1,Pb0.95Ba0.04Na0.01Se1,752.5,33034,0.0010512,0.00019352,1.0925,0.76686,0.0000302718,0.0009621968
3503,10.1021/ja400069s,105,6(a),393,Pb0.95Ba0.04Na0.01Se1,Pb0.95Ba0.04Na0.01Se1,753,32963,0.0010519,0.00019373,1.0916,0.76779,0.000030337,0.0009636314
3503,10.1021/ja400069s,105,6(a),393,Pb0.95Ba0.04Na0.01Se1,Pb0.95Ba0.04Na0.01Se1,753.5,32893,0.0010527,0.00019395,1.0907,0.76872,0.0000304016,0.00096516
3503,10.1021/ja400069s,105,6(a),393,Pb0.95Ba0.04Na0.01Se1,Pb0.95Ba0.04Na0.01Se1,754,32822,0.0010535,0.00019416,1.0898,0.76966,0.0000304674,0.0009666911
3503,10.1021/ja400069s,105,6(a),393,Pb0.95Ba0.04Na0.01Se1,Pb0.95Ba0.04Na0.01Se1,754.5,32752,0.0010543,0.00019437,1.089,0.77059,0.0000305325,0.0009681359
3503,10.1021/ja400069s,105,6(a),393,Pb0.95Ba0.04Na0.01Se1,Pb0.95Ba0.04Na0.01Se1,755,32682,0.001055,0.00019459,1.0881,0.77153,0.0000305979,0.00096958
3503,10.1021/ja400069s,105,6(a),393,Pb0.95Ba0.04Na0.01Se1,Pb0.95Ba0.04Na0.01Se1,755.5,32613,0.0010558,0.0001948,1.0872,0.77246,0.0000306626,0.0009711185
3503,10.1021/ja400069s,105,6(a),393,Pb0.95Ba0.04Na0.01Se1,Pb0.95Ba0.04Na0.01Se1,756,32543,0.0010566,0.00019501,1.0864,0.77339,0.0000307286,0.00097257
3503,10.1021/ja400069s,105,6(a),393,Pb0.95Ba0.04Na0.01Se1,Pb0.95Ba0.04Na0.01Se1,756.5,32474,0.0010574,0.00019522,1.0855,0.77433,0.0000307939,0.0009741133
3503,10.1021/ja400069s,105,6(a),393,Pb0.95Ba0.04Na0.01Se1,Pb0.95Ba0.04Na0.01Se1,757,32405,0.0010581,0.00019543,1.0846,0.77526,0.0000308594,0.000975567
3503,10.1021/ja400069s,105,6(a),393,Pb0.95Ba0.04Na0.01Se1,Pb0.95Ba0.04Na0.01Se1,757.5,32336,0.0010589,0.00019564,1.0838,0.77619,0.0000309253,0.0009770253
3503,10.1021/ja400069s,105,6(a),393,Pb0.95Ba0.04Na0.01Se1,Pb0.95Ba0.04Na0.01Se1,758,32267,0.0010597,0.00019586,1.0829,0.77713,0.0000309914,0.000978576
3503,10.1021/ja400069s,105,6(a),393,Pb0.95Ba0.04Na0.01Se1,Pb0.95Ba0.04Na0.01Se1,758.5,32198,0.0010605,0.00019607,1.0821,0.77806,0.0000310578,0.0009800388
3503,10.1021/ja400069s,105,6(a),393,Pb0.95Ba0.04Na0.01Se1,Pb0.95Ba0.04Na0.01Se1,759,32130,0.0010612,0.00019628,1.0812,0.779,0.0000311236,0.000981502
3503,10.1021/ja400069s,105,6(a),393,Pb0.95Ba0.04Na0.01Se1,Pb0.95Ba0.04Na0.01Se1,759.5,32062,0.001062,0.00019649,1.0804,0.77993,0.0000311896,0.0009829693
3503,10.1021/ja400069s,105,6(a),393,Pb0.95Ba0.04Na0.01Se1,Pb0.95Ba0.04Na0.01Se1,760,31994,0.0010628,0.0001967,1.0795,0.78086,0.0000312559,0.0009845299
3503,10.1021/ja400069s,105,6(a),393,Pb0.95Ba0.04Na0.01Se1,Pb0.95Ba0.04Na0.01Se1,760.5,31926,0.0010636,0.00019691,1.0787,0.7818,0.0000313224,0.0009860017
3503,10.1021/ja400069s,105,6(a),393,Pb0.95Ba0.04Na0.01Se1,Pb0.95Ba0.04Na0.01Se1,761,31859,0.0010643,0.00019712,1.0778,0.78273,0.0000313883,0.0009874745
3503,10.1021/ja400069s,105,6(a),393,Pb0.95Ba0.04Na0.01Se1,Pb0.95Ba0.04Na0.01Se1,761.5,31792,0.0010651,0.00019732,1.077,0.78367,0.0000314545,0.0009889508
3503,10.1021/ja400069s,105,6(a),393,Pb0.95Ba0.04Na0.01Se1,Pb0.95Ba0.04Na0.01Se1,762,31724,0.0010659,0.00019753,1.0761,0.7846,0.0000315219,0.0009905213
3503,10.1021/ja400069s,105,6(a),393,Pb0.95Ba0.04Na0.01Se1,Pb0.95Ba0.04Na0.01Se1,762.5,31658,0.0010667,0.00019774,1.0753,0.78553,0.0000315876,0.0009920022
3503,10.1021/ja400069s,105,6(a),393,Pb0.95Ba0.04Na0.01Se1,Pb0.95Ba0.04Na0.01Se1,763,31591,0.0010674,0.00019795,1.0744,0.78647,0.0000316546,0.0009934847
3503,10.1021/ja400069s,105,6(a),393,Pb0.95Ba0.04Na0.01Se1,Pb0.95Ba0.04Na0.01Se1,763.5,31524,0.0010682,0.00019816,1.0736,0.7874,0.0000317219,0.0009949702
3503,10.1021/ja400069s,105,6(a),393,Pb0.95Ba0.04Na0.01Se1,Pb0.95Ba0.04Na0.01Se1,764,31458,0.001069,0.00019836,1.0727,0.78833,0.0000317884,0.0009965508
3503,10.1021/ja400069s,105,6(a),393,Pb0.95Ba0.04Na0.01Se1,Pb0.95Ba0.04Na0.01Se1,764.5,31392,0.0010698,0.00019857,1.0719,0.78927,0.0000318552,0.0009980409
3503,10.1021/ja400069s,105,6(a),393,Pb0.95Ba0.04Na0.01Se1,Pb0.95Ba0.04Na0.01Se1,765,31326,0.0010705,0.00019878,1.0711,0.7902,0.0000319224,0.0009994398
3503,10.1021/ja400069s,105,6(a),393,Pb0.95Ba0.04Na0.01Se1,Pb0.95Ba0.04Na0.01Se1,765.5,31261,0.0010713,0.00019898,1.0702,0.79114,0.0000319887,0.0010010278
3503,10.1021/ja400069s,105,6(a),393,Pb0.95Ba0.04Na0.01Se1,Pb0.95Ba0.04Na0.01Se1,766,31195,0.0010721,0.00019919,1.0694,0.79207,0.0000320564,0.0010025248
3503,10.1021/ja400069s,105,6(a),393,Pb0.95Ba0.04Na0.01Se1,Pb0.95Ba0.04Na0.01Se1,766.5,31130,0.0010729,0.00019939,1.0686,0.793,0.0000321234,0.001004024
3503,10.1021/ja400069s,105,6(a),393,Pb0.95Ba0.04Na0.01Se1,Pb0.95Ba0.04Na0.01Se1,767,31065,0.0010736,0.0001996,1.0677,0.79394,0.0000321906,0.0010055259
3503,10.1021/ja400069s,105,6(a),393,Pb0.95Ba0.04Na0.01Se1,Pb0.95Ba0.04Na0.01Se1,767.5,31000,0.0010744,0.0001998,1.0669,0.79487,0.0000322581,0.0010070297
3503,10.1021/ja400069s,105,6(a),393,Pb0.95Ba0.04Na0.01Se1,Pb0.95Ba0.04Na0.01Se1,768,30935,0.0010752,0.00020001,1.0661,0.79581,0.0000323258,0.0010085358
3503,10.1021/ja400069s,105,6(a),393,Pb0.95Ba0.04Na0.01Se1,Pb0.95Ba0.04Na0.01Se1,768.5,30871,0.001076,0.00020021,1.0652,0.79674,0.0000323929,0.0010101389
3503,10.1021/ja400069s,105,6(a),393,Pb0.95Ba0.04Na0.01Se1,Pb0.95Ba0.04Na0.01Se1,769,30806,0.0010767,0.00020042,1.0644,0.79767,0.0000324612,0.0010115558
3503,10.1021/ja400069s,105,6(a),393,Pb0.95Ba0.04Na0.01Se1,Pb0.95Ba0.04Na0.01Se1,769.5,30742,0.0010775,0.00020062,1.0636,0.79861,0.0000325288,0.0010130688
3503,10.1021/ja400069s,105,6(a),393,Pb0.95Ba0.04Na0.01Se1,Pb0.95Ba0.04Na0.01Se1,770,30679,0.0010783,0.00020082,1.0628,0.79954,0.0000325956,0.0010145841
3503,10.1021/ja400069s,105,6(a),393,Pb0.95Ba0.04Na0.01Se1,Pb0.95Ba0.04Na0.01Se1,770.5,30615,0.0010791,0.00020103,1.0619,0.80047,0.0000326637,0.0010161974
3503,10.1021/ja400069s,105,6(a),393,Pb0.95Ba0.04Na0.01Se1,Pb0.95Ba0.04Na0.01Se1,771,30551,0.0010798,0.00020123,1.0611,0.80141,0.0000327322,0.0010176232
3503,10.1021/ja400069s,105,6(a),393,Pb0.95Ba0.04Na0.01Se1,Pb0.95Ba0.04Na0.01Se1,771.5,30488,0.0010806,0.00020143,1.0603,0.80234,0.0000327998,0.0010191455
3503,10.1021/ja400069s,105,6(a),393,Pb0.95Ba0.04Na0.01Se1,Pb0.95Ba0.04Na0.01Se1,772,30425,0.0010814,0.00020163,1.0595,0.80328,0.0000328677,0.0010206701
3503,10.1021/ja400069s,105,6(a),393,Pb0.95Ba0.04Na0.01Se1,Pb0.95Ba0.04Na0.01Se1,772.5,30362,0.0010822,0.00020183,1.0587,0.80421,0.0000329359,0.001022197
3503,10.1021/ja400069s,105,6(a),393,Pb0.95Ba0.04Na0.01Se1,Pb0.95Ba0.04Na0.01Se1,773,30300,0.0010829,0.00020203,1.0579,0.80514,0.0000330033,0.0010236317
3503,10.1021/ja400069s,105,6(a),393,Pb0.95Ba0.04Na0.01Se1,Pb0.95Ba0.04Na0.01Se1,773.5,30237,0.0010837,0.00020223,1.057,0.80608,0.0000330721,0.0010252602
3503,10.1021/ja400069s,105,6(a),393,Pb0.95Ba0.04Na0.01Se1,Pb0.95Ba0.04Na0.01Se1,774,30175,0.0010845,0.00020243,1.0562,0.80701,0.00003314,0.0010267942
3503,10.1021/ja400069s,105,6(a),393,Pb0.95Ba0.04Na0.01Se1,Pb0.95Ba0.04Na0.01Se1,774.5,30113,0.0010853,0.00020263,1.0554,0.80795,0.0000332082,0.0010283305
3503,10.1021/ja400069s,105,6(a),393,Pb0.95Ba0.04Na0.01Se1,Pb0.95Ba0.04Na0.01Se1,775,30051,0.001086,0.00020283,1.0546,0.80888,0.0000332768,0.0010297743
3503,10.1021/ja400069s,105,6(a),393,Pb0.95Ba0.04Na0.01Se1,Pb0.95Ba0.04Na0.01Se1,775.5,29989,0.0010868,0.00020303,1.0538,0.80981,0.0000333456,0.0010313152
3503,10.1021/ja400069s,105,6(a),393,Pb0.95Ba0.04Na0.01Se1,Pb0.95Ba0.04Na0.01Se1,776,29928,0.0010876,0.00020323,1.053,0.81075,0.0000334135,0.0010328585
3503,10.1021/ja400069s,105,6(a),393,Pb0.95Ba0.04Na0.01Se1,Pb0.95Ba0.04Na0.01Se1,776.5,29866,0.0010884,0.00020343,1.0522,0.81168,0.0000334829,0.0010344041
3503,10.1021/ja400069s,105,6(a),393,Pb0.95Ba0.04Na0.01Se1,Pb0.95Ba0.04Na0.01Se1,777,29805,0.0010891,0.00020363,1.0514,0.81261,0.0000335514,0.001035857
3503,10.1021/ja400069s,105,6(a),393,Pb0.95Ba0.04Na0.01Se1,Pb0.95Ba0.04Na0.01Se1,777.5,29744,0.0010899,0.00020382,1.0506,0.81355,0.0000336202,0.0010374072
3503,10.1021/ja400069s,105,6(a),393,Pb0.95Ba0.04Na0.01Se1,Pb0.95Ba0.04Na0.01Se1,778,29684,0.0010907,0.00020402,1.0498,0.81448,0.0000336882,0.0010389598
3503,10.1021/ja400069s,105,6(a),393,Pb0.95Ba0.04Na0.01Se1,Pb0.95Ba0.04Na0.01Se1,778.5,29623,0.0010915,0.00020422,1.049,0.81542,0.0000337576,0.0010405148
3503,10.1021/ja400069s,105,6(a),393,Pb0.95Ba0.04Na0.01Se1,Pb0.95Ba0.04Na0.01Se1,779,29563,0.0010922,0.00020441,1.0482,0.81635,0.0000338261,0.0010419767
3503,10.1021/ja400069s,105,6(a),393,Pb0.95Ba0.04Na0.01Se1,Pb0.95Ba0.04Na0.01Se1,779.5,29503,0.001093,0.00020461,1.0474,0.81728,0.0000338949,0.0010435364
3503,10.1021/ja400069s,105,6(a),393,Pb0.95Ba0.04Na0.01Se1,Pb0.95Ba0.04Na0.01Se1,780,29443,0.0010938,0.00020481,1.0466,0.81822,0.0000339639,0.0010450984
3503,10.1021/ja400069s,105,6(a),393,Pb0.95Ba0.04Na0.01Se1,Pb0.95Ba0.04Na0.01Se1,780.5,29383,0.0010946,0.000205,1.0458,0.81915,0.0000340333,0.0010466628
3503,10.1021/ja400069s,105,6(a),393,Pb0.95Ba0.04Na0.01Se1,Pb0.95Ba0.04Na0.01Se1,781,29324,0.0010953,0.0002052,1.045,0.82009,0.0000341018,0.001048134
3503,10.1021/ja400069s,105,6(a),393,Pb0.95Ba0.04Na0.01Se1,Pb0.95Ba0.04Na0.01Se1,781.5,29264,0.0010961,0.00020539,1.0442,0.82102,0.0000341717,0.0010497031
3503,10.1021/ja400069s,105,6(a),393,Pb0.95Ba0.04Na0.01Se1,Pb0.95Ba0.04Na0.01Se1,782,29205,0.0010969,0.00020558,1.0435,0.82195,0.0000342407,0.0010511739
3503,10.1021/ja400069s,105,6(a),393,Pb0.95Ba0.04Na0.01Se1,Pb0.95Ba0.04Na0.01Se1,782.5,29146,0.0010977,0.00020578,1.0427,0.82289,0.00003431,0.0010527477
3503,10.1021/ja400069s,105,6(a),393,Pb0.95Ba0.04Na0.01Se1,Pb0.95Ba0.04Na0.01Se1,783,29088,0.0010984,0.00020597,1.0419,0.82382,0.0000343784,0.0010542279
3503,10.1021/ja400069s,105,6(a),393,Pb0.95Ba0.04Na0.01Se1,Pb0.95Ba0.04Na0.01Se1,783.5,29029,0.0010992,0.00020616,1.0411,0.82475,0.0000344483,0.0010558064
3503,10.1021/ja400069s,105,6(a),393,Pb0.95Ba0.04Na0.01Se1,Pb0.95Ba0.04Na0.01Se1,784,28971,0.0011,0.00020636,1.0403,0.82569,0.0000345173,0.0010573873
3503,10.1021/ja400069s,105,6(a),393,Pb0.95Ba0.04Na0.01Se1,Pb0.95Ba0.04Na0.01Se1,784.5,28912,0.0011008,0.00020655,1.0395,0.82662,0.0000345877,0.0010589707
3503,10.1021/ja400069s,105,6(a),393,Pb0.95Ba0.04Na0.01Se1,Pb0.95Ba0.04Na0.01Se1,785,28854,0.0011016,0.00020674,1.0388,0.82756,0.0000346572,0.0010604544
3503,10.1021/ja400069s,105,6(a),393,Pb0.95Ba0.04Na0.01Se1,Pb0.95Ba0.04Na0.01Se1,785.5,28797,0.0011023,0.00020693,1.038,0.82849,0.0000347258,0.0010619461
3503,10.1021/ja400069s,105,6(a),393,Pb0.95Ba0.04Na0.01Se1,Pb0.95Ba0.04Na0.01Se1,786,28739,0.0011031,0.00020712,1.0372,0.82942,0.0000347959,0.0010635364
3503,10.1021/ja400069s,105,6(a),393,Pb0.95Ba0.04Na0.01Se1,Pb0.95Ba0.04Na0.01Se1,786.5,28682,0.0011039,0.00020731,1.0365,0.83036,0.0000348651,0.0010650265
3503,10.1021/ja400069s,105,6(a),393,Pb0.95Ba0.04Na0.01Se1,Pb0.95Ba0.04Na0.01Se1,787,28624,0.0011047,0.0002075,1.0357,0.83129,0.0000349357,0.0010666216
3503,10.1021/ja400069s,105,6(a),393,Pb0.95Ba0.04Na0.01Se1,Pb0.95Ba0.04Na0.01Se1,787.5,28567,0.0011054,0.00020769,1.0349,0.83223,0.0000350054,0.0010681225
3503,10.1021/ja400069s,105,6(a),393,Pb0.95Ba0.04Na0.01Se1,Pb0.95Ba0.04Na0.01Se1,788,28511,0.0011062,0.00020788,1.0341,0.83316,0.0000350742,0.0010697225
3503,10.1021/ja400069s,105,6(a),393,Pb0.95Ba0.04Na0.01Se1,Pb0.95Ba0.04Na0.01Se1,788.5,28454,0.001107,0.00020807,1.0334,0.83409,0.0000351444,0.0010712212
3503,10.1021/ja400069s,105,6(a),393,Pb0.95Ba0.04Na0.01Se1,Pb0.95Ba0.04Na0.01Se1,789,28398,0.0011078,0.00020825,1.0326,0.83503,0.0000352137,0.0010728259
3503,10.1021/ja400069s,105,6(a),393,Pb0.95Ba0.04Na0.01Se1,Pb0.95Ba0.04Na0.01Se1,789.5,28341,0.0011085,0.00020844,1.0319,0.83596,0.0000352846,0.001074232
3503,10.1021/ja400069s,105,6(a),393,Pb0.95Ba0.04Na0.01Se1,Pb0.95Ba0.04Na0.01Se1,790,28285,0.0011093,0.00020863,1.0311,0.83689,0.0000353544,0.0010758413
3503,10.1021/ja400069s,105,6(a),393,Pb0.95Ba0.04Na0.01Se1,Pb0.95Ba0.04Na0.01Se1,790.5,28229,0.0011101,0.00020882,1.0303,0.83783,0.0000354246,0.0010774532
3503,10.1021/ja400069s,105,6(a),393,Pb0.95Ba0.04Na0.01Se1,Pb0.95Ba0.04Na0.01Se1,791,28174,0.0011109,0.000209,1.0296,0.83876,0.0000354937,0.0010789627
3503,10.1021/ja400069s,105,6(a),393,Pb0.95Ba0.04Na0.01Se1,Pb0.95Ba0.04Na0.01Se1,791.5,28118,0.0011116,0.00020919,1.0288,0.8397,0.0000355644,0.0010804821
3503,10.1021/ja400069s,105,6(a),393,Pb0.95Ba0.04Na0.01Se1,Pb0.95Ba0.04Na0.01Se1,792,28063,0.0011124,0.00020937,1.0281,0.84063,0.0000356341,0.0010819959
3503,10.1021/ja400069s,105,6(a),393,Pb0.95Ba0.04Na0.01Se1,Pb0.95Ba0.04Na0.01Se1,792.5,28008,0.0011132,0.00020956,1.0273,0.84156,0.0000357041,0.0010836172
3503,10.1021/ja400069s,105,6(a),393,Pb0.95Ba0.04Na0.01Se1,Pb0.95Ba0.04Na0.01Se1,793,27953,0.001114,0.00020974,1.0266,0.8425,0.0000357743,0.0010851354
3503,10.1021/ja400069s,105,6(a),393,Pb0.95Ba0.04Na0.01Se1,Pb0.95Ba0.04Na0.01Se1,793.5,27898,0.0011147,0.00020993,1.0258,0.84343,0.0000358449,0.0010866641
3503,10.1021/ja400069s,105,6(a),393,Pb0.95Ba0.04Na0.01Se1,Pb0.95Ba0.04Na0.01Se1,794,27844,0.0011155,0.00021011,1.0251,0.84437,0.0000359144,0.0010881865
3503,10.1021/ja400069s,105,6(a),393,Pb0.95Ba0.04Na0.01Se1,Pb0.95Ba0.04Na0.01Se1,794.5,27789,0.0011163,0.00021029,1.0243,0.8453,0.0000359855,0.0010898174
3503,10.1021/ja400069s,105,6(a),393,Pb0.95Ba0.04Na0.01Se1,Pb0.95Ba0.04Na0.01Se1,795,27735,0.0011171,0.00021048,1.0236,0.84623,0.0000360555,0.0010913443
3503,10.1021/ja400069s,105,6(a),393,Pb0.95Ba0.04Na0.01Se1,Pb0.95Ba0.04Na0.01Se1,795.5,27681,0.0011178,0.00021066,1.0229,0.84717,0.0000361259,0.0010927754
3503,10.1021/ja400069s,105,6(a),393,Pb0.95Ba0.04Na0.01Se1,Pb0.95Ba0.04Na0.01Se1,796,27627,0.0011186,0.00021084,1.0221,0.8481,0.0000361965,0.0010944135
3503,10.1021/ja400069s,105,6(a),393,Pb0.95Ba0.04Na0.01Se1,Pb0.95Ba0.04Na0.01Se1,796.5,27574,0.0011194,0.00021102,1.0214,0.84903,0.000036266,0.0010959467
3503,10.1021/ja400069s,105,6(a),393,Pb0.95Ba0.04Na0.01Se1,Pb0.95Ba0.04Na0.01Se1,797,27520,0.0011202,0.0002112,1.0206,0.84997,0.0000363372,0.0010975897
3503,10.1021/ja400069s,105,6(a),393,Pb0.95Ba0.04Na0.01Se1,Pb0.95Ba0.04Na0.01Se1,797.5,27467,0.0011209,0.00021138,1.0199,0.8509,0.0000364073,0.0010990293
3503,10.1021/ja400069s,105,6(a),393,Pb0.95Ba0.04Na0.01Se1,Pb0.95Ba0.04Na0.01Se1,798,27414,0.0011217,0.00021156,1.0192,0.85184,0.0000364777,0.0011005691
3503,10.1021/ja400069s,105,6(a),393,Pb0.95Ba0.04Na0.01Se1,Pb0.95Ba0.04Na0.01Se1,798.5,27361,0.0011225,0.00021174,1.0184,0.85277,0.0000365484,0.0011022192
3503,10.1021/ja400069s,105,6(a),393,Pb0.95Ba0.04Na0.01Se1,Pb0.95Ba0.04Na0.01Se1,799,27308,0.0011233,0.00021192,1.0177,0.8537,0.0000366193,0.0011037634
3503,10.1021/ja400069s,105,6(a),393,Pb0.95Ba0.04Na0.01Se1,Pb0.95Ba0.04Na0.01Se1,799.5,27256,0.001124,0.0002121,1.017,0.85464,0.0000366892,0.0011052114
3503,10.1021/ja400069s,105,6(a),393,Pb0.95Ba0.04Na0.01Se1,Pb0.95Ba0.04Na0.01Se1,800,27204,0.0011248,0.00021228,1.0163,0.85557,0.0000367593,0.0011067598
3503,10.1021/ja400069s,105,6(a),393,Pb0.95Ba0.04Na0.01Se1,Pb0.95Ba0.04Na0.01Se1,800.5,27151,0.0011256,0.00021245,1.0155,0.85651,0.0000368311,0.0011084195
3503,10.1021/ja400069s,105,6(a),393,Pb0.95Ba0.04Na0.01Se1,Pb0.95Ba0.04Na0.01Se1,801,27099,0.0011264,0.00021263,1.0148,0.85744,0.0000369017,0.0011099724
3503,10.1021/ja400069s,105,6(a),393,Pb0.95Ba0.04Na0.01Se1,Pb0.95Ba0.04Na0.01Se1,801.5,27048,0.0011271,0.00021281,1.0141,0.85837,0.0000369713,0.0011114289
3503,10.1021/ja400069s,105,6(a),393,Pb0.95Ba0.04Na0.01Se1,Pb0.95Ba0.04Na0.01Se1,802,26996,0.0011279,0.00021298,1.0134,0.85931,0.0000370425,0.001112986
3503,10.1021/ja400069s,105,6(a),393,Pb0.95Ba0.04Na0.01Se1,Pb0.95Ba0.04Na0.01Se1,802.5,26945,0.0011287,0.00021316,1.0127,0.86024,0.0000371126,0.0011145453
3503,10.1021/ja400069s,105,6(a),393,Pb0.95Ba0.04Na0.01Se1,Pb0.95Ba0.04Na0.01Se1,803,26893,0.0011295,0.00021334,1.0119,0.86117,0.0000371844,0.001116217
3503,10.1021/ja400069s,105,6(a),393,Pb0.95Ba0.04Na0.01Se1,Pb0.95Ba0.04Na0.01Se1,803.5,26842,0.0011302,0.00021351,1.0112,0.86211,0.000037255,0.001117682
3503,10.1021/ja400069s,105,6(a),393,Pb0.95Ba0.04Na0.01Se1,Pb0.95Ba0.04Na0.01Se1,804,26792,0.001131,0.00021368,1.0105,0.86304,0.0000373246,0.0011192479
3503,10.1021/ja400069s,105,6(a),393,Pb0.95Ba0.04Na0.01Se1,Pb0.95Ba0.04Na0.01Se1,804.5,26741,0.0011318,0.00021386,1.0098,0.86398,0.0000373958,0.001120816
3503,10.1021/ja400069s,105,6(a),393,Pb0.95Ba0.04Na0.01Se1,Pb0.95Ba0.04Na0.01Se1,805,26690,0.0011326,0.00021403,1.0091,0.86491,0.0000374672,0.0011223863
3503,10.1021/ja400069s,105,6(a),393,Pb0.95Ba0.04Na0.01Se1,Pb0.95Ba0.04Na0.01Se1,805.5,26640,0.0011333,0.0002142,1.0084,0.86584,0.0000375375,0.0011238596
3503,10.1021/ja400069s,105,6(a),393,Pb0.95Ba0.04Na0.01Se1,Pb0.95Ba0.04Na0.01Se1,806,26590,0.0011341,0.00021437,1.0077,0.86678,0.0000376081,0.0011254342
3503,10.1021/ja400069s,105,6(a),393,Pb0.95Ba0.04Na0.01Se1,Pb0.95Ba0.04Na0.01Se1,806.5,26540,0.0011349,0.00021455,1.007,0.86771,0.000037679,0.0011270109
3503,10.1021/ja400069s,105,6(a),393,Pb0.95Ba0.04Na0.01Se1,Pb0.95Ba0.04Na0.01Se1,807,26490,0.0011357,0.00021472,1.0063,0.86865,0.0000377501,0.0011285899
3503,10.1021/ja400069s,105,6(a),393,Pb0.95Ba0.04Na0.01Se1,Pb0.95Ba0.04Na0.01Se1,807.5,26441,0.0011364,0.00021489,1.0056,0.86958,0.0000378201,0.0011300716
3503,10.1021/ja400069s,105,6(a),393,Pb0.95Ba0.04Na0.01Se1,Pb0.95Ba0.04Na0.01Se1,808,26391,0.0011372,0.00021506,1.0049,0.87051,0.0000378917,0.0011316549
3503,10.1021/ja400069s,105,6(a),393,Pb0.95Ba0.04Na0.01Se1,Pb0.95Ba0.04Na0.01Se1,808.5,26342,0.001138,0.00021523,1.0042,0.87145,0.0000379622,0.0011332404
3503,10.1021/ja400069s,105,6(a),393,Pb0.95Ba0.04Na0.01Se1,Pb0.95Ba0.04Na0.01Se1,809,26293,0.0011388,0.0002154,1.0035,0.87238,0.0000380329,0.0011348281
3503,10.1021/ja400069s,105,6(a),393,Pb0.95Ba0.04Na0.01Se1,Pb0.95Ba0.04Na0.01Se1,809.5,26244,0.0011395,0.00021556,1.0028,0.87331,0.0000381039,0.0011363183
3503,10.1021/ja400069s,105,6(a),393,Pb0.95Ba0.04Na0.01Se1,Pb0.95Ba0.04Na0.01Se1,810,26195,0.0011403,0.00021573,1.0021,0.87425,0.0000381752,0.0011379104
3503,10.1021/ja400069s,105,6(a),393,Pb0.95Ba0.04Na0.01Se1,Pb0.95Ba0.04Na0.01Se1,810.5,26147,0.0011411,0.0002159,1.0015,0.87518,0.0000382453,0.0011393909
3503,10.1021/ja400069s,105,6(a),393,Pb0.95Ba0.04Na0.01Se1,Pb0.95Ba0.04Na0.01Se1,811,26098,0.0011419,0.00021607,1.0008,0.87612,0.0000383171,0.0011409872
3503,10.1021/ja400069s,105,6(a),393,Pb0.95Ba0.04Na0.01Se1,Pb0.95Ba0.04Na0.01Se1,811.5,26050,0.0011426,0.00021623,1.0001,0.87705,0.0000383877,0.0011424858
3503,10.1021/ja400069s,105,6(a),393,Pb0.95Ba0.04Na0.01Se1,Pb0.95Ba0.04Na0.01Se1,812,26002,0.0011434,0.0002164,0.9994,0.87798,0.0000384586,0.0011440865
3503,10.1021/ja400069s,105,6(a),393,Pb0.95Ba0.04Na0.01Se1,Pb0.95Ba0.04Na0.01Se1,812.5,25954,0.0011442,0.00021656,0.99872,0.87892,0.0000385297,0.0011456665
3503,10.1021/ja400069s,105,6(a),393,Pb0.95Ba0.04Na0.01Se1,Pb0.95Ba0.04Na0.01Se1,813,25907,0.001145,0.00021673,0.99805,0.87985,0.0000385996,0.0011472371
3503,10.1021/ja400069s,105,6(a),393,Pb0.95Ba0.04Na0.01Se1,Pb0.95Ba0.04Na0.01Se1,813.5,25859,0.0011457,0.00021689,0.99737,0.88079,0.0000386713,0.0011487211
3503,10.1021/ja400069s,105,6(a),393,Pb0.95Ba0.04Na0.01Se1,Pb0.95Ba0.04Na0.01Se1,814,25812,0.0011465,0.00021706,0.9967,0.88172,0.0000387417,0.001150296
3503,10.1021/ja400069s,105,6(a),393,Pb0.95Ba0.04Na0.01Se1,Pb0.95Ba0.04Na0.01Se1,814.5,25765,0.0011473,0.00021722,0.99603,0.88265,0.0000388123,0.0011518729
3503,10.1021/ja400069s,105,6(a),393,Pb0.95Ba0.04Na0.01Se1,Pb0.95Ba0.04Na0.01Se1,815,25718,0.0011481,0.00021738,0.99536,0.88359,0.0000388833,0.001153452
3503,10.1021/ja400069s,105,6(a),393,Pb0.95Ba0.04Na0.01Se1,Pb0.95Ba0.04Na0.01Se1,815.5,25671,0.0011488,0.00021755,0.99469,0.88452,0.0000389545,0.0011549327