sid,DOI,figureid,fignum,sampleid,samplename,composition,Temperature,Electrical conductivity,Lattice thermal conductivity,Seebeck coefficient,Thermal conductivity,ZT,Electrical resistivity,Power factor,Figure of merit Z
27937,10.1038/nature11439,25549,1(b),31806,4 mol% SrTe_ 2 mol% Na: SPS,undefined,300,129720,,,2.4347,0.053475,0.0000077089,,
27937,10.1038/nature11439,25549,1(b),31806,4 mol% SrTe_ 2 mol% Na: SPS,undefined,350,120120,1.4874,,2.2916,0.24239,0.000008325,,
27937,10.1038/nature11439,25549,1(b),31806,4 mol% SrTe_ 2 mol% Na: SPS,undefined,400,110510,1.381,,2.1485,0.43131,0.000009049,,
27937,10.1038/nature11439,25549,1(b),31806,4 mol% SrTe_ 2 mol% Na: SPS,undefined,450,100900,1.2746,,2.0054,0.62023,0.0000099108,,
27937,10.1038/nature11439,25549,1(b),31806,4 mol% SrTe_ 2 mol% Na: SPS,undefined,500,91298,1.1682,,1.8623,0.80915,0.0000109531,,
27937,10.1038/nature11439,25549,1(b),31806,4 mol% SrTe_ 2 mol% Na: SPS,undefined,550,81692,1.0617,,1.7192,0.99807,0.0000122411,,
27937,10.1038/nature11439,25549,1(b),31806,4 mol% SrTe_ 2 mol% Na: SPS,undefined,600,72085,0.95532,,1.5761,1.187,0.0000138725,,
27937,10.1038/nature11439,25549,1(b),31806,4 mol% SrTe_ 2 mol% Na: SPS,undefined,650,62479,0.8489,,1.4331,1.3759,0.0000160054,,
27937,10.1038/nature11439,25549,1(b),31806,4 mol% SrTe_ 2 mol% Na: SPS,undefined,700,52873,0.74247,,1.29,1.5648,0.0000189132,,
27937,10.1038/nature11439,25549,1(b),31806,4 mol% SrTe_ 2 mol% Na: SPS,undefined,750,43267,0.63605,,1.1469,1.7537,0.0000231123,,
27937,10.1038/nature11439,25549,1(b),31806,4 mol% SrTe_ 2 mol% Na: SPS,undefined,800,33660,0.52963,,1.0038,1.9427,0.0000297089,,
27937,10.1038/nature11439,25549,1(b),31806,4 mol% SrTe_ 2 mol% Na: SPS,undefined,850,24054,0.4232,,0.86068,2.1316,0.0000415731,,
27937,10.1038/nature11439,25549,1(b),31806,4 mol% SrTe_ 2 mol% Na: SPS,undefined,900,14448,0.31678,,0.71759,2.3205,0.0000692137,,
27937,10.1038/nature11439,25549,1(b),31807,2 mol% SrTe_ 1 mol% Na: ingot,undefined,300,185550,1.3182,,2.6807,0.10993,0.0000053894,,
27937,10.1038/nature11439,25549,1(b),31807,2 mol% SrTe_ 1 mol% Na: ingot,undefined,350,168280,1.2477,,2.4796,0.27046,0.0000059425,,
27937,10.1038/nature11439,25549,1(b),31807,2 mol% SrTe_ 1 mol% Na: ingot,undefined,400,151010,1.1773,,2.2786,0.43098,0.0000066221,,
27937,10.1038/nature11439,25549,1(b),31807,2 mol% SrTe_ 1 mol% Na: ingot,undefined,450,133740,1.1069,,2.0775,0.5915,0.0000074772,,
27937,10.1038/nature11439,25549,1(b),31807,2 mol% SrTe_ 1 mol% Na: ingot,undefined,500,116470,1.0364,,1.8765,0.75203,0.0000085859,,
27937,10.1038/nature11439,25549,1(b),31807,2 mol% SrTe_ 1 mol% Na: ingot,undefined,550,99205,0.96598,,1.6755,0.91255,0.0000100801,,
27937,10.1038/nature11439,25549,1(b),31807,2 mol% SrTe_ 1 mol% Na: ingot,undefined,600,81936,0.89555,,1.4744,1.0731,0.0000122046,,
27937,10.1038/nature11439,25549,1(b),31807,2 mol% SrTe_ 1 mol% Na: ingot,undefined,650,64668,0.82511,,1.2734,1.2336,0.0000154636,,
27937,10.1038/nature11439,25549,1(b),31807,2 mol% SrTe_ 1 mol% Na: ingot,undefined,700,47400,0.75468,,1.0723,1.3941,0.000021097,,
27937,10.1038/nature11439,25549,1(b),31807,2 mol% SrTe_ 1 mol% Na: ingot,undefined,750,30131,0.68424,,0.87129,1.5546,0.0000331884,,
27937,10.1038/nature11439,25549,1(b),31807,2 mol% SrTe_ 1 mol% Na: ingot,undefined,800,12863,0.61381,,0.67025,1.7152,0.0000777424,,
27937,10.1038/nature11439,25549,1(b),31807,2 mol% SrTe_ 1 mol% Na: ingot,undefined,850,-4405.3,0.54337,,,1.8757,-0.0002269993,,
27937,10.1038/nature11439,25553,2(a),31807,2 mol% SrTe_ 1 mol% Na: ingot,undefined,900,-21674,,,,,-0.0000461382,,
27937,10.1038/nature11439,25549,1(b),31808,0 mol% SrTe_ 2 mol% Na: ingot,undefined,350,,,,,0.22328,,,
27937,10.1038/nature11439,25549,1(b),31808,0 mol% SrTe_ 2 mol% Na: ingot,undefined,400,,,,,0.32526,,,
27937,10.1038/nature11439,25549,1(b),31808,0 mol% SrTe_ 2 mol% Na: ingot,undefined,450,,,,,0.42723,,,
27937,10.1038/nature11439,25549,1(b),31808,0 mol% SrTe_ 2 mol% Na: ingot,undefined,500,,,,,0.52921,,,
27937,10.1038/nature11439,25549,1(b),31808,0 mol% SrTe_ 2 mol% Na: ingot,undefined,550,,,,,0.63119,,,
27937,10.1038/nature11439,25549,1(b),31808,0 mol% SrTe_ 2 mol% Na: ingot,undefined,600,,,,,0.73317,,,
27937,10.1038/nature11439,25549,1(b),31808,0 mol% SrTe_ 2 mol% Na: ingot,undefined,650,,,,,0.83515,,,
27937,10.1038/nature11439,25549,1(b),31808,0 mol% SrTe_ 2 mol% Na: ingot,undefined,700,,,,,0.93712,,,
27937,10.1038/nature11439,25549,1(b),31808,0 mol% SrTe_ 2 mol% Na: ingot,undefined,750,,,,,1.0391,,,
27937,10.1038/nature11439,25549,1(b),31808,0 mol% SrTe_ 2 mol% Na: ingot,undefined,800,,,,,1.1411,,,
27937,10.1038/nature11439,25549,1(b),31808,0 mol% SrTe_ 2 mol% Na: ingot,undefined,850,,,,,1.2431,,,
27937,10.1038/nature11439,25553,2(a),31810,2 mol% SrTe_ 2 mol% Na: SPS,undefined,350,158830,1.8368,0.00010626,2.962,0.21191,0.000006296,0.0017933793,0.0006054623
27937,10.1038/nature11439,25553,2(a),31810,2 mol% SrTe_ 2 mol% Na: SPS,undefined,400,144070,1.7227,0.00012432,2.7607,0.32262,0.0000069411,0.0022266685,0.0008065594
27937,10.1038/nature11439,25553,2(a),31810,2 mol% SrTe_ 2 mol% Na: SPS,undefined,450,129300,1.6086,0.00014239,2.5595,0.46091,0.000007734,0.0026215461,0.0010242415
27937,10.1038/nature11439,25553,2(a),31810,2 mol% SrTe_ 2 mol% Na: SPS,undefined,500,114530,1.4945,0.00016045,2.3582,0.62516,0.0000087313,0.0029484835,0.001250311
27937,10.1038/nature11439,25553,2(a),31810,2 mol% SrTe_ 2 mol% Na: SPS,undefined,550,99766,1.3803,0.00017851,2.1569,0.81066,0.0000100235,0.0031791254,0.0014739327
27937,10.1038/nature11439,25553,2(a),31810,2 mol% SrTe_ 2 mol% Na: SPS,undefined,600,85000,1.2662,0.00019658,1.9556,1.0078,0.0000117647,0.0032847142,0.0016796452
27937,10.1038/nature11439,25553,2(a),31810,2 mol% SrTe_ 2 mol% Na: SPS,undefined,650,70233,1.1521,0.00021464,1.7543,1.1989,0.0000142383,0.0032356575,0.0018444151
27937,10.1038/nature11439,25553,2(a),31810,2 mol% SrTe_ 2 mol% Na: SPS,undefined,700,55466,1.0379,0.0002327,1.553,1.3538,0.0000180291,0.0030034445,0.001933963
27937,10.1038/nature11439,25553,2(a),31810,2 mol% SrTe_ 2 mol% Na: SPS,undefined,750,40700,0.92381,0.00025077,1.3518,1.42,0.00002457,0.0025594436,0.0018933597
27937,10.1038/nature11439,25553,2(a),31810,2 mol% SrTe_ 2 mol% Na: SPS,undefined,800,25933,0.80968,0.00026883,1.1505,1.3032,0.0000385609,0.0018741667,0.0016290019
27937,10.1038/nature11439,25553,2(a),31810,2 mol% SrTe_ 2 mol% Na: SPS,undefined,850,11166,0.69556,0.00028689,0.94919,0.82299,0.0000895576,0.0009190274,0.0009682228
27937,10.1038/nature11439,25553,2(a),31810,2 mol% SrTe_ 2 mol% Na: SPS,undefined,900,-3600.5,0.58143,0.00030496,0.7479,-0.40295,-0.0002777392,-0.0003348487,-0.0004477185
27937,10.1038/nature11439,25561,2(d),31810,2 mol% SrTe_ 2 mol% Na: SPS,undefined,300,,,,3.1633,,,,
27937,10.1038/nature11439,25553,2(a),31811,0 mol% SrTe_ 2 mol% Na: SPS,undefined,300,218480,,,,,0.0000045771,,
27937,10.1038/nature11439,25553,2(a),31811,0 mol% SrTe_ 2 mol% Na: SPS,undefined,350,196360,2.1486,0.000086882,3.3143,0.15653,0.0000050927,0.0014822199,0.0004472196
27937,10.1038/nature11439,25553,2(a),31811,0 mol% SrTe_ 2 mol% Na: SPS,undefined,400,174240,1.9755,0.00010645,3.0916,0.25546,0.0000057392,0.0019744184,0.0006386397
27937,10.1038/nature11439,25553,2(a),31811,0 mol% SrTe_ 2 mol% Na: SPS,undefined,450,152110,1.8023,0.00012601,2.869,0.37883,0.0000065742,0.0024152817,0.0008418549
27937,10.1038/nature11439,25553,2(a),31811,0 mol% SrTe_ 2 mol% Na: SPS,undefined,500,129990,1.6291,0.00014557,2.6463,0.52046,0.0000076929,0.0027545693,0.0010409135
27937,10.1038/nature11439,25553,2(a),31811,0 mol% SrTe_ 2 mol% Na: SPS,undefined,550,107870,1.4559,0.00016514,2.4236,0.66759,0.0000092704,0.0029417465,0.0012137921
27937,10.1038/nature11439,25553,2(a),31811,0 mol% SrTe_ 2 mol% Na: SPS,undefined,600,85743,1.2828,0.0001847,2.2009,0.79741,0.0000116628,0.0029250444,0.001329022
27937,10.1038/nature11439,25553,2(a),31811,0 mol% SrTe_ 2 mol% Na: SPS,undefined,650,63620,1.1096,0.00020427,1.9782,0.87226,0.0000157183,0.0026546229,0.0013419386
27937,10.1038/nature11439,25553,2(a),31811,0 mol% SrTe_ 2 mol% Na: SPS,undefined,700,41497,0.93642,0.00022383,1.7556,0.82895,0.0000240981,0.0020789943,0.0011842073
27937,10.1038/nature11439,25553,2(a),31811,0 mol% SrTe_ 2 mol% Na: SPS,undefined,750,19374,0.76324,0.0002434,1.5329,0.56158,0.0000516156,0.0011477847,0.0007487669
27937,10.1038/nature11439,25553,2(a),31811,0 mol% SrTe_ 2 mol% Na: SPS,undefined,800,-2749.2,0.59007,0.00026296,1.3102,-0.11607,-0.0003637422,-0.0001901016,-0.0001450936
27937,10.1038/nature11439,25561,2(d),31811,0 mol% SrTe_ 2 mol% Na: SPS,undefined,850,,,,1.0875,,,,
27937,10.1038/nature11439,25561,2(d),31811,0 mol% SrTe_ 2 mol% Na: SPS,undefined,900,,,,0.86483,,,,
27937,10.1038/nature11439,25553,2(a),31812,4 mol% SrTe_ 2 mol% Na: ingot,undefined,350,182100,1.5977,,2.8641,,0.0000054915,,
27937,10.1038/nature11439,25553,2(a),31812,4 mol% SrTe_ 2 mol% Na: ingot,undefined,400,162980,1.5175,,2.6724,,0.0000061357,,
27937,10.1038/nature11439,25553,2(a),31812,4 mol% SrTe_ 2 mol% Na: ingot,undefined,450,143860,1.4373,,2.4807,,0.0000069512,,
27937,10.1038/nature11439,25553,2(a),31812,4 mol% SrTe_ 2 mol% Na: ingot,undefined,500,124750,1.3571,,2.289,,0.000008016,,
27937,10.1038/nature11439,25553,2(a),31812,4 mol% SrTe_ 2 mol% Na: ingot,undefined,550,105630,1.2769,,2.0974,,0.000009467,,
27937,10.1038/nature11439,25553,2(a),31812,4 mol% SrTe_ 2 mol% Na: ingot,undefined,600,86517,1.1967,,1.9057,,0.0000115584,,
27937,10.1038/nature11439,25553,2(a),31812,4 mol% SrTe_ 2 mol% Na: ingot,undefined,650,67401,1.1166,,1.714,,0.0000148366,,
27937,10.1038/nature11439,25553,2(a),31812,4 mol% SrTe_ 2 mol% Na: ingot,undefined,700,48286,1.0364,,1.5224,,0.0000207099,,
27937,10.1038/nature11439,25553,2(a),31812,4 mol% SrTe_ 2 mol% Na: ingot,undefined,750,29170,0.95616,,1.3307,,0.0000342818,,
27937,10.1038/nature11439,25553,2(a),31812,4 mol% SrTe_ 2 mol% Na: ingot,undefined,800,10054,0.87596,,1.139,,0.0000994629,,
27937,10.1038/nature11439,25553,2(a),31812,4 mol% SrTe_ 2 mol% Na: ingot,undefined,850,-9061.9,0.79576,,0.94737,,-0.0001103521,,
27937,10.1038/nature11439,25553,2(a),31812,4 mol% SrTe_ 2 mol% Na: ingot,undefined,900,-28178,0.71556,,0.7557,,-0.0000354887,,
27937,10.1038/nature11439,25561,2(d),31812,4 mol% SrTe_ 2 mol% Na: ingot,undefined,300,,,,3.0557,,,,