sid,DOI,figureid,fignum,sampleid,samplename,composition,Temperature,Electrical conductivity,Power factor,Seebeck coefficient,Thermal conductivity,ZT,Electrical resistivity,Figure of merit Z
3503,10.1021/ja400069s,105,6(a),311,Pb0.99Na0.01Se1,Pb0.99Na0.01Se1,504.5,148710,0.00066413,0.000067238,2.7063,0.21309,0.0000067245,0.0002454015
3503,10.1021/ja400069s,105,6(a),311,Pb0.99Na0.01Se1,Pb0.99Na0.01Se1,505,148430,0.00066512,0.000067388,2.7031,0.21385,0.0000067372,0.0002460582
3503,10.1021/ja400069s,105,6(a),311,Pb0.99Na0.01Se1,Pb0.99Na0.01Se1,505.5,148160,0.0006661,0.000067539,2.6999,0.2146,0.0000067495,0.0002467128
3503,10.1021/ja400069s,105,6(a),311,Pb0.99Na0.01Se1,Pb0.99Na0.01Se1,506,147880,0.00066709,0.00006769,2.6967,0.21536,0.0000067622,0.0002473727
3503,10.1021/ja400069s,105,6(a),311,Pb0.99Na0.01Se1,Pb0.99Na0.01Se1,506.5,147600,0.00066807,0.000067842,2.6935,0.21611,0.0000067751,0.0002480304
3503,10.1021/ja400069s,105,6(a),311,Pb0.99Na0.01Se1,Pb0.99Na0.01Se1,507,147330,0.00066906,0.000067993,2.6904,0.21687,0.0000067875,0.0002486842
3503,10.1021/ja400069s,105,6(a),311,Pb0.99Na0.01Se1,Pb0.99Na0.01Se1,507.5,147050,0.00067004,0.000068145,2.6872,0.21762,0.0000068004,0.000249345
3503,10.1021/ja400069s,105,6(a),311,Pb0.99Na0.01Se1,Pb0.99Na0.01Se1,508,146780,0.00067103,0.000068297,2.684,0.21838,0.0000068129,0.0002500112
3503,10.1021/ja400069s,105,6(a),311,Pb0.99Na0.01Se1,Pb0.99Na0.01Se1,508.5,146500,0.00067201,0.000068449,2.6809,0.21913,0.0000068259,0.0002506658
3503,10.1021/ja400069s,105,6(a),311,Pb0.99Na0.01Se1,Pb0.99Na0.01Se1,509,146230,0.000673,0.000068602,2.6777,0.21989,0.0000068385,0.0002513351
3503,10.1021/ja400069s,105,6(a),311,Pb0.99Na0.01Se1,Pb0.99Na0.01Se1,509.5,145960,0.00067399,0.000068755,2.6746,0.22064,0.0000068512,0.0002519966
3503,10.1021/ja400069s,105,6(a),311,Pb0.99Na0.01Se1,Pb0.99Na0.01Se1,510,145680,0.00067497,0.000068907,2.6714,0.2214,0.0000068644,0.0002526653
3503,10.1021/ja400069s,105,6(a),311,Pb0.99Na0.01Se1,Pb0.99Na0.01Se1,510.5,145410,0.00067596,0.000069061,2.6683,0.22216,0.0000068771,0.0002533298
3503,10.1021/ja400069s,105,6(a),311,Pb0.99Na0.01Se1,Pb0.99Na0.01Se1,511,145140,0.00067694,0.000069214,2.6651,0.22291,0.0000068899,0.0002540017
3503,10.1021/ja400069s,105,6(a),311,Pb0.99Na0.01Se1,Pb0.99Na0.01Se1,511.5,144860,0.00067793,0.000069367,2.662,0.22367,0.0000069032,0.0002546694
3503,10.1021/ja400069s,105,6(a),311,Pb0.99Na0.01Se1,Pb0.99Na0.01Se1,512,144590,0.00067891,0.000069521,2.6589,0.22442,0.0000069161,0.0002553349
3503,10.1021/ja400069s,105,6(a),311,Pb0.99Na0.01Se1,Pb0.99Na0.01Se1,512.5,144320,0.0006799,0.000069675,2.6557,0.22518,0.000006929,0.0002560154
3503,10.1021/ja400069s,105,6(a),311,Pb0.99Na0.01Se1,Pb0.99Na0.01Se1,513,144050,0.00068089,0.000069829,2.6526,0.22593,0.000006942,0.0002566878
3503,10.1021/ja400069s,105,6(a),311,Pb0.99Na0.01Se1,Pb0.99Na0.01Se1,513.5,143780,0.00068187,0.000069984,2.6495,0.22669,0.0000069551,0.000257358
3503,10.1021/ja400069s,105,6(a),311,Pb0.99Na0.01Se1,Pb0.99Na0.01Se1,514,143500,0.00068286,0.000070138,2.6464,0.22744,0.0000069686,0.0002580336
3503,10.1021/ja400069s,105,6(a),311,Pb0.99Na0.01Se1,Pb0.99Na0.01Se1,514.5,143230,0.00068384,0.000070293,2.6432,0.2282,0.0000069818,0.0002587167
3503,10.1021/ja400069s,105,6(a),311,Pb0.99Na0.01Se1,Pb0.99Na0.01Se1,515,142960,0.00068483,0.000070448,2.6401,0.22895,0.000006995,0.0002593955
3503,10.1021/ja400069s,105,6(a),311,Pb0.99Na0.01Se1,Pb0.99Na0.01Se1,515.5,142690,0.00068581,0.000070603,2.637,0.22971,0.0000070082,0.0002600721
3503,10.1021/ja400069s,105,6(a),311,Pb0.99Na0.01Se1,Pb0.99Na0.01Se1,516,142420,0.0006868,0.000070759,2.6339,0.23047,0.0000070215,0.000260754
3503,10.1021/ja400069s,105,6(a),311,Pb0.99Na0.01Se1,Pb0.99Na0.01Se1,516.5,142150,0.00068778,0.000070914,2.6308,0.23122,0.0000070348,0.0002614338
3503,10.1021/ja400069s,105,6(a),311,Pb0.99Na0.01Se1,Pb0.99Na0.01Se1,517,141880,0.00068877,0.00007107,2.6277,0.23198,0.0000070482,0.000262119
3503,10.1021/ja400069s,105,6(a),311,Pb0.99Na0.01Se1,Pb0.99Na0.01Se1,517.5,141610,0.00068976,0.000071226,2.6246,0.23273,0.0000070616,0.0002628058
3503,10.1021/ja400069s,105,6(a),311,Pb0.99Na0.01Se1,Pb0.99Na0.01Se1,518,141340,0.00069074,0.000071383,2.6215,0.23349,0.0000070751,0.0002634904
3503,10.1021/ja400069s,105,6(a),311,Pb0.99Na0.01Se1,Pb0.99Na0.01Se1,518.5,141080,0.00069173,0.000071539,2.6184,0.23424,0.0000070882,0.0002641804
3503,10.1021/ja400069s,105,6(a),311,Pb0.99Na0.01Se1,Pb0.99Na0.01Se1,519,140810,0.00069271,0.000071696,2.6153,0.235,0.0000071018,0.0002648683
3503,10.1021/ja400069s,105,6(a),311,Pb0.99Na0.01Se1,Pb0.99Na0.01Se1,519.5,140540,0.0006937,0.000071853,2.6123,0.23575,0.0000071154,0.0002655514
3503,10.1021/ja400069s,105,6(a),311,Pb0.99Na0.01Se1,Pb0.99Na0.01Se1,520,140270,0.00069468,0.00007201,2.6092,0.23651,0.0000071291,0.0002662425
3503,10.1021/ja400069s,105,6(a),311,Pb0.99Na0.01Se1,Pb0.99Na0.01Se1,520.5,140000,0.00069567,0.000072167,2.6061,0.23726,0.0000071429,0.0002669391
3503,10.1021/ja400069s,105,6(a),311,Pb0.99Na0.01Se1,Pb0.99Na0.01Se1,521,139740,0.00069666,0.000072325,2.603,0.23802,0.0000071561,0.0002676373
3503,10.1021/ja400069s,105,6(a),311,Pb0.99Na0.01Se1,Pb0.99Na0.01Se1,521.5,139470,0.00069764,0.000072482,2.6,0.23877,0.00000717,0.0002683231
3503,10.1021/ja400069s,105,6(a),311,Pb0.99Na0.01Se1,Pb0.99Na0.01Se1,522,139200,0.00069863,0.00007264,2.5969,0.23953,0.0000071839,0.0002690246
3503,10.1021/ja400069s,105,6(a),311,Pb0.99Na0.01Se1,Pb0.99Na0.01Se1,522.5,138940,0.00069961,0.000072798,2.5938,0.24029,0.0000071974,0.000269724
3503,10.1021/ja400069s,105,6(a),311,Pb0.99Na0.01Se1,Pb0.99Na0.01Se1,523,138670,0.0007006,0.000072957,2.5908,0.24104,0.0000072114,0.0002704184
3503,10.1021/ja400069s,105,6(a),311,Pb0.99Na0.01Se1,Pb0.99Na0.01Se1,523.5,138400,0.00070158,0.000073115,2.5877,0.2418,0.0000072254,0.0002711211
3503,10.1021/ja400069s,105,6(a),311,Pb0.99Na0.01Se1,Pb0.99Na0.01Se1,524,138140,0.00070257,0.000073274,2.5847,0.24255,0.000007239,0.0002718188
3503,10.1021/ja400069s,105,6(a),311,Pb0.99Na0.01Se1,Pb0.99Na0.01Se1,524.5,137870,0.00070355,0.000073433,2.5816,0.24331,0.0000072532,0.0002725248
3503,10.1021/ja400069s,105,6(a),311,Pb0.99Na0.01Se1,Pb0.99Na0.01Se1,525,137610,0.00070454,0.000073592,2.5786,0.24406,0.0000072669,0.0002732258
3503,10.1021/ja400069s,105,6(a),311,Pb0.99Na0.01Se1,Pb0.99Na0.01Se1,525.5,137340,0.00070553,0.000073752,2.5755,0.24482,0.0000072812,0.000273939
3503,10.1021/ja400069s,105,6(a),311,Pb0.99Na0.01Se1,Pb0.99Na0.01Se1,526,137080,0.00070651,0.000073911,2.5725,0.24557,0.000007295,0.0002746395
3503,10.1021/ja400069s,105,6(a),311,Pb0.99Na0.01Se1,Pb0.99Na0.01Se1,526.5,136810,0.0007075,0.000074071,2.5695,0.24633,0.0000073094,0.0002753454
3503,10.1021/ja400069s,105,6(a),311,Pb0.99Na0.01Se1,Pb0.99Na0.01Se1,527,136550,0.00070848,0.000074231,2.5664,0.24708,0.0000073233,0.0002760599
3503,10.1021/ja400069s,105,6(a),311,Pb0.99Na0.01Se1,Pb0.99Na0.01Se1,527.5,136290,0.00070947,0.000074391,2.5634,0.24784,0.0000073373,0.0002767691
3503,10.1021/ja400069s,105,6(a),311,Pb0.99Na0.01Se1,Pb0.99Na0.01Se1,528,136020,0.00071045,0.000074551,2.5604,0.2486,0.0000073519,0.0002774762
3503,10.1021/ja400069s,105,6(a),311,Pb0.99Na0.01Se1,Pb0.99Na0.01Se1,528.5,135760,0.00071144,0.000074712,2.5574,0.24935,0.0000073659,0.0002781888
3503,10.1021/ja400069s,105,6(a),311,Pb0.99Na0.01Se1,Pb0.99Na0.01Se1,529,135500,0.00071243,0.000074873,2.5544,0.25011,0.0000073801,0.0002789031
3503,10.1021/ja400069s,105,6(a),311,Pb0.99Na0.01Se1,Pb0.99Na0.01Se1,529.5,135230,0.00071341,0.000075034,2.5514,0.25086,0.0000073948,0.0002796151
3503,10.1021/ja400069s,105,6(a),311,Pb0.99Na0.01Se1,Pb0.99Na0.01Se1,530,134970,0.0007144,0.000075195,2.5483,0.25162,0.0000074091,0.0002803438
3503,10.1021/ja400069s,105,6(a),311,Pb0.99Na0.01Se1,Pb0.99Na0.01Se1,530.5,134710,0.00071538,0.000075356,2.5453,0.25237,0.0000074234,0.0002810592
3503,10.1021/ja400069s,105,6(a),311,Pb0.99Na0.01Se1,Pb0.99Na0.01Se1,531,134450,0.00071637,0.000075518,2.5423,0.25313,0.0000074377,0.0002817803
3503,10.1021/ja400069s,105,6(a),311,Pb0.99Na0.01Se1,Pb0.99Na0.01Se1,531.5,134190,0.00071735,0.000075679,2.5393,0.25388,0.0000074521,0.0002824991
3503,10.1021/ja400069s,105,6(a),311,Pb0.99Na0.01Se1,Pb0.99Na0.01Se1,532,133930,0.00071834,0.000075841,2.5363,0.25464,0.0000074666,0.0002832236
3503,10.1021/ja400069s,105,6(a),311,Pb0.99Na0.01Se1,Pb0.99Na0.01Se1,532.5,133660,0.00071933,0.000076003,2.5334,0.25539,0.0000074817,0.0002839386
3503,10.1021/ja400069s,105,6(a),311,Pb0.99Na0.01Se1,Pb0.99Na0.01Se1,533,133400,0.00072031,0.000076166,2.5304,0.25615,0.0000074963,0.0002846625
3503,10.1021/ja400069s,105,6(a),311,Pb0.99Na0.01Se1,Pb0.99Na0.01Se1,533.5,133140,0.0007213,0.000076328,2.5274,0.2569,0.0000075109,0.0002853921
3503,10.1021/ja400069s,105,6(a),311,Pb0.99Na0.01Se1,Pb0.99Na0.01Se1,534,132880,0.00072228,0.000076491,2.5244,0.25766,0.0000075256,0.0002861195
3503,10.1021/ja400069s,105,6(a),311,Pb0.99Na0.01Se1,Pb0.99Na0.01Se1,534.5,132620,0.00072327,0.000076654,2.5214,0.25842,0.0000075403,0.0002868525
3503,10.1021/ja400069s,105,6(a),311,Pb0.99Na0.01Se1,Pb0.99Na0.01Se1,535,132360,0.00072425,0.000076817,2.5185,0.25917,0.0000075552,0.000287572
3503,10.1021/ja400069s,105,6(a),311,Pb0.99Na0.01Se1,Pb0.99Na0.01Se1,535.5,132110,0.00072524,0.00007698,2.5155,0.25993,0.0000075694,0.0002883085
3503,10.1021/ja400069s,105,6(a),311,Pb0.99Na0.01Se1,Pb0.99Na0.01Se1,536,131850,0.00072622,0.000077144,2.5125,0.26068,0.0000075844,0.0002890428
3503,10.1021/ja400069s,105,6(a),311,Pb0.99Na0.01Se1,Pb0.99Na0.01Se1,536.5,131590,0.00072721,0.000077307,2.5096,0.26144,0.0000075994,0.0002897713
3503,10.1021/ja400069s,105,6(a),311,Pb0.99Na0.01Se1,Pb0.99Na0.01Se1,537,131330,0.0007282,0.000077471,2.5066,0.26219,0.0000076144,0.000290513
3503,10.1021/ja400069s,105,6(a),311,Pb0.99Na0.01Se1,Pb0.99Na0.01Se1,537.5,131070,0.00072918,0.000077635,2.5036,0.26295,0.0000076295,0.0002912526
3503,10.1021/ja400069s,105,6(a),311,Pb0.99Na0.01Se1,Pb0.99Na0.01Se1,538,130810,0.00073017,0.0000778,2.5007,0.2637,0.0000076447,0.0002919862
3503,10.1021/ja400069s,105,6(a),311,Pb0.99Na0.01Se1,Pb0.99Na0.01Se1,538.5,130560,0.00073115,0.000077964,2.4977,0.26446,0.0000076593,0.0002927293
3503,10.1021/ja400069s,105,6(a),311,Pb0.99Na0.01Se1,Pb0.99Na0.01Se1,539,130300,0.00073214,0.000078129,2.4948,0.26521,0.0000076746,0.0002934664
3503,10.1021/ja400069s,105,6(a),311,Pb0.99Na0.01Se1,Pb0.99Na0.01Se1,539.5,130040,0.00073312,0.000078293,2.4919,0.26597,0.0000076899,0.0002942012
3503,10.1021/ja400069s,105,6(a),311,Pb0.99Na0.01Se1,Pb0.99Na0.01Se1,540,129780,0.00073411,0.000078458,2.4889,0.26673,0.0000077053,0.0002949536
3503,10.1021/ja400069s,105,6(a),311,Pb0.99Na0.01Se1,Pb0.99Na0.01Se1,540.5,129530,0.0007351,0.000078624,2.486,0.26748,0.0000077202,0.0002956959
3503,10.1021/ja400069s,105,6(a),311,Pb0.99Na0.01Se1,Pb0.99Na0.01Se1,541,129270,0.00073608,0.000078789,2.4831,0.26824,0.0000077357,0.0002964359
3503,10.1021/ja400069s,105,6(a),311,Pb0.99Na0.01Se1,Pb0.99Na0.01Se1,541.5,129020,0.00073707,0.000078954,2.4801,0.26899,0.0000077507,0.0002971937
3503,10.1021/ja400069s,105,6(a),311,Pb0.99Na0.01Se1,Pb0.99Na0.01Se1,542,128760,0.00073805,0.00007912,2.4772,0.26975,0.0000077664,0.0002979372
3503,10.1021/ja400069s,105,6(a),311,Pb0.99Na0.01Se1,Pb0.99Na0.01Se1,542.5,128510,0.00073904,0.000079286,2.4743,0.2705,0.0000077815,0.0002986865
3503,10.1021/ja400069s,105,6(a),311,Pb0.99Na0.01Se1,Pb0.99Na0.01Se1,543,128250,0.00074002,0.000079452,2.4714,0.27126,0.0000077973,0.0002994335
3503,10.1021/ja400069s,105,6(a),311,Pb0.99Na0.01Se1,Pb0.99Na0.01Se1,543.5,128000,0.00074101,0.000079618,2.4685,0.27201,0.0000078125,0.0003001863
3503,10.1021/ja400069s,105,6(a),311,Pb0.99Na0.01Se1,Pb0.99Na0.01Se1,544,127740,0.00074199,0.000079785,2.4655,0.27277,0.0000078284,0.0003009491
3503,10.1021/ja400069s,105,6(a),311,Pb0.99Na0.01Se1,Pb0.99Na0.01Se1,544.5,127490,0.00074298,0.000079952,2.4626,0.27352,0.0000078438,0.0003017055
3503,10.1021/ja400069s,105,6(a),311,Pb0.99Na0.01Se1,Pb0.99Na0.01Se1,545,127230,0.00074397,0.000080118,2.4597,0.27428,0.0000078598,0.0003024637
3503,10.1021/ja400069s,105,6(a),311,Pb0.99Na0.01Se1,Pb0.99Na0.01Se1,545.5,126980,0.00074495,0.000080285,2.4568,0.27504,0.0000078753,0.0003032196
3503,10.1021/ja400069s,105,6(a),311,Pb0.99Na0.01Se1,Pb0.99Na0.01Se1,546,126730,0.00074594,0.000080453,2.4539,0.27579,0.0000078908,0.0003039814
3503,10.1021/ja400069s,105,6(a),311,Pb0.99Na0.01Se1,Pb0.99Na0.01Se1,546.5,126470,0.00074692,0.00008062,2.4511,0.27655,0.000007907,0.0003047285
3503,10.1021/ja400069s,105,6(a),311,Pb0.99Na0.01Se1,Pb0.99Na0.01Se1,547,126220,0.00074791,0.000080788,2.4482,0.2773,0.0000079227,0.0003054938
3503,10.1021/ja400069s,105,6(a),311,Pb0.99Na0.01Se1,Pb0.99Na0.01Se1,547.5,125970,0.00074889,0.000080955,2.4453,0.27806,0.0000079384,0.0003062569
3503,10.1021/ja400069s,105,6(a),311,Pb0.99Na0.01Se1,Pb0.99Na0.01Se1,548,125720,0.00074988,0.000081123,2.4424,0.27881,0.0000079542,0.0003070259
3503,10.1021/ja400069s,105,6(a),311,Pb0.99Na0.01Se1,Pb0.99Na0.01Se1,548.5,125460,0.00075087,0.000081291,2.4395,0.27957,0.0000079707,0.0003077967
3503,10.1021/ja400069s,105,6(a),311,Pb0.99Na0.01Se1,Pb0.99Na0.01Se1,549,125210,0.00075185,0.00008146,2.4367,0.28032,0.0000079866,0.0003085526
3503,10.1021/ja400069s,105,6(a),311,Pb0.99Na0.01Se1,Pb0.99Na0.01Se1,549.5,124960,0.00075284,0.000081628,2.4338,0.28108,0.0000080026,0.000309327
3503,10.1021/ja400069s,105,6(a),311,Pb0.99Na0.01Se1,Pb0.99Na0.01Se1,550,124710,0.00075382,0.000081797,2.4309,0.28183,0.0000080186,0.0003100991
3503,10.1021/ja400069s,105,6(a),311,Pb0.99Na0.01Se1,Pb0.99Na0.01Se1,550.5,124460,0.00075481,0.000081966,2.4281,0.28259,0.0000080347,0.0003108645
3503,10.1021/ja400069s,105,6(a),311,Pb0.99Na0.01Se1,Pb0.99Na0.01Se1,551,124210,0.00075579,0.000082135,2.4252,0.28334,0.0000080509,0.0003116403
3503,10.1021/ja400069s,105,6(a),311,Pb0.99Na0.01Se1,Pb0.99Na0.01Se1,551.5,123960,0.00075678,0.000082304,2.4223,0.2841,0.0000080671,0.0003124221
3503,10.1021/ja400069s,105,6(a),311,Pb0.99Na0.01Se1,Pb0.99Na0.01Se1,552,123710,0.00075776,0.000082473,2.4195,0.28486,0.0000080834,0.0003131887
3503,10.1021/ja400069s,105,6(a),311,Pb0.99Na0.01Se1,Pb0.99Na0.01Se1,552.5,123460,0.00075875,0.000082643,2.4166,0.28561,0.0000080998,0.0003139742
3503,10.1021/ja400069s,105,6(a),311,Pb0.99Na0.01Se1,Pb0.99Na0.01Se1,553,123210,0.00075974,0.000082812,2.4138,0.28637,0.0000081162,0.0003147485
3503,10.1021/ja400069s,105,6(a),311,Pb0.99Na0.01Se1,Pb0.99Na0.01Se1,553.5,122960,0.00076072,0.000082982,2.411,0.28712,0.0000081327,0.0003155205
3503,10.1021/ja400069s,105,6(a),311,Pb0.99Na0.01Se1,Pb0.99Na0.01Se1,554,122710,0.00076171,0.000083152,2.4081,0.28788,0.0000081493,0.0003163116
3503,10.1021/ja400069s,105,6(a),311,Pb0.99Na0.01Se1,Pb0.99Na0.01Se1,554.5,122460,0.00076269,0.000083323,2.4053,0.28863,0.0000081659,0.0003170873
3503,10.1021/ja400069s,105,6(a),311,Pb0.99Na0.01Se1,Pb0.99Na0.01Se1,555,122210,0.00076368,0.000083493,2.4025,0.28939,0.0000081826,0.0003178689
3503,10.1021/ja400069s,105,6(a),311,Pb0.99Na0.01Se1,Pb0.99Na0.01Se1,555.5,121960,0.00076466,0.000083663,2.3996,0.29014,0.0000081994,0.0003186614
3503,10.1021/ja400069s,105,6(a),311,Pb0.99Na0.01Se1,Pb0.99Na0.01Se1,556,121720,0.00076565,0.000083834,2.3968,0.2909,0.0000082156,0.0003194468
3503,10.1021/ja400069s,105,6(a),311,Pb0.99Na0.01Se1,Pb0.99Na0.01Se1,556.5,121470,0.00076664,0.000084005,2.394,0.29165,0.0000082325,0.0003202339
3503,10.1021/ja400069s,105,6(a),311,Pb0.99Na0.01Se1,Pb0.99Na0.01Se1,557,121220,0.00076762,0.000084176,2.3912,0.29241,0.0000082495,0.0003210187
3503,10.1021/ja400069s,105,6(a),311,Pb0.99Na0.01Se1,Pb0.99Na0.01Se1,557.5,120980,0.00076861,0.000084347,2.3884,0.29317,0.0000082658,0.0003218096
3503,10.1021/ja400069s,105,6(a),311,Pb0.99Na0.01Se1,Pb0.99Na0.01Se1,558,120730,0.00076959,0.000084519,2.3855,0.29392,0.0000082829,0.0003226116
3503,10.1021/ja400069s,105,6(a),311,Pb0.99Na0.01Se1,Pb0.99Na0.01Se1,558.5,120480,0.00077058,0.00008469,2.3827,0.29468,0.0000083001,0.0003234062
3503,10.1021/ja400069s,105,6(a),311,Pb0.99Na0.01Se1,Pb0.99Na0.01Se1,559,120240,0.00077156,0.000084862,2.3799,0.29543,0.0000083167,0.0003241985
3503,10.1021/ja400069s,105,6(a),311,Pb0.99Na0.01Se1,Pb0.99Na0.01Se1,559.5,119990,0.00077255,0.000085034,2.3771,0.29619,0.000008334,0.0003249968
3503,10.1021/ja400069s,105,6(a),311,Pb0.99Na0.01Se1,Pb0.99Na0.01Se1,560,119740,0.00077353,0.000085206,2.3743,0.29694,0.0000083514,0.0003257929
3503,10.1021/ja400069s,105,6(a),311,Pb0.99Na0.01Se1,Pb0.99Na0.01Se1,560.5,119500,0.00077452,0.000085379,2.3716,0.2977,0.0000083682,0.0003265812
3503,10.1021/ja400069s,105,6(a),311,Pb0.99Na0.01Se1,Pb0.99Na0.01Se1,561,119250,0.00077551,0.000085551,2.3688,0.29845,0.0000083857,0.0003273852
3503,10.1021/ja400069s,105,6(a),311,Pb0.99Na0.01Se1,Pb0.99Na0.01Se1,561.5,119010,0.00077649,0.000085724,2.366,0.29921,0.0000084027,0.0003281868
3503,10.1021/ja400069s,105,6(a),311,Pb0.99Na0.01Se1,Pb0.99Na0.01Se1,562,118760,0.00077748,0.000085896,2.3632,0.29996,0.0000084203,0.0003289946
3503,10.1021/ja400069s,105,6(a),311,Pb0.99Na0.01Se1,Pb0.99Na0.01Se1,562.5,118520,0.00077846,0.000086069,2.3604,0.30072,0.0000084374,0.0003298
3503,10.1021/ja400069s,105,6(a),311,Pb0.99Na0.01Se1,Pb0.99Na0.01Se1,563,118280,0.00077945,0.000086242,2.3577,0.30147,0.0000084545,0.0003305976
3503,10.1021/ja400069s,105,6(a),311,Pb0.99Na0.01Se1,Pb0.99Na0.01Se1,563.5,118030,0.00078043,0.000086416,2.3549,0.30223,0.0000084724,0.0003314069
3503,10.1021/ja400069s,105,6(a),311,Pb0.99Na0.01Se1,Pb0.99Na0.01Se1,564,117790,0.00078142,0.000086589,2.3521,0.30299,0.0000084897,0.0003322223
3503,10.1021/ja400069s,105,6(a),311,Pb0.99Na0.01Se1,Pb0.99Na0.01Se1,564.5,117550,0.00078241,0.000086763,2.3494,0.30374,0.000008507,0.0003330255
3503,10.1021/ja400069s,105,6(a),311,Pb0.99Na0.01Se1,Pb0.99Na0.01Se1,565,117300,0.00078339,0.000086936,2.3466,0.3045,0.0000085251,0.0003338405
3503,10.1021/ja400069s,105,6(a),311,Pb0.99Na0.01Se1,Pb0.99Na0.01Se1,565.5,117060,0.00078438,0.00008711,2.3438,0.30525,0.0000085426,0.0003346617
3503,10.1021/ja400069s,105,6(a),311,Pb0.99Na0.01Se1,Pb0.99Na0.01Se1,566,116820,0.00078536,0.000087284,2.3411,0.30601,0.0000085602,0.0003354662
3503,10.1021/ja400069s,105,6(a),311,Pb0.99Na0.01Se1,Pb0.99Na0.01Se1,566.5,116580,0.00078635,0.000087459,2.3383,0.30676,0.0000085778,0.0003362913
3503,10.1021/ja400069s,105,6(a),311,Pb0.99Na0.01Se1,Pb0.99Na0.01Se1,567,116340,0.00078733,0.000087633,2.3356,0.30752,0.0000085955,0.0003370997
3503,10.1021/ja400069s,105,6(a),311,Pb0.99Na0.01Se1,Pb0.99Na0.01Se1,567.5,116090,0.00078832,0.000087808,2.3329,0.30827,0.000008614,0.0003379142
3503,10.1021/ja400069s,105,6(a),311,Pb0.99Na0.01Se1,Pb0.99Na0.01Se1,568,115850,0.0007893,0.000087982,2.3301,0.30903,0.0000086319,0.0003387408
3503,10.1021/ja400069s,105,6(a),311,Pb0.99Na0.01Se1,Pb0.99Na0.01Se1,568.5,115610,0.00079029,0.000088157,2.3274,0.30978,0.0000086498,0.0003395592
3503,10.1021/ja400069s,105,6(a),311,Pb0.99Na0.01Se1,Pb0.99Na0.01Se1,569,115370,0.00079128,0.000088332,2.3247,0.31054,0.0000086678,0.0003403794
3503,10.1021/ja400069s,105,6(a),311,Pb0.99Na0.01Se1,Pb0.99Na0.01Se1,569.5,115130,0.00079226,0.000088507,2.3219,0.3113,0.0000086858,0.0003412119
3503,10.1021/ja400069s,105,6(a),311,Pb0.99Na0.01Se1,Pb0.99Na0.01Se1,570,114890,0.00079325,0.000088683,2.3192,0.31205,0.000008704,0.000342036
3503,10.1021/ja400069s,105,6(a),311,Pb0.99Na0.01Se1,Pb0.99Na0.01Se1,570.5,114650,0.00079423,0.000088858,2.3165,0.31281,0.0000087222,0.0003428578
3503,10.1021/ja400069s,105,6(a),311,Pb0.99Na0.01Se1,Pb0.99Na0.01Se1,571,114410,0.00079522,0.000089034,2.3138,0.31356,0.0000087405,0.0003436857
3503,10.1021/ja400069s,105,6(a),311,Pb0.99Na0.01Se1,Pb0.99Na0.01Se1,571.5,114170,0.0007962,0.00008921,2.3111,0.31432,0.0000087589,0.0003445113
3503,10.1021/ja400069s,105,6(a),311,Pb0.99Na0.01Se1,Pb0.99Na0.01Se1,572,113930,0.00079719,0.000089386,2.3083,0.31507,0.0000087773,0.0003453581
3503,10.1021/ja400069s,105,6(a),311,Pb0.99Na0.01Se1,Pb0.99Na0.01Se1,572.5,113700,0.00079818,0.000089562,2.3056,0.31583,0.0000087951,0.0003461919
3503,10.1021/ja400069s,105,6(a),311,Pb0.99Na0.01Se1,Pb0.99Na0.01Se1,573,113460,0.00079916,0.000089738,2.3029,0.31658,0.0000088137,0.0003470233