sid,DOI,figureid,fignum,sampleid,samplename,composition,Temperature,Carrier concentration,Carrier mobility,Resistivity,Seebeck coefficient
27917,10.1016/j.joule.2017.09.006,25289,10a,31515,Ag9Ga(Se1-xTex)6_ x=0%,Ag9GaSe6,350,,0.037843,0.097876,-0.000062332
27917,10.1016/j.joule.2017.09.006,25289,10a,31515,Ag9Ga(Se1-xTex)6_ x=0%,Ag9GaSe6,400,,0.034845,0.11612,-0.000069234
27917,10.1016/j.joule.2017.09.006,25289,10a,31515,Ag9Ga(Se1-xTex)6_ x=0%,Ag9GaSe6,450,,0.031847,0.13436,-0.000076067
27917,10.1016/j.joule.2017.09.006,25289,10a,31515,Ag9Ga(Se1-xTex)6_ x=0%,Ag9GaSe6,500,,0.028849,0.1526,-0.00008283
27917,10.1016/j.joule.2017.09.006,25289,10a,31515,Ag9Ga(Se1-xTex)6_ x=0%,Ag9GaSe6,550,,0.02585,0.17084,-0.000089523
27917,10.1016/j.joule.2017.09.006,25289,10a,31515,Ag9Ga(Se1-xTex)6_ x=0%,Ag9GaSe6,600,,0.022852,0.18909,-0.000096146
27917,10.1016/j.joule.2017.09.006,25289,10a,31515,Ag9Ga(Se1-xTex)6_ x=0%,Ag9GaSe6,650,,0.019854,0.20733,-0.0001027
27917,10.1016/j.joule.2017.09.006,25289,10a,31515,Ag9Ga(Se1-xTex)6_ x=0%,Ag9GaSe6,700,,0.016856,0.22557,-0.00010918
27917,10.1016/j.joule.2017.09.006,25289,10a,31515,Ag9Ga(Se1-xTex)6_ x=0%,Ag9GaSe6,750,,0.013858,0.24381,-0.0001156
27917,10.1016/j.joule.2017.09.006,25289,10a,31515,Ag9Ga(Se1-xTex)6_ x=0%,Ag9GaSe6,800,,0.01086,0.26205,-0.00012194
27917,10.1016/j.joule.2017.09.006,25299,11a,31515,Ag9Ga(Se1-xTex)6_ x=0%,Ag9GaSe6,850,,,0.2803,-0.00012822
27917,10.1016/j.joule.2017.09.006,25289,10a,31524,Ag9Ga(Se1-xTex)6_ x=12%,Ag9Ga(Se0.88Te0.12)6,350,,0.044165,0.32661,-0.0001164
27917,10.1016/j.joule.2017.09.006,25289,10a,31524,Ag9Ga(Se1-xTex)6_ x=12%,Ag9Ga(Se0.88Te0.12)6,400,,0.04055,0.36666,-0.00012425
27917,10.1016/j.joule.2017.09.006,25289,10a,31524,Ag9Ga(Se1-xTex)6_ x=12%,Ag9Ga(Se0.88Te0.12)6,450,,0.036935,0.40671,-0.0001321
27917,10.1016/j.joule.2017.09.006,25289,10a,31524,Ag9Ga(Se1-xTex)6_ x=12%,Ag9Ga(Se0.88Te0.12)6,500,,0.03332,0.44676,-0.00013995
27917,10.1016/j.joule.2017.09.006,25289,10a,31524,Ag9Ga(Se1-xTex)6_ x=12%,Ag9Ga(Se0.88Te0.12)6,550,,0.029705,0.4868,-0.0001478
27917,10.1016/j.joule.2017.09.006,25289,10a,31524,Ag9Ga(Se1-xTex)6_ x=12%,Ag9Ga(Se0.88Te0.12)6,600,,0.02609,0.52685,-0.00015565
27917,10.1016/j.joule.2017.09.006,25289,10a,31524,Ag9Ga(Se1-xTex)6_ x=12%,Ag9Ga(Se0.88Te0.12)6,650,,0.022475,0.5669,-0.0001635
27917,10.1016/j.joule.2017.09.006,25289,10a,31524,Ag9Ga(Se1-xTex)6_ x=12%,Ag9Ga(Se0.88Te0.12)6,700,,0.01886,0.60694,-0.00017134
27917,10.1016/j.joule.2017.09.006,25289,10a,31524,Ag9Ga(Se1-xTex)6_ x=12%,Ag9Ga(Se0.88Te0.12)6,750,,0.015244,0.64699,-0.00017919
27917,10.1016/j.joule.2017.09.006,25289,10a,31524,Ag9Ga(Se1-xTex)6_ x=12%,Ag9Ga(Se0.88Te0.12)6,800,,0.011629,0.68704,-0.00018704
27917,10.1016/j.joule.2017.09.006,25314,11b,31524,Ag9Ga(Se1-xTex)6_ x=12%,Ag9Ga(Se0.88Te0.12)6,850,,,0.72709,
27917,10.1016/j.joule.2017.09.006,25289,10a,31525,Ag9Ga(Se1-xTex)6_ x=15%,Ag9Ga(Se0.85Te0.15)6,350,,0.045604,0.29574,-0.00010576
27917,10.1016/j.joule.2017.09.006,25289,10a,31525,Ag9Ga(Se1-xTex)6_ x=15%,Ag9Ga(Se0.85Te0.15)6,400,,0.041778,0.33948,-0.00011389
27917,10.1016/j.joule.2017.09.006,25289,10a,31525,Ag9Ga(Se1-xTex)6_ x=15%,Ag9Ga(Se0.85Te0.15)6,450,,0.037953,0.38322,-0.00012201
27917,10.1016/j.joule.2017.09.006,25289,10a,31525,Ag9Ga(Se1-xTex)6_ x=15%,Ag9Ga(Se0.85Te0.15)6,500,,0.034128,0.42696,-0.00013013
27917,10.1016/j.joule.2017.09.006,25289,10a,31525,Ag9Ga(Se1-xTex)6_ x=15%,Ag9Ga(Se0.85Te0.15)6,550,,0.030303,0.4707,-0.00013825
27917,10.1016/j.joule.2017.09.006,25289,10a,31525,Ag9Ga(Se1-xTex)6_ x=15%,Ag9Ga(Se0.85Te0.15)6,600,,0.026478,0.51445,-0.00014638
27917,10.1016/j.joule.2017.09.006,25289,10a,31525,Ag9Ga(Se1-xTex)6_ x=15%,Ag9Ga(Se0.85Te0.15)6,650,,0.022653,0.55819,-0.0001545
27917,10.1016/j.joule.2017.09.006,25289,10a,31525,Ag9Ga(Se1-xTex)6_ x=15%,Ag9Ga(Se0.85Te0.15)6,700,,0.018828,0.60193,-0.00016262
27917,10.1016/j.joule.2017.09.006,25289,10a,31525,Ag9Ga(Se1-xTex)6_ x=15%,Ag9Ga(Se0.85Te0.15)6,750,,0.015003,0.64567,-0.00017074
27917,10.1016/j.joule.2017.09.006,25289,10a,31525,Ag9Ga(Se1-xTex)6_ x=15%,Ag9Ga(Se0.85Te0.15)6,800,,0.011178,0.68941,-0.00017886
27917,10.1016/j.joule.2017.09.006,25299,11a,31525,Ag9Ga(Se1-xTex)6_ x=15%,Ag9Ga(Se0.85Te0.15)6,300,,,,-0.000097642
27917,10.1016/j.joule.2017.09.006,25314,11b,31525,Ag9Ga(Se1-xTex)6_ x=15%,Ag9Ga(Se0.85Te0.15)6,850,,,0.73316,
27917,10.1016/j.joule.2017.09.006,25289,10a,31526,Ag9Ga(Se1-xTex)6_ x=17%,Ag9Ga(Se0.83Te0.17)6,350,,0.048184,0.55845,-0.00014917
27917,10.1016/j.joule.2017.09.006,25289,10a,31526,Ag9Ga(Se1-xTex)6_ x=17%,Ag9Ga(Se0.83Te0.17)6,400,,0.044162,0.61629,-0.0001572
27917,10.1016/j.joule.2017.09.006,25289,10a,31526,Ag9Ga(Se1-xTex)6_ x=17%,Ag9Ga(Se0.83Te0.17)6,450,,0.040139,0.67412,-0.00016523
27917,10.1016/j.joule.2017.09.006,25289,10a,31526,Ag9Ga(Se1-xTex)6_ x=17%,Ag9Ga(Se0.83Te0.17)6,500,,0.036117,0.73195,-0.00017326
27917,10.1016/j.joule.2017.09.006,25289,10a,31526,Ag9Ga(Se1-xTex)6_ x=17%,Ag9Ga(Se0.83Te0.17)6,550,,0.032095,0.78978,-0.00018129
27917,10.1016/j.joule.2017.09.006,25289,10a,31526,Ag9Ga(Se1-xTex)6_ x=17%,Ag9Ga(Se0.83Te0.17)6,600,,0.028072,0.84761,-0.00018932
27917,10.1016/j.joule.2017.09.006,25289,10a,31526,Ag9Ga(Se1-xTex)6_ x=17%,Ag9Ga(Se0.83Te0.17)6,650,,0.02405,0.90544,-0.00019735
27917,10.1016/j.joule.2017.09.006,25289,10a,31526,Ag9Ga(Se1-xTex)6_ x=17%,Ag9Ga(Se0.83Te0.17)6,700,,0.020027,0.96328,-0.00020539
27917,10.1016/j.joule.2017.09.006,25289,10a,31526,Ag9Ga(Se1-xTex)6_ x=17%,Ag9Ga(Se0.83Te0.17)6,750,,0.016005,1.0211,-0.00021342
27917,10.1016/j.joule.2017.09.006,25289,10a,31526,Ag9Ga(Se1-xTex)6_ x=17%,Ag9Ga(Se0.83Te0.17)6,800,,0.011983,1.0789,-0.00022145
27917,10.1016/j.joule.2017.09.006,25289,10a,31526,Ag9Ga(Se1-xTex)6_ x=17%,Ag9Ga(Se0.83Te0.17)6,850,,0.0079602,1.1368,
27917,10.1016/j.joule.2017.09.006,25289,10a,31527,Ag9Ga(Se1-xTex)6_ x=10%,Ag9Ga(Se0.9Te0.1)6,350,,0.041474,0.49558,-0.00013028
27917,10.1016/j.joule.2017.09.006,25289,10a,31527,Ag9Ga(Se1-xTex)6_ x=10%,Ag9Ga(Se0.9Te0.1)6,400,,0.038147,0.51655,-0.00013847
27917,10.1016/j.joule.2017.09.006,25289,10a,31527,Ag9Ga(Se1-xTex)6_ x=10%,Ag9Ga(Se0.9Te0.1)6,450,,0.034821,0.53752,-0.00014666
27917,10.1016/j.joule.2017.09.006,25289,10a,31527,Ag9Ga(Se1-xTex)6_ x=10%,Ag9Ga(Se0.9Te0.1)6,500,,0.031494,0.55849,-0.00015484
27917,10.1016/j.joule.2017.09.006,25289,10a,31527,Ag9Ga(Se1-xTex)6_ x=10%,Ag9Ga(Se0.9Te0.1)6,550,,0.028167,0.57946,-0.00016303
27917,10.1016/j.joule.2017.09.006,25289,10a,31527,Ag9Ga(Se1-xTex)6_ x=10%,Ag9Ga(Se0.9Te0.1)6,600,,0.024841,0.60043,-0.00017121
27917,10.1016/j.joule.2017.09.006,25289,10a,31527,Ag9Ga(Se1-xTex)6_ x=10%,Ag9Ga(Se0.9Te0.1)6,650,,0.021514,0.6214,-0.0001794
27917,10.1016/j.joule.2017.09.006,25289,10a,31527,Ag9Ga(Se1-xTex)6_ x=10%,Ag9Ga(Se0.9Te0.1)6,700,,0.018187,0.64237,-0.00018759
27917,10.1016/j.joule.2017.09.006,25289,10a,31527,Ag9Ga(Se1-xTex)6_ x=10%,Ag9Ga(Se0.9Te0.1)6,750,,0.014861,0.66334,-0.00019577
27917,10.1016/j.joule.2017.09.006,25289,10a,31527,Ag9Ga(Se1-xTex)6_ x=10%,Ag9Ga(Se0.9Te0.1)6,800,,0.011534,0.68431,-0.00020396
27917,10.1016/j.joule.2017.09.006,25289,10a,31516,Ag9Ga(Se1-xTex)6_ x=5%,Ag9Ga(Se0.95Te0.05)6,350,,0.040963,0.14248,-0.00006985
27917,10.1016/j.joule.2017.09.006,25289,10a,31516,Ag9Ga(Se1-xTex)6_ x=5%,Ag9Ga(Se0.95Te0.05)6,400,,0.037734,0.1655,-0.000076597
27917,10.1016/j.joule.2017.09.006,25289,10a,31516,Ag9Ga(Se1-xTex)6_ x=5%,Ag9Ga(Se0.95Te0.05)6,450,,0.034506,0.18852,-0.000083343
27917,10.1016/j.joule.2017.09.006,25289,10a,31516,Ag9Ga(Se1-xTex)6_ x=5%,Ag9Ga(Se0.95Te0.05)6,500,,0.031277,0.21154,-0.00009009
27917,10.1016/j.joule.2017.09.006,25289,10a,31516,Ag9Ga(Se1-xTex)6_ x=5%,Ag9Ga(Se0.95Te0.05)6,550,,0.028049,0.23455,-0.000096837
27917,10.1016/j.joule.2017.09.006,25289,10a,31516,Ag9Ga(Se1-xTex)6_ x=5%,Ag9Ga(Se0.95Te0.05)6,600,,0.02482,0.25757,-0.00010358
27917,10.1016/j.joule.2017.09.006,25289,10a,31516,Ag9Ga(Se1-xTex)6_ x=5%,Ag9Ga(Se0.95Te0.05)6,650,,0.021592,0.28059,-0.00011033
27917,10.1016/j.joule.2017.09.006,25289,10a,31516,Ag9Ga(Se1-xTex)6_ x=5%,Ag9Ga(Se0.95Te0.05)6,700,,0.018363,0.30361,-0.00011708
27917,10.1016/j.joule.2017.09.006,25289,10a,31516,Ag9Ga(Se1-xTex)6_ x=5%,Ag9Ga(Se0.95Te0.05)6,750,,0.015135,0.32663,-0.00012382
27917,10.1016/j.joule.2017.09.006,25289,10a,31516,Ag9Ga(Se1-xTex)6_ x=5%,Ag9Ga(Se0.95Te0.05)6,800,,0.011906,0.34965,-0.00013057
27917,10.1016/j.joule.2017.09.006,25289,10a,31516,Ag9Ga(Se1-xTex)6_ x=5%,Ag9Ga(Se0.95Te0.05)6,850,,0.0086775,0.37266,-0.00013732
27917,10.1016/j.joule.2017.09.006,25299,11a,31523,Ag9Ga(Se1-xTex)6_ x=8%,Ag9Ga(Se0.92Te0.08)6,350,,,0.18122,-0.00008711
27917,10.1016/j.joule.2017.09.006,25299,11a,31523,Ag9Ga(Se1-xTex)6_ x=8%,Ag9Ga(Se0.92Te0.08)6,400,,,0.20396,-0.00009473
27917,10.1016/j.joule.2017.09.006,25299,11a,31523,Ag9Ga(Se1-xTex)6_ x=8%,Ag9Ga(Se0.92Te0.08)6,450,,,0.22669,-0.00010235
27917,10.1016/j.joule.2017.09.006,25299,11a,31523,Ag9Ga(Se1-xTex)6_ x=8%,Ag9Ga(Se0.92Te0.08)6,500,,,0.24943,-0.00010997
27917,10.1016/j.joule.2017.09.006,25299,11a,31523,Ag9Ga(Se1-xTex)6_ x=8%,Ag9Ga(Se0.92Te0.08)6,550,,,0.27216,-0.00011759
27917,10.1016/j.joule.2017.09.006,25299,11a,31523,Ag9Ga(Se1-xTex)6_ x=8%,Ag9Ga(Se0.92Te0.08)6,600,,,0.2949,-0.00012521
27917,10.1016/j.joule.2017.09.006,25299,11a,31523,Ag9Ga(Se1-xTex)6_ x=8%,Ag9Ga(Se0.92Te0.08)6,650,,,0.31764,-0.00013283
27917,10.1016/j.joule.2017.09.006,25299,11a,31523,Ag9Ga(Se1-xTex)6_ x=8%,Ag9Ga(Se0.92Te0.08)6,700,,,0.34037,-0.00014045
27917,10.1016/j.joule.2017.09.006,25299,11a,31523,Ag9Ga(Se1-xTex)6_ x=8%,Ag9Ga(Se0.92Te0.08)6,750,,,0.36311,-0.00014807
27917,10.1016/j.joule.2017.09.006,25299,11a,31523,Ag9Ga(Se1-xTex)6_ x=8%,Ag9Ga(Se0.92Te0.08)6,800,,,0.38585,-0.00015569
27917,10.1016/j.joule.2017.09.006,26835,10d,33625,300k, Ag9GaSe6,,2.5e+24,0.052969,,
27917,10.1016/j.joule.2017.09.006,26835,10d,33625,300k, Ag9GaSe6,,3e+24,0.052213,,
27917,10.1016/j.joule.2017.09.006,26835,10d,33625,300k, Ag9GaSe6,,3.5e+24,0.051457,,
27917,10.1016/j.joule.2017.09.006,26835,10d,33625,300k, Ag9GaSe6,,4e+24,0.0507,,
27917,10.1016/j.joule.2017.09.006,26835,10d,33625,300k, Ag9GaSe6,,4.5e+24,0.049944,,
27917,10.1016/j.joule.2017.09.006,26835,10d,33625,300k, Ag9GaSe6,,5e+24,0.049188,,
27917,10.1016/j.joule.2017.09.006,26835,10d,33625,300k, Ag9GaSe6,,5.5e+24,0.048432,,
27917,10.1016/j.joule.2017.09.006,26835,10d,33625,300k, Ag9GaSe6,,6e+24,0.047675,,
27917,10.1016/j.joule.2017.09.006,26835,10d,33625,300k, Ag9GaSe6,,6.5e+24,0.046919,,
27917,10.1016/j.joule.2017.09.006,26835,10d,33625,300k, Ag9GaSe6,,7e+24,0.046163,,
27917,10.1016/j.joule.2017.09.006,26835,10d,33625,300k, Ag9GaSe6,,7.5e+24,0.045407,,
27917,10.1016/j.joule.2017.09.006,26835,10d,33625,300k, Ag9GaSe6,,8e+24,0.04465,,
27917,10.1016/j.joule.2017.09.006,26835,10d,33625,300k, Ag9GaSe6,,8.5e+24,0.043894,,
27917,10.1016/j.joule.2017.09.006,26835,10d,33625,300k, Ag9GaSe6,,9e+24,0.043138,,
27917,10.1016/j.joule.2017.09.006,26835,10d,33625,300k, Ag9GaSe6,,9.5e+24,0.042382,,
27917,10.1016/j.joule.2017.09.006,26835,10d,33625,300k, Ag9GaSe6,,1e+25,0.041625,,
27917,10.1016/j.joule.2017.09.006,26835,10d,33625,300k, Ag9GaSe6,,1.05e+25,0.040869,,
27917,10.1016/j.joule.2017.09.006,26835,10d,33625,300k, Ag9GaSe6,,1.1e+25,0.040113,,
27917,10.1016/j.joule.2017.09.006,26835,10d,33625,300k, Ag9GaSe6,,1.15e+25,0.039357,,
27917,10.1016/j.joule.2017.09.006,26835,10d,33625,300k, Ag9GaSe6,,1.2e+25,0.0386,,
27917,10.1016/j.joule.2017.09.006,26835,10d,33625,300k, Ag9GaSe6,,1.25e+25,0.037844,,
27917,10.1016/j.joule.2017.09.006,26835,10d,33626,500k, Ag9GaSe6,,3e+24,0.030797,,
27917,10.1016/j.joule.2017.09.006,26835,10d,33626,500k, Ag9GaSe6,,3.5e+24,0.03053,,
27917,10.1016/j.joule.2017.09.006,26835,10d,33626,500k, Ag9GaSe6,,4e+24,0.030263,,
27917,10.1016/j.joule.2017.09.006,26835,10d,33626,500k, Ag9GaSe6,,4.5e+24,0.029996,,
27917,10.1016/j.joule.2017.09.006,26835,10d,33626,500k, Ag9GaSe6,,5e+24,0.029729,,
27917,10.1016/j.joule.2017.09.006,26835,10d,33626,500k, Ag9GaSe6,,5.5e+24,0.029462,,
27917,10.1016/j.joule.2017.09.006,26835,10d,33626,500k, Ag9GaSe6,,6e+24,0.029195,,
27917,10.1016/j.joule.2017.09.006,26835,10d,33626,500k, Ag9GaSe6,,6.5e+24,0.028928,,
27917,10.1016/j.joule.2017.09.006,26835,10d,33626,500k, Ag9GaSe6,,7e+24,0.028661,,
27917,10.1016/j.joule.2017.09.006,26835,10d,33626,500k, Ag9GaSe6,,7.5e+24,0.028393,,
27917,10.1016/j.joule.2017.09.006,26835,10d,33626,500k, Ag9GaSe6,,8e+24,0.028126,,
27917,10.1016/j.joule.2017.09.006,26835,10d,33626,500k, Ag9GaSe6,,8.5e+24,0.027859,,
27917,10.1016/j.joule.2017.09.006,26835,10d,33626,500k, Ag9GaSe6,,9e+24,0.027592,,
27917,10.1016/j.joule.2017.09.006,26835,10d,33626,500k, Ag9GaSe6,,9.5e+24,0.027325,,
27917,10.1016/j.joule.2017.09.006,26835,10d,33626,500k, Ag9GaSe6,,1e+25,0.027058,,
27917,10.1016/j.joule.2017.09.006,26835,10d,33626,500k, Ag9GaSe6,,1.05e+25,0.026791,,
27917,10.1016/j.joule.2017.09.006,26835,10d,33626,500k, Ag9GaSe6,,1.1e+25,0.026524,,
27917,10.1016/j.joule.2017.09.006,26835,10d,33626,500k, Ag9GaSe6,,1.15e+25,0.026257,,
27917,10.1016/j.joule.2017.09.006,26835,10d,33626,500k, Ag9GaSe6,,1.2e+25,0.02599,,
27917,10.1016/j.joule.2017.09.006,26835,10d,33626,500k, Ag9GaSe6,,1.25e+25,0.025722,,
27917,10.1016/j.joule.2017.09.006,26835,10d,33626,500k, Ag9GaSe6,,1.3e+25,0.025455,,
27917,10.1016/j.joule.2017.09.006,26835,10d,33626,500k, Ag9GaSe6,,1.35e+25,0.025188,,
27917,10.1016/j.joule.2017.09.006,26835,10d,33626,500k, Ag9GaSe6,,1.4e+25,0.024921,,
27917,10.1016/j.joule.2017.09.006,26835,10d,33626,500k, Ag9GaSe6,,1.45e+25,0.024654,,
27917,10.1016/j.joule.2017.09.006,26835,10d,33626,500k, Ag9GaSe6,,1.5e+25,0.024387,,
27917,10.1016/j.joule.2017.09.006,26835,10d,33626,500k, Ag9GaSe6,,1.55e+25,0.02412,,
27917,10.1016/j.joule.2017.09.006,26835,10d,33626,500k, Ag9GaSe6,,1.6e+25,0.023853,,
27917,10.1016/j.joule.2017.09.006,26835,10d,33626,500k, Ag9GaSe6,,1.65e+25,0.023586,,
27917,10.1016/j.joule.2017.09.006,26835,10d,33626,500k, Ag9GaSe6,,1.7e+25,0.023318,,
27917,10.1016/j.joule.2017.09.006,26835,10d,33627,800k, Ag9GaSe6,,4.5e+24,0.014062,,
27917,10.1016/j.joule.2017.09.006,26835,10d,33627,800k, Ag9GaSe6,,5e+24,0.014037,,
27917,10.1016/j.joule.2017.09.006,26835,10d,33627,800k, Ag9GaSe6,,5.5e+24,0.014011,,
27917,10.1016/j.joule.2017.09.006,26835,10d,33627,800k, Ag9GaSe6,,6e+24,0.013986,,
27917,10.1016/j.joule.2017.09.006,26835,10d,33627,800k, Ag9GaSe6,,6.5e+24,0.01396,,
27917,10.1016/j.joule.2017.09.006,26835,10d,33627,800k, Ag9GaSe6,,7e+24,0.013935,,
27917,10.1016/j.joule.2017.09.006,26835,10d,33627,800k, Ag9GaSe6,,7.5e+24,0.013909,,
27917,10.1016/j.joule.2017.09.006,26835,10d,33627,800k, Ag9GaSe6,,8e+24,0.013884,,
27917,10.1016/j.joule.2017.09.006,26835,10d,33627,800k, Ag9GaSe6,,8.5e+24,0.013858,,
27917,10.1016/j.joule.2017.09.006,26835,10d,33627,800k, Ag9GaSe6,,9e+24,0.013833,,
27917,10.1016/j.joule.2017.09.006,26835,10d,33627,800k, Ag9GaSe6,,9.5e+24,0.013807,,
27917,10.1016/j.joule.2017.09.006,26835,10d,33627,800k, Ag9GaSe6,,1e+25,0.013782,,
27917,10.1016/j.joule.2017.09.006,26835,10d,33627,800k, Ag9GaSe6,,1.05e+25,0.013756,,
27917,10.1016/j.joule.2017.09.006,26835,10d,33627,800k, Ag9GaSe6,,1.1e+25,0.013731,,
27917,10.1016/j.joule.2017.09.006,26835,10d,33627,800k, Ag9GaSe6,,1.15e+25,0.013705,,
27917,10.1016/j.joule.2017.09.006,26835,10d,33627,800k, Ag9GaSe6,,1.2e+25,0.01368,,
27917,10.1016/j.joule.2017.09.006,26835,10d,33627,800k, Ag9GaSe6,,1.25e+25,0.013654,,
27917,10.1016/j.joule.2017.09.006,26835,10d,33627,800k, Ag9GaSe6,,1.3e+25,0.013629,,
27917,10.1016/j.joule.2017.09.006,26835,10d,33627,800k, Ag9GaSe6,,1.35e+25,0.013603,,
27917,10.1016/j.joule.2017.09.006,26835,10d,33627,800k, Ag9GaSe6,,1.4e+25,0.013578,,
27917,10.1016/j.joule.2017.09.006,26835,10d,33627,800k, Ag9GaSe6,,1.45e+25,0.013552,,
27917,10.1016/j.joule.2017.09.006,26835,10d,33627,800k, Ag9GaSe6,,1.5e+25,0.013527,,
27917,10.1016/j.joule.2017.09.006,26835,10d,33627,800k, Ag9GaSe6,,1.55e+25,0.013501,,
27917,10.1016/j.joule.2017.09.006,26835,10d,33627,800k, Ag9GaSe6,,1.6e+25,0.013476,,
27917,10.1016/j.joule.2017.09.006,26835,10d,33627,800k, Ag9GaSe6,,1.65e+25,0.01345,,
27917,10.1016/j.joule.2017.09.006,26835,10d,33627,800k, Ag9GaSe6,,1.7e+25,0.013425,,
27917,10.1016/j.joule.2017.09.006,26835,10d,33627,800k, Ag9GaSe6,,1.75e+25,0.013399,,
27917,10.1016/j.joule.2017.09.006,26835,10d,33627,800k, Ag9GaSe6,,1.8e+25,0.013374,,
27917,10.1016/j.joule.2017.09.006,26835,10d,33627,800k, Ag9GaSe6,,1.85e+25,0.013348,,
27917,10.1016/j.joule.2017.09.006,26835,10d,33627,800k, Ag9GaSe6,,1.9e+25,0.013323,,
27917,10.1016/j.joule.2017.09.006,26835,10d,33627,800k, Ag9GaSe6,,1.95e+25,0.013297,,
27917,10.1016/j.joule.2017.09.006,26835,10d,33627,800k, Ag9GaSe6,,2e+25,0.013272,,