sid,DOI,figureid,fignum,sampleid,samplename,composition,Temperature,Carrier concentration,Electrical resistivity,Seebeck coefficient,Thermal conductivity,ZT,Electrical conductivity,Power factor,Figure of merit Z
305,10.1063/1.2970089,4706,2(a),5984,Yb13.6La0.4MnSb11,Yb13.6La0.4MnSb11,350,,0.000025004,0.000071524,,0.02659,39993.6010238362,0.0002045946,
305,10.1063/1.2970089,4706,2(a),5984,Yb13.6La0.4MnSb11,Yb13.6La0.4MnSb11,400,,0.00002859,0.000081471,0.71031,0.09566,34977.2647778944,0.0002321624,0.0003268466
305,10.1063/1.2970089,4706,2(a),5984,Yb13.6La0.4MnSb11,Yb13.6La0.4MnSb11,450,,0.000032177,0.000091418,0.70601,0.16473,31078.099263449,0.0002597275,0.0003678807
305,10.1063/1.2970089,4706,2(a),5984,Yb13.6La0.4MnSb11,Yb13.6La0.4MnSb11,500,,0.000035763,0.00010137,0.70171,0.2338,27961.8600229287,0.0002873326,0.0004094749
305,10.1063/1.2970089,4706,2(a),5984,Yb13.6La0.4MnSb11,Yb13.6La0.4MnSb11,550,,0.000039349,0.00011131,0.6974,0.30287,25413.6064448906,0.0003148725,0.0004514948
305,10.1063/1.2970089,4706,2(a),5984,Yb13.6La0.4MnSb11,Yb13.6La0.4MnSb11,600,,0.000042935,0.00012126,0.6931,0.37194,23291.0213112845,0.0003424709,0.0004941147
305,10.1063/1.2970089,4706,2(a),5984,Yb13.6La0.4MnSb11,Yb13.6La0.4MnSb11,650,,0.000046522,0.00013121,0.6888,0.44101,21495.2065689351,0.0003700629,0.0005372573
305,10.1063/1.2970089,4706,2(a),5984,Yb13.6La0.4MnSb11,Yb13.6La0.4MnSb11,700,,0.000050108,0.00014115,0.68449,0.51008,19956.8931108805,0.0003976076,0.0005808816
305,10.1063/1.2970089,4706,2(a),5984,Yb13.6La0.4MnSb11,Yb13.6La0.4MnSb11,750,,0.000053694,0.0001511,0.68019,0.57915,18624.0548292174,0.0004252097,0.0006251337
305,10.1063/1.2970089,4706,2(a),5984,Yb13.6La0.4MnSb11,Yb13.6La0.4MnSb11,800,,0.00005728,0.00016105,0.67588,0.64822,17458.1005586592,0.0004528125,0.00066996
305,10.1063/1.2970089,4706,2(a),5984,Yb13.6La0.4MnSb11,Yb13.6La0.4MnSb11,850,,0.000060866,0.000171,0.67158,0.71729,16429.5337298327,0.000480416,0.0007153519
305,10.1063/1.2970089,4706,2(a),5984,Yb13.6La0.4MnSb11,Yb13.6La0.4MnSb11,900,,0.000064453,0.00018094,0.66728,0.78636,15515.1816052007,0.0005079559,0.0007612336
305,10.1063/1.2970089,4706,2(a),5984,Yb13.6La0.4MnSb11,Yb13.6La0.4MnSb11,950,,0.000068039,0.00019089,0.66297,0.85543,14697.452931407,0.0005355604,0.0008078199
305,10.1063/1.2970089,4706,2(a),5984,Yb13.6La0.4MnSb11,Yb13.6La0.4MnSb11,1000,,0.000071625,0.00020084,0.65867,0.9245,13961.6055846422,0.0005631652,0.0008550035
305,10.1063/1.2970089,4706,2(a),5984,Yb13.6La0.4MnSb11,Yb13.6La0.4MnSb11,1050,,0.000075211,0.00021079,0.65437,0.99357,13295.9274574198,0.0005907703,0.0009028077
305,10.1063/1.2970089,4706,2(a),5984,Yb13.6La0.4MnSb11,Yb13.6La0.4MnSb11,1100,,0.000078798,0.00022073,0.65006,1.0626,12690.6774283611,0.0006183118,0.0009511611
305,10.1063/1.2970089,4706,2(a),5984,Yb13.6La0.4MnSb11,Yb13.6La0.4MnSb11,1150,,0.000082384,0.00023068,0.64576,1.1317,12138.2792775296,0.0006459174,0.0010002438
305,10.1063/1.2970089,4706,2(a),5984,Yb13.6La0.4MnSb11,Yb13.6La0.4MnSb11,1200,,0.00008597,0.00024063,0.64146,1.2008,11631.9646388275,0.0006735233,0.0010499849
305,10.1063/1.2970089,4706,2(a),5984,Yb13.6La0.4MnSb11,Yb13.6La0.4MnSb11,1250,,0.000089556,0.00025058,0.63715,1.3755,11166.1976863638,0.0007011293,0.0011004148
305,10.1063/1.2970089,27494,3(b),5984,Yb13.6La0.4MnSb11,Yb13.6La0.4MnSb11,,5.45e+26,,0.00012315,,,,,
305,10.1063/1.2970089,27494,3(b),5984,Yb13.6La0.4MnSb11,Yb13.6La0.4MnSb11,,5.5e+26,,0.00012317,,,,,
305,10.1063/1.2970089,27494,3(b),5984,Yb13.6La0.4MnSb11,Yb13.6La0.4MnSb11,,5.55e+26,,0.0001232,,,,,
305,10.1063/1.2970089,27494,3(b),5984,Yb13.6La0.4MnSb11,Yb13.6La0.4MnSb11,,5.6e+26,,0.00012322,,,,,
305,10.1063/1.2970089,27494,3(b),5984,Yb13.6La0.4MnSb11,Yb13.6La0.4MnSb11,,5.65e+26,,0.00012325,,,,,
305,10.1063/1.2970089,27494,3(b),5984,Yb13.6La0.4MnSb11,Yb13.6La0.4MnSb11,,5.7e+26,,0.00012327,,,,,
305,10.1063/1.2970089,27494,3(b),5984,Yb13.6La0.4MnSb11,Yb13.6La0.4MnSb11,,5.75e+26,,0.0001233,,,,,
305,10.1063/1.2970089,27494,3(b),5984,Yb13.6La0.4MnSb11,Yb13.6La0.4MnSb11,,5.8e+26,,0.00012332,,,,,
305,10.1063/1.2970089,27494,3(b),5984,Yb13.6La0.4MnSb11,Yb13.6La0.4MnSb11,,5.85e+26,,0.00012335,,,,,
305,10.1063/1.2970089,27494,3(b),5984,Yb13.6La0.4MnSb11,Yb13.6La0.4MnSb11,,5.9e+26,,0.00012337,,,,,
305,10.1063/1.2970089,27494,3(b),5984,Yb13.6La0.4MnSb11,Yb13.6La0.4MnSb11,,5.95e+26,,0.0001234,,,,,
305,10.1063/1.2970089,27494,3(b),5984,Yb13.6La0.4MnSb11,Yb13.6La0.4MnSb11,,6e+26,,0.00012342,,,,,
305,10.1063/1.2970089,27494,3(b),5984,Yb13.6La0.4MnSb11,Yb13.6La0.4MnSb11,,6.05e+26,,0.00012345,,,,,
305,10.1063/1.2970089,27494,3(b),5984,Yb13.6La0.4MnSb11,Yb13.6La0.4MnSb11,,6.1e+26,,0.00012348,,,,,
305,10.1063/1.2970089,27494,3(b),5984,Yb13.6La0.4MnSb11,Yb13.6La0.4MnSb11,,6.15e+26,,0.0001235,,,,,
305,10.1063/1.2970089,27494,3(b),5984,Yb13.6La0.4MnSb11,Yb13.6La0.4MnSb11,,6.2e+26,,0.00012353,,,,,
305,10.1063/1.2970089,27494,3(b),5984,Yb13.6La0.4MnSb11,Yb13.6La0.4MnSb11,,6.25e+26,,0.00012355,,,,,
305,10.1063/1.2970089,27494,3(b),5984,Yb13.6La0.4MnSb11,Yb13.6La0.4MnSb11,,6.3e+26,,0.00012358,,,,,
305,10.1063/1.2970089,27494,3(b),5984,Yb13.6La0.4MnSb11,Yb13.6La0.4MnSb11,,6.35e+26,,0.0001236,,,,,
305,10.1063/1.2970089,27494,3(b),5984,Yb13.6La0.4MnSb11,Yb13.6La0.4MnSb11,,6.4e+26,,0.00012363,,,,,
305,10.1063/1.2970089,27494,3(b),5984,Yb13.6La0.4MnSb11,Yb13.6La0.4MnSb11,,6.45e+26,,0.00012365,,,,,
305,10.1063/1.2970089,27494,3(b),5984,Yb13.6La0.4MnSb11,Yb13.6La0.4MnSb11,,6.5e+26,,0.00012368,,,,,
305,10.1063/1.2970089,27494,3(b),5984,Yb13.6La0.4MnSb11,Yb13.6La0.4MnSb11,,6.55e+26,,0.0001237,,,,,
305,10.1063/1.2970089,27494,3(b),5984,Yb13.6La0.4MnSb11,Yb13.6La0.4MnSb11,,6.6e+26,,0.00012373,,,,,
305,10.1063/1.2970089,27494,3(b),5984,Yb13.6La0.4MnSb11,Yb13.6La0.4MnSb11,,6.65e+26,,0.00012375,,,,,
305,10.1063/1.2970089,4706,2(a),5985,Yb14MnSb11,Yb14MnSb11,350,,0.000020772,0.000063667,0.89508,-0.029516,48141.7292509147,0.0001951419,0.0002180161
305,10.1063/1.2970089,4706,2(a),5985,Yb14MnSb11,Yb14MnSb11,400,,0.00002296,0.000071041,0.88539,0.029184,43554.0069686411,0.0002198094,0.0002482628
305,10.1063/1.2970089,4706,2(a),5985,Yb14MnSb11,Yb14MnSb11,450,,0.000025113,0.000078416,0.8757,0.087884,39820.0135388046,0.000244856,0.0002796118
305,10.1063/1.2970089,4706,2(a),5985,Yb14MnSb11,Yb14MnSb11,500,,0.000027231,0.00008579,0.866,0.14658,36722.8526311924,0.0002702774,0.0003120986
305,10.1063/1.2970089,4706,2(a),5985,Yb14MnSb11,Yb14MnSb11,550,,0.000029313,0.000093164,0.85631,0.20528,34114.5566813359,0.0002960983,0.0003457841
305,10.1063/1.2970089,4706,2(a),5985,Yb14MnSb11,Yb14MnSb11,600,,0.00003136,0.00010054,0.84662,0.26398,31887.7551020408,0.0003223307,0.0003807266
305,10.1063/1.2970089,4706,2(a),5985,Yb14MnSb11,Yb14MnSb11,650,,0.000033372,0.00010791,0.83693,0.32268,29965.2403212274,0.0003489323,0.0004169193
305,10.1063/1.2970089,4706,2(a),5985,Yb14MnSb11,Yb14MnSb11,700,,0.000035348,0.00011529,0.82724,0.38138,28290.1437139301,0.0003760265,0.0004545555
305,10.1063/1.2970089,4706,2(a),5985,Yb14MnSb11,Yb14MnSb11,750,,0.000037289,0.00012266,0.81754,0.44008,26817.5601383786,0.0004034829,0.000493533
305,10.1063/1.2970089,4706,2(a),5985,Yb14MnSb11,Yb14MnSb11,800,,0.000039195,0.00013004,0.80785,0.49878,25513.4583492792,0.0004314428,0.000534063
305,10.1063/1.2970089,4706,2(a),5985,Yb14MnSb11,Yb14MnSb11,850,,0.000041065,0.00013741,0.79816,0.55748,24351.6376476318,0.0004597956,0.0005760695
305,10.1063/1.2970089,4706,2(a),5985,Yb14MnSb11,Yb14MnSb11,900,,0.000042901,0.00014478,0.78847,0.61618,23309.479965502,0.0004885958,0.0006196758
305,10.1063/1.2970089,4706,2(a),5985,Yb14MnSb11,Yb14MnSb11,950,,0.0000447,0.00015216,0.77877,0.67488,22371.3646532438,0.0005179567,0.0006650959
305,10.1063/1.2970089,4706,2(a),5985,Yb14MnSb11,Yb14MnSb11,1000,,0.000046465,0.00015953,0.76908,0.73358,21521.5753793178,0.0005477202,0.0007121759
305,10.1063/1.2970089,4706,2(a),5985,Yb14MnSb11,Yb14MnSb11,1050,,0.000048194,0.00016691,0.75939,0.79228,20749.4708884923,0.0005780584,0.0007612142
305,10.1063/1.2970089,4706,2(a),5985,Yb14MnSb11,Yb14MnSb11,1100,,0.000049888,0.00017428,0.7497,0.85098,20044.9005772931,0.0006088342,0.0008121037
305,10.1063/1.2970089,4706,2(a),5985,Yb14MnSb11,Yb14MnSb11,1150,,0.000051546,0.00018165,0.74001,0.90968,19400.1474411206,0.0006401413,0.0008650441
305,10.1063/1.2970089,4706,2(a),5985,Yb14MnSb11,Yb14MnSb11,1200,,0.000053169,0.00018903,0.73031,0.96838,18807.9520021065,0.0006720522,0.0009202286
305,10.1063/1.2970089,4707,3(a),5985,Yb14MnSb11,Yb14MnSb11,1250,,,0.0001964,,,,,
305,10.1063/1.2970089,4709,5,5985,Yb14MnSb11,Yb14MnSb11,300,,,,,-0.088216,,,
305,10.1063/1.2970089,27494,3(b),33143, Yb14Mn1−xAlxSb11 ,undefined,,1.4e+26,,0.00017641,,,,,
305,10.1063/1.2970089,27494,3(b),33143, Yb14Mn1−xAlxSb11 ,undefined,,1.45e+26,,0.00017606,,,,,
305,10.1063/1.2970089,27494,3(b),33143, Yb14Mn1−xAlxSb11 ,undefined,,1.5e+26,,0.0001757,,,,,
305,10.1063/1.2970089,27494,3(b),33143, Yb14Mn1−xAlxSb11 ,undefined,,1.55e+26,,0.00017535,,,,,
305,10.1063/1.2970089,27494,3(b),33143, Yb14Mn1−xAlxSb11 ,undefined,,1.6e+26,,0.000175,,,,,
305,10.1063/1.2970089,27494,3(b),33143, Yb14Mn1−xAlxSb11 ,undefined,,1.65e+26,,0.00017465,,,,,
305,10.1063/1.2970089,27494,3(b),33143, Yb14Mn1−xAlxSb11 ,undefined,,1.7e+26,,0.00017429,,,,,
305,10.1063/1.2970089,27494,3(b),33143, Yb14Mn1−xAlxSb11 ,undefined,,1.75e+26,,0.00017394,,,,,
305,10.1063/1.2970089,27494,3(b),33143, Yb14Mn1−xAlxSb11 ,undefined,,1.8e+26,,0.00017359,,,,,
305,10.1063/1.2970089,27494,3(b),33143, Yb14Mn1−xAlxSb11 ,undefined,,1.85e+26,,0.00017323,,,,,
305,10.1063/1.2970089,27494,3(b),33143, Yb14Mn1−xAlxSb11 ,undefined,,1.9e+26,,0.00017288,,,,,
305,10.1063/1.2970089,27494,3(b),33143, Yb14Mn1−xAlxSb11 ,undefined,,1.95e+26,,0.00017253,,,,,
305,10.1063/1.2970089,27494,3(b),33143, Yb14Mn1−xAlxSb11 ,undefined,,2e+26,,0.00017217,,,,,
305,10.1063/1.2970089,27494,3(b),33143, Yb14Mn1−xAlxSb11 ,undefined,,2.05e+26,,0.00017182,,,,,
305,10.1063/1.2970089,27494,3(b),33143, Yb14Mn1−xAlxSb11 ,undefined,,2.1e+26,,0.00017147,,,,,
305,10.1063/1.2970089,27494,3(b),33143, Yb14Mn1−xAlxSb11 ,undefined,,2.15e+26,,0.00017112,,,,,
305,10.1063/1.2970089,27494,3(b),33143, Yb14Mn1−xAlxSb11 ,undefined,,2.2e+26,,0.00017076,,,,,
305,10.1063/1.2970089,27494,3(b),33143, Yb14Mn1−xAlxSb11 ,undefined,,2.25e+26,,0.00017041,,,,,
305,10.1063/1.2970089,27494,3(b),33143, Yb14Mn1−xAlxSb11 ,undefined,,2.3e+26,,0.00017006,,,,,
305,10.1063/1.2970089,27494,3(b),33143, Yb14Mn1−xAlxSb11 ,undefined,,2.35e+26,,0.0001697,,,,,
305,10.1063/1.2970089,27494,3(b),33143, Yb14Mn1−xAlxSb11 ,undefined,,2.4e+26,,0.00016935,,,,,
305,10.1063/1.2970089,27494,3(b),33143, Yb14Mn1−xAlxSb11 ,undefined,,2.45e+26,,0.000169,,,,,
305,10.1063/1.2970089,27494,3(b),33143, Yb14Mn1−xAlxSb11 ,undefined,,2.5e+26,,0.00016865,,,,,
305,10.1063/1.2970089,27494,3(b),33143, Yb14Mn1−xAlxSb11 ,undefined,,2.55e+26,,0.00016829,,,,,
305,10.1063/1.2970089,27494,3(b),33143, Yb14Mn1−xAlxSb11 ,undefined,,2.6e+26,,0.00016794,,,,,
305,10.1063/1.2970089,27494,3(b),33143, Yb14Mn1−xAlxSb11 ,undefined,,2.65e+26,,0.00016759,,,,,
305,10.1063/1.2970089,27494,3(b),33143, Yb14Mn1−xAlxSb11 ,undefined,,2.7e+26,,0.00016723,,,,,
305,10.1063/1.2970089,27494,3(b),33143, Yb14Mn1−xAlxSb11 ,undefined,,2.75e+26,,0.00016688,,,,,
305,10.1063/1.2970089,27494,3(b),33143, Yb14Mn1−xAlxSb11 ,undefined,,2.8e+26,,0.00016653,,,,,
305,10.1063/1.2970089,27494,3(b),33143, Yb14Mn1−xAlxSb11 ,undefined,,2.85e+26,,0.00016617,,,,,
305,10.1063/1.2970089,27494,3(b),33143, Yb14Mn1−xAlxSb11 ,undefined,,2.9e+26,,0.00016582,,,,,
305,10.1063/1.2970089,27494,3(b),33143, Yb14Mn1−xAlxSb11 ,undefined,,2.95e+26,,0.00016547,,,,,
305,10.1063/1.2970089,27494,3(b),33143, Yb14Mn1−xAlxSb11 ,undefined,,3e+26,,0.00016512,,,,,
305,10.1063/1.2970089,27494,3(b),33143, Yb14Mn1−xAlxSb11 ,undefined,,3.05e+26,,0.00016476,,,,,
305,10.1063/1.2970089,27494,3(b),33143, Yb14Mn1−xAlxSb11 ,undefined,,3.1e+26,,0.00016441,,,,,
305,10.1063/1.2970089,27494,3(b),33143, Yb14Mn1−xAlxSb11 ,undefined,,3.15e+26,,0.00016406,,,,,
305,10.1063/1.2970089,27494,3(b),33143, Yb14Mn1−xAlxSb11 ,undefined,,3.2e+26,,0.0001637,,,,,
305,10.1063/1.2970089,27494,3(b),33143, Yb14Mn1−xAlxSb11 ,undefined,,3.25e+26,,0.00016335,,,,,
305,10.1063/1.2970089,27494,3(b),33143, Yb14Mn1−xAlxSb11 ,undefined,,3.3e+26,,0.000163,,,,,
305,10.1063/1.2970089,27494,3(b),33143, Yb14Mn1−xAlxSb11 ,undefined,,3.35e+26,,0.00016265,,,,,
305,10.1063/1.2970089,27494,3(b),33143, Yb14Mn1−xAlxSb11 ,undefined,,3.4e+26,,0.00016229,,,,,
305,10.1063/1.2970089,27494,3(b),33143, Yb14Mn1−xAlxSb11 ,undefined,,3.45e+26,,0.00016194,,,,,
305,10.1063/1.2970089,27494,3(b),33143, Yb14Mn1−xAlxSb11 ,undefined,,3.5e+26,,0.00016159,,,,,
305,10.1063/1.2970089,27494,3(b),33143, Yb14Mn1−xAlxSb11 ,undefined,,3.55e+26,,0.00016123,,,,,
305,10.1063/1.2970089,27494,3(b),33143, Yb14Mn1−xAlxSb11 ,undefined,,3.6e+26,,0.00016088,,,,,
305,10.1063/1.2970089,27494,3(b),33143, Yb14Mn1−xAlxSb11 ,undefined,,3.65e+26,,0.00016053,,,,,
305,10.1063/1.2970089,27494,3(b),33143, Yb14Mn1−xAlxSb11 ,undefined,,3.7e+26,,0.00016018,,,,,
305,10.1063/1.2970089,27494,3(b),33143, Yb14Mn1−xAlxSb11 ,undefined,,3.75e+26,,0.00015982,,,,,
305,10.1063/1.2970089,27494,3(b),33143, Yb14Mn1−xAlxSb11 ,undefined,,3.8e+26,,0.00015947,,,,,
305,10.1063/1.2970089,27494,3(b),33143, Yb14Mn1−xAlxSb11 ,undefined,,3.85e+26,,0.00015912,,,,,
305,10.1063/1.2970089,27494,3(b),33143, Yb14Mn1−xAlxSb11 ,undefined,,3.9e+26,,0.00015876,,,,,
305,10.1063/1.2970089,27494,3(b),33143, Yb14Mn1−xAlxSb11 ,undefined,,3.95e+26,,0.00015841,,,,,
305,10.1063/1.2970089,27494,3(b),33143, Yb14Mn1−xAlxSb11 ,undefined,,4e+26,,0.00015806,,,,,
305,10.1063/1.2970089,27494,3(b),33143, Yb14Mn1−xAlxSb11 ,undefined,,4.05e+26,,0.0001577,,,,,
305,10.1063/1.2970089,27494,3(b),33143, Yb14Mn1−xAlxSb11 ,undefined,,4.1e+26,,0.00015735,,,,,
305,10.1063/1.2970089,27494,3(b),33143, Yb14Mn1−xAlxSb11 ,undefined,,4.15e+26,,0.000157,,,,,
305,10.1063/1.2970089,27494,3(b),33143, Yb14Mn1−xAlxSb11 ,undefined,,4.2e+26,,0.00015665,,,,,
305,10.1063/1.2970089,27494,3(b),33143, Yb14Mn1−xAlxSb11 ,undefined,,4.25e+26,,0.00015629,,,,,
305,10.1063/1.2970089,27494,3(b),33143, Yb14Mn1−xAlxSb11 ,undefined,,4.3e+26,,0.00015594,,,,,
305,10.1063/1.2970089,27494,3(b),33143, Yb14Mn1−xAlxSb11 ,undefined,,4.35e+26,,0.00015559,,,,,
305,10.1063/1.2970089,27494,3(b),33143, Yb14Mn1−xAlxSb11 ,undefined,,4.4e+26,,0.00015523,,,,,
305,10.1063/1.2970089,27494,3(b),33143, Yb14Mn1−xAlxSb11 ,undefined,,4.45e+26,,0.00015488,,,,,
305,10.1063/1.2970089,27494,3(b),33143, Yb14Mn1−xAlxSb11 ,undefined,,4.5e+26,,0.00015453,,,,,
305,10.1063/1.2970089,27494,3(b),33143, Yb14Mn1−xAlxSb11 ,undefined,,4.55e+26,,0.00015418,,,,,
305,10.1063/1.2970089,27494,3(b),33143, Yb14Mn1−xAlxSb11 ,undefined,,4.6e+26,,0.00015382,,,,,
305,10.1063/1.2970089,27494,3(b),33143, Yb14Mn1−xAlxSb11 ,undefined,,4.65e+26,,0.00015347,,,,,
305,10.1063/1.2970089,27494,3(b),33143, Yb14Mn1−xAlxSb11 ,undefined,,4.7e+26,,0.00015312,,,,,
305,10.1063/1.2970089,27494,3(b),33143, Yb14Mn1−xAlxSb11 ,undefined,,4.75e+26,,0.00015276,,,,,
305,10.1063/1.2970089,27494,3(b),33143, Yb14Mn1−xAlxSb11 ,undefined,,4.8e+26,,0.00015241,,,,,
305,10.1063/1.2970089,27494,3(b),33143, Yb14Mn1−xAlxSb11 ,undefined,,4.85e+26,,0.00015206,,,,,
305,10.1063/1.2970089,27494,3(b),33143, Yb14Mn1−xAlxSb11 ,undefined,,4.9e+26,,0.0001517,,,,,
305,10.1063/1.2970089,27494,3(b),33143, Yb14Mn1−xAlxSb11 ,undefined,,4.95e+26,,0.00015135,,,,,
305,10.1063/1.2970089,27494,3(b),33143, Yb14Mn1−xAlxSb11 ,undefined,,5e+26,,0.000151,,,,,
305,10.1063/1.2970089,27494,3(b),33143, Yb14Mn1−xAlxSb11 ,undefined,,5.05e+26,,0.00015065,,,,,
305,10.1063/1.2970089,27494,3(b),33143, Yb14Mn1−xAlxSb11 ,undefined,,5.1e+26,,0.00015029,,,,,
305,10.1063/1.2970089,27494,3(b),33143, Yb14Mn1−xAlxSb11 ,undefined,,5.15e+26,,0.00014994,,,,,
305,10.1063/1.2970089,27494,3(b),33143, Yb14Mn1−xAlxSb11 ,undefined,,5.2e+26,,0.00014959,,,,,
305,10.1063/1.2970089,27494,3(b),33143, Yb14Mn1−xAlxSb11 ,undefined,,5.25e+26,,0.00014923,,,,,
305,10.1063/1.2970089,27494,3(b),33143, Yb14Mn1−xAlxSb11 ,undefined,,5.3e+26,,0.00014888,,,,,
305,10.1063/1.2970089,27494,3(b),33143, Yb14Mn1−xAlxSb11 ,undefined,,5.35e+26,,0.00014853,,,,,
305,10.1063/1.2970089,27494,3(b),33143, Yb14Mn1−xAlxSb11 ,undefined,,5.4e+26,,0.00014818,,,,,
305,10.1063/1.2970089,27494,3(b),33143, Yb14Mn1−xAlxSb11 ,undefined,,5.45e+26,,0.00014782,,,,,
305,10.1063/1.2970089,27494,3(b),33143, Yb14Mn1−xAlxSb11 ,undefined,,5.5e+26,,0.00014747,,,,,
305,10.1063/1.2970089,27494,3(b),33143, Yb14Mn1−xAlxSb11 ,undefined,,5.55e+26,,0.00014712,,,,,
305,10.1063/1.2970089,27494,3(b),33143, Yb14Mn1−xAlxSb11 ,undefined,,5.6e+26,,0.00014676,,,,,
305,10.1063/1.2970089,27494,3(b),33143, Yb14Mn1−xAlxSb11 ,undefined,,5.65e+26,,0.00014641,,,,,
305,10.1063/1.2970089,27494,3(b),33143, Yb14Mn1−xAlxSb11 ,undefined,,5.7e+26,,0.00014606,,,,,
305,10.1063/1.2970089,27494,3(b),33143, Yb14Mn1−xAlxSb11 ,undefined,,5.75e+26,,0.0001457,,,,,
305,10.1063/1.2970089,27494,3(b),33143, Yb14Mn1−xAlxSb11 ,undefined,,5.8e+26,,0.00014535,,,,,
305,10.1063/1.2970089,27494,3(b),33143, Yb14Mn1−xAlxSb11 ,undefined,,5.85e+26,,0.000145,,,,,
305,10.1063/1.2970089,27494,3(b),33143, Yb14Mn1−xAlxSb11 ,undefined,,5.9e+26,,0.00014465,,,,,
305,10.1063/1.2970089,27494,3(b),33143, Yb14Mn1−xAlxSb11 ,undefined,,5.95e+26,,0.00014429,,,,,
305,10.1063/1.2970089,27494,3(b),33143, Yb14Mn1−xAlxSb11 ,undefined,,6e+26,,0.00014394,,,,,
305,10.1063/1.2970089,27494,3(b),33143, Yb14Mn1−xAlxSb11 ,undefined,,6.05e+26,,0.00014359,,,,,
305,10.1063/1.2970089,27494,3(b),33143, Yb14Mn1−xAlxSb11 ,undefined,,6.1e+26,,0.00014323,,,,,
305,10.1063/1.2970089,27494,3(b),33143, Yb14Mn1−xAlxSb11 ,undefined,,6.15e+26,,0.00014288,,,,,
305,10.1063/1.2970089,27494,3(b),33143, Yb14Mn1−xAlxSb11 ,undefined,,6.2e+26,,0.00014253,,,,,
305,10.1063/1.2970089,27494,3(b),33143, Yb14Mn1−xAlxSb11 ,undefined,,6.25e+26,,0.00014218,,,,,
305,10.1063/1.2970089,27494,3(b),33143, Yb14Mn1−xAlxSb11 ,undefined,,6.3e+26,,0.00014182,,,,,
305,10.1063/1.2970089,27494,3(b),33143, Yb14Mn1−xAlxSb11 ,undefined,,6.35e+26,,0.00014147,,,,,
305,10.1063/1.2970089,27494,3(b),33143, Yb14Mn1−xAlxSb11 ,undefined,,6.4e+26,,0.00014112,,,,,
305,10.1063/1.2970089,27494,3(b),33143, Yb14Mn1−xAlxSb11 ,undefined,,6.45e+26,,0.00014076,,,,,
305,10.1063/1.2970089,27494,3(b),33143, Yb14Mn1−xAlxSb11 ,undefined,,6.5e+26,,0.00014041,,,,,
305,10.1063/1.2970089,27494,3(b),33143, Yb14Mn1−xAlxSb11 ,undefined,,6.55e+26,,0.00014006,,,,,
305,10.1063/1.2970089,27494,3(b),33143, Yb14Mn1−xAlxSb11 ,undefined,,6.6e+26,,0.00013971,,,,,
305,10.1063/1.2970089,27494,3(b),33143, Yb14Mn1−xAlxSb11 ,undefined,,6.65e+26,,0.00013935,,,,,
305,10.1063/1.2970089,27494,3(b),33143, Yb14Mn1−xAlxSb11 ,undefined,,6.7e+26,,0.000139,,,,,
305,10.1063/1.2970089,27494,3(b),33143, Yb14Mn1−xAlxSb11 ,undefined,,6.75e+26,,0.00013865,,,,,
305,10.1063/1.2970089,27494,3(b),33143, Yb14Mn1−xAlxSb11 ,undefined,,6.8e+26,,0.00013829,,,,,
305,10.1063/1.2970089,27494,3(b),33143, Yb14Mn1−xAlxSb11 ,undefined,,6.85e+26,,0.00013794,,,,,
305,10.1063/1.2970089,27494,3(b),33143, Yb14Mn1−xAlxSb11 ,undefined,,6.9e+26,,0.00013759,,,,,
305,10.1063/1.2970089,27494,3(b),33143, Yb14Mn1−xAlxSb11 ,undefined,,6.95e+26,,0.00013723,,,,,
305,10.1063/1.2970089,27494,3(b),33143, Yb14Mn1−xAlxSb11 ,undefined,,7e+26,,0.00013688,,,,,
305,10.1063/1.2970089,27494,3(b),33143, Yb14Mn1−xAlxSb11 ,undefined,,7.05e+26,,0.00013653,,,,,
305,10.1063/1.2970089,27494,3(b),33143, Yb14Mn1−xAlxSb11 ,undefined,,7.1e+26,,0.00013618,,,,,
305,10.1063/1.2970089,27494,3(b),33143, Yb14Mn1−xAlxSb11 ,undefined,,7.15e+26,,0.00013582,,,,,
305,10.1063/1.2970089,27494,3(b),33143, Yb14Mn1−xAlxSb11 ,undefined,,7.2e+26,,0.00013547,,,,,
305,10.1063/1.2970089,27494,3(b),33143, Yb14Mn1−xAlxSb11 ,undefined,,7.25e+26,,0.00013512,,,,,
305,10.1063/1.2970089,27494,3(b),33143, Yb14Mn1−xAlxSb11 ,undefined,,7.3e+26,,0.00013476,,,,,
305,10.1063/1.2970089,27494,3(b),33143, Yb14Mn1−xAlxSb11 ,undefined,,7.35e+26,,0.00013441,,,,,
305,10.1063/1.2970089,27494,3(b),33143, Yb14Mn1−xAlxSb11 ,undefined,,7.4e+26,,0.00013406,,,,,