sid,DOI,figureid,fignum,sampleid,samplename,composition,Temperature,Electrical conductivity,Power factor,Seebeck coefficient,Thermal conductivity,ZT,Electrical resistivity,Figure of merit Z
3503,10.1021/ja400069s,105,6(a),393,Pb0.95Ba0.04Na0.01Se1,Pb0.95Ba0.04Na0.01Se1,304,190160,0.00035579,0.000031965,2.6121,-0.0708,0.0000052587,0.0001362084
3503,10.1021/ja400069s,105,6(a),393,Pb0.95Ba0.04Na0.01Se1,Pb0.95Ba0.04Na0.01Se1,304.5,189850,0.00035657,0.000032089,2.6092,-0.069867,0.0000052673,0.0001366587
3503,10.1021/ja400069s,105,6(a),393,Pb0.95Ba0.04Na0.01Se1,Pb0.95Ba0.04Na0.01Se1,305,189530,0.00035734,0.000032212,2.6062,-0.068933,0.0000052762,0.0001371115
3503,10.1021/ja400069s,105,6(a),393,Pb0.95Ba0.04Na0.01Se1,Pb0.95Ba0.04Na0.01Se1,305.5,189220,0.00035812,0.000032335,2.6033,-0.067999,0.0000052849,0.0001375639
3503,10.1021/ja400069s,105,6(a),393,Pb0.95Ba0.04Na0.01Se1,Pb0.95Ba0.04Na0.01Se1,306,188900,0.00035889,0.000032458,2.6004,-0.067065,0.0000052938,0.0001380134
3503,10.1021/ja400069s,105,6(a),393,Pb0.95Ba0.04Na0.01Se1,Pb0.95Ba0.04Na0.01Se1,306.5,188590,0.00035967,0.000032581,2.5975,-0.066131,0.0000053025,0.0001384678
3503,10.1021/ja400069s,105,6(a),393,Pb0.95Ba0.04Na0.01Se1,Pb0.95Ba0.04Na0.01Se1,307,188280,0.00036044,0.000032704,2.5946,-0.065197,0.0000053112,0.0001389193
3503,10.1021/ja400069s,105,6(a),393,Pb0.95Ba0.04Na0.01Se1,Pb0.95Ba0.04Na0.01Se1,307.5,187970,0.00036122,0.000032826,2.5917,-0.064264,0.00000532,0.0001393757
3503,10.1021/ja400069s,105,6(a),393,Pb0.95Ba0.04Na0.01Se1,Pb0.95Ba0.04Na0.01Se1,308,187660,0.00036199,0.000032948,2.5888,-0.06333,0.0000053288,0.0001398293
3503,10.1021/ja400069s,105,6(a),393,Pb0.95Ba0.04Na0.01Se1,Pb0.95Ba0.04Na0.01Se1,308.5,187340,0.00036277,0.00003307,2.5859,-0.062396,0.0000053379,0.0001402877
3503,10.1021/ja400069s,105,6(a),393,Pb0.95Ba0.04Na0.01Se1,Pb0.95Ba0.04Na0.01Se1,309,187030,0.00036354,0.000033192,2.583,-0.061462,0.0000053467,0.0001407433
3503,10.1021/ja400069s,105,6(a),393,Pb0.95Ba0.04Na0.01Se1,Pb0.95Ba0.04Na0.01Se1,309.5,186720,0.00036432,0.000033313,2.5801,-0.060528,0.0000053556,0.0001412038
3503,10.1021/ja400069s,105,6(a),393,Pb0.95Ba0.04Na0.01Se1,Pb0.95Ba0.04Na0.01Se1,310,186410,0.00036509,0.000033435,2.5772,-0.059594,0.0000053645,0.0001416615
3503,10.1021/ja400069s,105,6(a),393,Pb0.95Ba0.04Na0.01Se1,Pb0.95Ba0.04Na0.01Se1,310.5,186110,0.00036587,0.000033556,2.5743,-0.058661,0.0000053732,0.0001421241
3503,10.1021/ja400069s,105,6(a),393,Pb0.95Ba0.04Na0.01Se1,Pb0.95Ba0.04Na0.01Se1,311,185800,0.00036664,0.000033677,2.5714,-0.057727,0.0000053821,0.0001425838
3503,10.1021/ja400069s,105,6(a),393,Pb0.95Ba0.04Na0.01Se1,Pb0.95Ba0.04Na0.01Se1,311.5,185490,0.00036742,0.000033797,2.5685,-0.056793,0.0000053911,0.0001430485
3503,10.1021/ja400069s,105,6(a),393,Pb0.95Ba0.04Na0.01Se1,Pb0.95Ba0.04Na0.01Se1,312,185180,0.00036819,0.000033918,2.5657,-0.055859,0.0000054002,0.0001435047
3503,10.1021/ja400069s,105,6(a),393,Pb0.95Ba0.04Na0.01Se1,Pb0.95Ba0.04Na0.01Se1,312.5,184870,0.00036897,0.000034038,2.5628,-0.054925,0.0000054092,0.0001439714
3503,10.1021/ja400069s,105,6(a),393,Pb0.95Ba0.04Na0.01Se1,Pb0.95Ba0.04Na0.01Se1,313,184570,0.00036974,0.000034159,2.5599,-0.053991,0.000005418,0.0001444353
3503,10.1021/ja400069s,105,6(a),393,Pb0.95Ba0.04Na0.01Se1,Pb0.95Ba0.04Na0.01Se1,313.5,184260,0.00037052,0.000034279,2.5571,-0.053057,0.0000054271,0.0001448985
3503,10.1021/ja400069s,105,6(a),393,Pb0.95Ba0.04Na0.01Se1,Pb0.95Ba0.04Na0.01Se1,314,183960,0.00037129,0.000034398,2.5542,-0.052124,0.000005436,0.0001453645
3503,10.1021/ja400069s,105,6(a),393,Pb0.95Ba0.04Na0.01Se1,Pb0.95Ba0.04Na0.01Se1,314.5,183650,0.00037207,0.000034518,2.5513,-0.05119,0.0000054451,0.0001458355
3503,10.1021/ja400069s,105,6(a),393,Pb0.95Ba0.04Na0.01Se1,Pb0.95Ba0.04Na0.01Se1,315,183350,0.00037285,0.000034638,2.5485,-0.050256,0.000005454,0.0001463017
3503,10.1021/ja400069s,105,6(a),393,Pb0.95Ba0.04Na0.01Se1,Pb0.95Ba0.04Na0.01Se1,315.5,183040,0.00037362,0.000034757,2.5456,-0.049322,0.0000054633,0.0001467709
3503,10.1021/ja400069s,105,6(a),393,Pb0.95Ba0.04Na0.01Se1,Pb0.95Ba0.04Na0.01Se1,316,182740,0.0003744,0.000034876,2.5428,-0.048388,0.0000054723,0.0001472393
3503,10.1021/ja400069s,105,6(a),393,Pb0.95Ba0.04Na0.01Se1,Pb0.95Ba0.04Na0.01Se1,316.5,182440,0.00037517,0.000034995,2.5399,-0.047454,0.0000054813,0.0001477105
3503,10.1021/ja400069s,105,6(a),393,Pb0.95Ba0.04Na0.01Se1,Pb0.95Ba0.04Na0.01Se1,317,182130,0.00037595,0.000035114,2.5371,-0.046521,0.0000054906,0.000148181
3503,10.1021/ja400069s,105,6(a),393,Pb0.95Ba0.04Na0.01Se1,Pb0.95Ba0.04Na0.01Se1,317.5,181830,0.00037672,0.000035232,2.5343,-0.045587,0.0000054996,0.0001486485
3503,10.1021/ja400069s,105,6(a),393,Pb0.95Ba0.04Na0.01Se1,Pb0.95Ba0.04Na0.01Se1,318,181530,0.0003775,0.000035351,2.5314,-0.044653,0.0000055087,0.000149127
3503,10.1021/ja400069s,105,6(a),393,Pb0.95Ba0.04Na0.01Se1,Pb0.95Ba0.04Na0.01Se1,318.5,181230,0.00037827,0.000035469,2.5286,-0.043719,0.0000055179,0.0001495966
3503,10.1021/ja400069s,105,6(a),393,Pb0.95Ba0.04Na0.01Se1,Pb0.95Ba0.04Na0.01Se1,319,180930,0.00037905,0.000035588,2.5258,-0.042785,0.000005527,0.0001500713
3503,10.1021/ja400069s,105,6(a),393,Pb0.95Ba0.04Na0.01Se1,Pb0.95Ba0.04Na0.01Se1,319.5,180630,0.00037982,0.000035706,2.523,-0.041851,0.0000055362,0.000150543
3503,10.1021/ja400069s,105,6(a),393,Pb0.95Ba0.04Na0.01Se1,Pb0.95Ba0.04Na0.01Se1,320,180330,0.0003806,0.000035823,2.5201,-0.040918,0.0000055454,0.0001510258
3503,10.1021/ja400069s,105,6(a),393,Pb0.95Ba0.04Na0.01Se1,Pb0.95Ba0.04Na0.01Se1,320.5,180030,0.00038137,0.000035941,2.5173,-0.039984,0.0000055546,0.0001514996
3503,10.1021/ja400069s,105,6(a),393,Pb0.95Ba0.04Na0.01Se1,Pb0.95Ba0.04Na0.01Se1,321,179730,0.00038215,0.000036059,2.5145,-0.03905,0.0000055639,0.0001519785
3503,10.1021/ja400069s,105,6(a),393,Pb0.95Ba0.04Na0.01Se1,Pb0.95Ba0.04Na0.01Se1,321.5,179430,0.00038292,0.000036176,2.5117,-0.038116,0.0000055732,0.0001524545
3503,10.1021/ja400069s,105,6(a),393,Pb0.95Ba0.04Na0.01Se1,Pb0.95Ba0.04Na0.01Se1,322,179130,0.0003837,0.000036294,2.5089,-0.037182,0.0000055825,0.0001529355
3503,10.1021/ja400069s,105,6(a),393,Pb0.95Ba0.04Na0.01Se1,Pb0.95Ba0.04Na0.01Se1,322.5,178840,0.00038447,0.000036411,2.5061,-0.036248,0.0000055916,0.0001534137
3503,10.1021/ja400069s,105,6(a),393,Pb0.95Ba0.04Na0.01Se1,Pb0.95Ba0.04Na0.01Se1,323,178540,0.00038525,0.000036528,2.5033,-0.035314,0.000005601,0.0001538969
3503,10.1021/ja400069s,105,6(a),393,Pb0.95Ba0.04Na0.01Se1,Pb0.95Ba0.04Na0.01Se1,323.5,178240,0.00038602,0.000036645,2.5005,-0.034381,0.0000056104,0.0001543771
3503,10.1021/ja400069s,105,6(a),393,Pb0.95Ba0.04Na0.01Se1,Pb0.95Ba0.04Na0.01Se1,324,177950,0.0003868,0.000036762,2.4977,-0.033447,0.0000056196,0.0001548625
3503,10.1021/ja400069s,105,6(a),393,Pb0.95Ba0.04Na0.01Se1,Pb0.95Ba0.04Na0.01Se1,324.5,177650,0.00038757,0.000036878,2.4949,-0.032513,0.000005629,0.0001553449
3503,10.1021/ja400069s,105,6(a),393,Pb0.95Ba0.04Na0.01Se1,Pb0.95Ba0.04Na0.01Se1,325,177360,0.00038835,0.000036995,2.4921,-0.031579,0.0000056382,0.0001558324
3503,10.1021/ja400069s,105,6(a),393,Pb0.95Ba0.04Na0.01Se1,Pb0.95Ba0.04Na0.01Se1,325.5,177060,0.00038912,0.000037111,2.4893,-0.030645,0.0000056478,0.000156317
3503,10.1021/ja400069s,105,6(a),393,Pb0.95Ba0.04Na0.01Se1,Pb0.95Ba0.04Na0.01Se1,326,176770,0.0003899,0.000037228,2.4866,-0.029711,0.0000056571,0.0001568005
3503,10.1021/ja400069s,105,6(a),393,Pb0.95Ba0.04Na0.01Se1,Pb0.95Ba0.04Na0.01Se1,326.5,176480,0.00039068,0.000037344,2.4838,-0.028778,0.0000056664,0.0001572912
3503,10.1021/ja400069s,105,6(a),393,Pb0.95Ba0.04Na0.01Se1,Pb0.95Ba0.04Na0.01Se1,327,176180,0.00039145,0.00003746,2.481,-0.027844,0.000005676,0.0001577791
3503,10.1021/ja400069s,105,6(a),393,Pb0.95Ba0.04Na0.01Se1,Pb0.95Ba0.04Na0.01Se1,327.5,175890,0.00039223,0.000037576,2.4782,-0.02691,0.0000056854,0.0001582721
3503,10.1021/ja400069s,105,6(a),393,Pb0.95Ba0.04Na0.01Se1,Pb0.95Ba0.04Na0.01Se1,328,175600,0.000393,0.000037692,2.4755,-0.025976,0.0000056948,0.0001587558
3503,10.1021/ja400069s,105,6(a),393,Pb0.95Ba0.04Na0.01Se1,Pb0.95Ba0.04Na0.01Se1,328.5,175310,0.00039378,0.000037808,2.4727,-0.025042,0.0000057042,0.000159251
3503,10.1021/ja400069s,105,6(a),393,Pb0.95Ba0.04Na0.01Se1,Pb0.95Ba0.04Na0.01Se1,329,175010,0.00039455,0.000037924,2.4699,-0.024108,0.000005714,0.0001597433
3503,10.1021/ja400069s,105,6(a),393,Pb0.95Ba0.04Na0.01Se1,Pb0.95Ba0.04Na0.01Se1,329.5,174720,0.00039533,0.000038039,2.4672,-0.023175,0.0000057234,0.0001602343
3503,10.1021/ja400069s,105,6(a),393,Pb0.95Ba0.04Na0.01Se1,Pb0.95Ba0.04Na0.01Se1,330,174430,0.0003961,0.000038155,2.4644,-0.022241,0.000005733,0.0001607288
3503,10.1021/ja400069s,105,6(a),393,Pb0.95Ba0.04Na0.01Se1,Pb0.95Ba0.04Na0.01Se1,330.5,174140,0.00039688,0.00003827,2.4617,-0.021307,0.0000057425,0.0001612219
3503,10.1021/ja400069s,105,6(a),393,Pb0.95Ba0.04Na0.01Se1,Pb0.95Ba0.04Na0.01Se1,331,173850,0.00039765,0.000038385,2.4589,-0.020373,0.0000057521,0.0001617187
3503,10.1021/ja400069s,105,6(a),393,Pb0.95Ba0.04Na0.01Se1,Pb0.95Ba0.04Na0.01Se1,331.5,173560,0.00039843,0.000038501,2.4562,-0.019439,0.0000057617,0.000162214
3503,10.1021/ja400069s,105,6(a),393,Pb0.95Ba0.04Na0.01Se1,Pb0.95Ba0.04Na0.01Se1,332,173280,0.0003992,0.000038616,2.4535,-0.018505,0.000005771,0.0001627063
3503,10.1021/ja400069s,105,6(a),393,Pb0.95Ba0.04Na0.01Se1,Pb0.95Ba0.04Na0.01Se1,332.5,172990,0.00039998,0.000038731,2.4507,-0.017571,0.0000057807,0.0001632105
3503,10.1021/ja400069s,105,6(a),393,Pb0.95Ba0.04Na0.01Se1,Pb0.95Ba0.04Na0.01Se1,333,172700,0.00040075,0.000038846,2.448,-0.016638,0.0000057904,0.0001637051
3503,10.1021/ja400069s,105,6(a),393,Pb0.95Ba0.04Na0.01Se1,Pb0.95Ba0.04Na0.01Se1,333.5,172410,0.00040153,0.000038961,2.4453,-0.015704,0.0000058001,0.0001642048
3503,10.1021/ja400069s,105,6(a),393,Pb0.95Ba0.04Na0.01Se1,Pb0.95Ba0.04Na0.01Se1,334,172130,0.0004023,0.000039076,2.4425,-0.01477,0.0000058096,0.0001647083
3503,10.1021/ja400069s,105,6(a),393,Pb0.95Ba0.04Na0.01Se1,Pb0.95Ba0.04Na0.01Se1,334.5,171840,0.00040308,0.00003919,2.4398,-0.013836,0.0000058194,0.0001652103
3503,10.1021/ja400069s,105,6(a),393,Pb0.95Ba0.04Na0.01Se1,Pb0.95Ba0.04Na0.01Se1,335,171550,0.00040385,0.000039305,2.4371,-0.012902,0.0000058292,0.0001657092
3503,10.1021/ja400069s,105,6(a),393,Pb0.95Ba0.04Na0.01Se1,Pb0.95Ba0.04Na0.01Se1,335.5,171270,0.00040463,0.00003942,2.4344,-0.011968,0.0000058387,0.0001662134
3503,10.1021/ja400069s,105,6(a),393,Pb0.95Ba0.04Na0.01Se1,Pb0.95Ba0.04Na0.01Se1,336,170980,0.0004054,0.000039534,2.4317,-0.011035,0.0000058486,0.0001667146
3503,10.1021/ja400069s,105,6(a),393,Pb0.95Ba0.04Na0.01Se1,Pb0.95Ba0.04Na0.01Se1,336.5,170700,0.00040618,0.000039649,2.429,-0.010101,0.0000058582,0.0001672211
3503,10.1021/ja400069s,105,6(a),393,Pb0.95Ba0.04Na0.01Se1,Pb0.95Ba0.04Na0.01Se1,337,170420,0.00040695,0.000039763,2.4263,-0.0091669,0.0000058679,0.0001677245
3503,10.1021/ja400069s,105,6(a),393,Pb0.95Ba0.04Na0.01Se1,Pb0.95Ba0.04Na0.01Se1,337.5,170130,0.00040773,0.000039877,2.4236,-0.008233,0.0000058779,0.0001682332
3503,10.1021/ja400069s,105,6(a),393,Pb0.95Ba0.04Na0.01Se1,Pb0.95Ba0.04Na0.01Se1,338,169850,0.00040851,0.000039992,2.4209,-0.0072992,0.0000058875,0.000168743
3503,10.1021/ja400069s,105,6(a),393,Pb0.95Ba0.04Na0.01Se1,Pb0.95Ba0.04Na0.01Se1,338.5,169570,0.00040928,0.000040106,2.4182,-0.0063653,0.0000058973,0.0001692499
3503,10.1021/ja400069s,105,6(a),393,Pb0.95Ba0.04Na0.01Se1,Pb0.95Ba0.04Na0.01Se1,339,169280,0.00041006,0.00004022,2.4155,-0.0054315,0.0000059074,0.000169762
3503,10.1021/ja400069s,105,6(a),393,Pb0.95Ba0.04Na0.01Se1,Pb0.95Ba0.04Na0.01Se1,339.5,169000,0.00041083,0.000040334,2.4128,-0.0044977,0.0000059172,0.0001702711
3503,10.1021/ja400069s,105,6(a),393,Pb0.95Ba0.04Na0.01Se1,Pb0.95Ba0.04Na0.01Se1,340,168720,0.00041161,0.000040448,2.4101,-0.0035638,0.000005927,0.0001707854
3503,10.1021/ja400069s,105,6(a),393,Pb0.95Ba0.04Na0.01Se1,Pb0.95Ba0.04Na0.01Se1,340.5,168440,0.00041238,0.000040562,2.4074,-0.00263,0.0000059368,0.0001712968
3503,10.1021/ja400069s,105,6(a),393,Pb0.95Ba0.04Na0.01Se1,Pb0.95Ba0.04Na0.01Se1,341,168160,0.00041316,0.000040676,2.4048,-0.0016961,0.0000059467,0.0001718064
3503,10.1021/ja400069s,105,6(a),393,Pb0.95Ba0.04Na0.01Se1,Pb0.95Ba0.04Na0.01Se1,341.5,167880,0.00041393,0.00004079,2.4021,-0.00076229,0.0000059566,0.0001723201
3503,10.1021/ja400069s,105,6(a),393,Pb0.95Ba0.04Na0.01Se1,Pb0.95Ba0.04Na0.01Se1,342,167600,0.00041471,0.000040904,2.3994,0.00017156,0.0000059666,0.000172839
3503,10.1021/ja400069s,105,6(a),393,Pb0.95Ba0.04Na0.01Se1,Pb0.95Ba0.04Na0.01Se1,342.5,167320,0.00041548,0.000041018,2.3967,0.0011054,0.0000059766,0.000173355
3503,10.1021/ja400069s,105,6(a),393,Pb0.95Ba0.04Na0.01Se1,Pb0.95Ba0.04Na0.01Se1,343,167040,0.00041626,0.000041132,2.3941,0.0020392,0.0000059866,0.0001738691
3503,10.1021/ja400069s,105,6(a),393,Pb0.95Ba0.04Na0.01Se1,Pb0.95Ba0.04Na0.01Se1,343.5,166760,0.00041703,0.000041246,2.3914,0.0029731,0.0000059966,0.0001743874
3503,10.1021/ja400069s,105,6(a),393,Pb0.95Ba0.04Na0.01Se1,Pb0.95Ba0.04Na0.01Se1,344,166480,0.00041781,0.00004136,2.3888,0.0039069,0.0000060067,0.0001749037
3503,10.1021/ja400069s,105,6(a),393,Pb0.95Ba0.04Na0.01Se1,Pb0.95Ba0.04Na0.01Se1,344.5,166210,0.00041858,0.000041473,2.3861,0.0048408,0.0000060165,0.0001754243
3503,10.1021/ja400069s,105,6(a),393,Pb0.95Ba0.04Na0.01Se1,Pb0.95Ba0.04Na0.01Se1,345,165930,0.00041936,0.000041587,2.3835,0.0057746,0.0000060266,0.0001759429
3503,10.1021/ja400069s,105,6(a),393,Pb0.95Ba0.04Na0.01Se1,Pb0.95Ba0.04Na0.01Se1,345.5,165650,0.00042013,0.000041701,2.3808,0.0067085,0.0000060368,0.0001764659
3503,10.1021/ja400069s,105,6(a),393,Pb0.95Ba0.04Na0.01Se1,Pb0.95Ba0.04Na0.01Se1,346,165380,0.00042091,0.000041814,2.3782,0.0076423,0.0000060467,0.0001769868
3503,10.1021/ja400069s,105,6(a),393,Pb0.95Ba0.04Na0.01Se1,Pb0.95Ba0.04Na0.01Se1,346.5,165100,0.00042168,0.000041928,2.3755,0.0085761,0.0000060569,0.0001775121
3503,10.1021/ja400069s,105,6(a),393,Pb0.95Ba0.04Na0.01Se1,Pb0.95Ba0.04Na0.01Se1,347,164830,0.00042246,0.000042042,2.3729,0.00951,0.0000060669,0.0001780353
3503,10.1021/ja400069s,105,6(a),393,Pb0.95Ba0.04Na0.01Se1,Pb0.95Ba0.04Na0.01Se1,347.5,164550,0.00042323,0.000042155,2.3703,0.010444,0.0000060772,0.0001785555
3503,10.1021/ja400069s,105,6(a),393,Pb0.95Ba0.04Na0.01Se1,Pb0.95Ba0.04Na0.01Se1,348,164280,0.00042401,0.000042269,2.3676,0.011378,0.0000060872,0.0001790885
3503,10.1021/ja400069s,105,6(a),393,Pb0.95Ba0.04Na0.01Se1,Pb0.95Ba0.04Na0.01Se1,348.5,164000,0.00042478,0.000042382,2.365,0.012312,0.0000060976,0.000179611
3503,10.1021/ja400069s,105,6(a),393,Pb0.95Ba0.04Na0.01Se1,Pb0.95Ba0.04Na0.01Se1,349,163730,0.00042556,0.000042496,2.3624,0.013245,0.0000061076,0.0001801388
3503,10.1021/ja400069s,105,6(a),393,Pb0.95Ba0.04Na0.01Se1,Pb0.95Ba0.04Na0.01Se1,349.5,163450,0.00042634,0.000042609,2.3598,0.014179,0.0000061181,0.0001806679
3503,10.1021/ja400069s,105,6(a),393,Pb0.95Ba0.04Na0.01Se1,Pb0.95Ba0.04Na0.01Se1,350,163180,0.00042711,0.000042723,2.3572,0.015113,0.0000061282,0.0001811938
3503,10.1021/ja400069s,105,6(a),393,Pb0.95Ba0.04Na0.01Se1,Pb0.95Ba0.04Na0.01Se1,350.5,162910,0.00042789,0.000042837,2.3545,0.016047,0.0000061384,0.0001817329
3503,10.1021/ja400069s,105,6(a),393,Pb0.95Ba0.04Na0.01Se1,Pb0.95Ba0.04Na0.01Se1,351,162640,0.00042866,0.00004295,2.3519,0.016981,0.0000061485,0.0001822612
3503,10.1021/ja400069s,105,6(a),393,Pb0.95Ba0.04Na0.01Se1,Pb0.95Ba0.04Na0.01Se1,351.5,162370,0.00042944,0.000043064,2.3493,0.017915,0.0000061588,0.0001827949
3503,10.1021/ja400069s,105,6(a),393,Pb0.95Ba0.04Na0.01Se1,Pb0.95Ba0.04Na0.01Se1,352,162090,0.00043021,0.000043177,2.3467,0.018848,0.0000061694,0.0001833255
3503,10.1021/ja400069s,105,6(a),393,Pb0.95Ba0.04Na0.01Se1,Pb0.95Ba0.04Na0.01Se1,352.5,161820,0.00043099,0.000043291,2.3441,0.019782,0.0000061797,0.0001838616
3503,10.1021/ja400069s,105,6(a),393,Pb0.95Ba0.04Na0.01Se1,Pb0.95Ba0.04Na0.01Se1,353,161550,0.00043176,0.000043404,2.3415,0.020716,0.00000619,0.0001843946
3503,10.1021/ja400069s,105,6(a),393,Pb0.95Ba0.04Na0.01Se1,Pb0.95Ba0.04Na0.01Se1,353.5,161280,0.00043254,0.000043518,2.3389,0.02165,0.0000062004,0.0001849331
3503,10.1021/ja400069s,105,6(a),393,Pb0.95Ba0.04Na0.01Se1,Pb0.95Ba0.04Na0.01Se1,354,161010,0.00043331,0.000043631,2.3364,0.022584,0.0000062108,0.0001854605
3503,10.1021/ja400069s,105,6(a),393,Pb0.95Ba0.04Na0.01Se1,Pb0.95Ba0.04Na0.01Se1,354.5,160740,0.00043409,0.000043745,2.3338,0.023518,0.0000062212,0.0001860014
3503,10.1021/ja400069s,105,6(a),393,Pb0.95Ba0.04Na0.01Se1,Pb0.95Ba0.04Na0.01Se1,355,160470,0.00043486,0.000043859,2.3312,0.024451,0.0000062317,0.0001865391
3503,10.1021/ja400069s,105,6(a),393,Pb0.95Ba0.04Na0.01Se1,Pb0.95Ba0.04Na0.01Se1,355.5,160210,0.00043564,0.000043972,2.3286,0.025385,0.0000062418,0.0001870824
3503,10.1021/ja400069s,105,6(a),393,Pb0.95Ba0.04Na0.01Se1,Pb0.95Ba0.04Na0.01Se1,356,159940,0.00043641,0.000044086,2.326,0.026319,0.0000062523,0.0001876225
3503,10.1021/ja400069s,105,6(a),393,Pb0.95Ba0.04Na0.01Se1,Pb0.95Ba0.04Na0.01Se1,356.5,159670,0.00043719,0.0000442,2.3235,0.027253,0.0000062629,0.0001881601
3503,10.1021/ja400069s,105,6(a),393,Pb0.95Ba0.04Na0.01Se1,Pb0.95Ba0.04Na0.01Se1,357,159400,0.00043796,0.000044313,2.3209,0.028187,0.0000062735,0.0001887027
3503,10.1021/ja400069s,105,6(a),393,Pb0.95Ba0.04Na0.01Se1,Pb0.95Ba0.04Na0.01Se1,357.5,159140,0.00043874,0.000044427,2.3183,0.029121,0.0000062838,0.0001892507
3503,10.1021/ja400069s,105,6(a),393,Pb0.95Ba0.04Na0.01Se1,Pb0.95Ba0.04Na0.01Se1,358,158870,0.00043951,0.000044541,2.3158,0.030055,0.0000062945,0.0001897875
3503,10.1021/ja400069s,105,6(a),393,Pb0.95Ba0.04Na0.01Se1,Pb0.95Ba0.04Na0.01Se1,358.5,158600,0.00044029,0.000044654,2.3132,0.030988,0.0000063052,0.0001903381
3503,10.1021/ja400069s,105,6(a),393,Pb0.95Ba0.04Na0.01Se1,Pb0.95Ba0.04Na0.01Se1,359,158340,0.00044106,0.000044768,2.3107,0.031922,0.0000063155,0.0001908772
3503,10.1021/ja400069s,105,6(a),393,Pb0.95Ba0.04Na0.01Se1,Pb0.95Ba0.04Na0.01Se1,359.5,158070,0.00044184,0.000044882,2.3081,0.032856,0.0000063263,0.0001914302
3503,10.1021/ja400069s,105,6(a),393,Pb0.95Ba0.04Na0.01Se1,Pb0.95Ba0.04Na0.01Se1,360,157810,0.00044261,0.000044996,2.3056,0.03379,0.0000063367,0.0001919717
3503,10.1021/ja400069s,105,6(a),393,Pb0.95Ba0.04Na0.01Se1,Pb0.95Ba0.04Na0.01Se1,360.5,157540,0.00044339,0.00004511,2.303,0.034724,0.0000063476,0.0001925271
3503,10.1021/ja400069s,105,6(a),393,Pb0.95Ba0.04Na0.01Se1,Pb0.95Ba0.04Na0.01Se1,361,157280,0.00044417,0.000045224,2.3005,0.035658,0.0000063581,0.0001930754
3503,10.1021/ja400069s,105,6(a),393,Pb0.95Ba0.04Na0.01Se1,Pb0.95Ba0.04Na0.01Se1,361.5,157010,0.00044494,0.000045338,2.2979,0.036591,0.000006369,0.000193629
3503,10.1021/ja400069s,105,6(a),393,Pb0.95Ba0.04Na0.01Se1,Pb0.95Ba0.04Na0.01Se1,362,156750,0.00044572,0.000045452,2.2954,0.037525,0.0000063796,0.0001941797
3503,10.1021/ja400069s,105,6(a),393,Pb0.95Ba0.04Na0.01Se1,Pb0.95Ba0.04Na0.01Se1,362.5,156490,0.00044649,0.000045566,2.2929,0.038459,0.0000063902,0.0001947272
3503,10.1021/ja400069s,105,6(a),393,Pb0.95Ba0.04Na0.01Se1,Pb0.95Ba0.04Na0.01Se1,363,156230,0.00044727,0.00004568,2.2904,0.039393,0.0000064008,0.0001952803
3503,10.1021/ja400069s,105,6(a),393,Pb0.95Ba0.04Na0.01Se1,Pb0.95Ba0.04Na0.01Se1,363.5,155960,0.00044804,0.000045794,2.2878,0.040327,0.0000064119,0.0001958388
3503,10.1021/ja400069s,105,6(a),393,Pb0.95Ba0.04Na0.01Se1,Pb0.95Ba0.04Na0.01Se1,364,155700,0.00044882,0.000045908,2.2853,0.041261,0.0000064226,0.0001963943
3503,10.1021/ja400069s,105,6(a),393,Pb0.95Ba0.04Na0.01Se1,Pb0.95Ba0.04Na0.01Se1,364.5,155440,0.00044959,0.000046023,2.2828,0.042194,0.0000064334,0.0001969467
3503,10.1021/ja400069s,105,6(a),393,Pb0.95Ba0.04Na0.01Se1,Pb0.95Ba0.04Na0.01Se1,365,155180,0.00045037,0.000046137,2.2803,0.043128,0.0000064441,0.0001975047
3503,10.1021/ja400069s,105,6(a),393,Pb0.95Ba0.04Na0.01Se1,Pb0.95Ba0.04Na0.01Se1,365.5,154920,0.00045114,0.000046251,2.2778,0.044062,0.0000064549,0.0001980595
3503,10.1021/ja400069s,105,6(a),393,Pb0.95Ba0.04Na0.01Se1,Pb0.95Ba0.04Na0.01Se1,366,154660,0.00045192,0.000046366,2.2753,0.044996,0.0000064658,0.00019862
3503,10.1021/ja400069s,105,6(a),393,Pb0.95Ba0.04Na0.01Se1,Pb0.95Ba0.04Na0.01Se1,366.5,154400,0.00045269,0.00004648,2.2728,0.04593,0.0000064767,0.0001991772