sid,DOI,figureid,fignum,sampleid,samplename,composition,Temperature,Electrical conductivity,Power factor,Seebeck coefficient,Thermal conductivity,ZT,Electrical resistivity,Figure of merit Z
3503,10.1021/ja400069s,105,6(a),381,Pb0.98Ba0.01Na0.01Se1,Pb0.98Ba0.01Na0.01Se1,414,175830,0.00048466,0.000047705,2.7263,0.04383,0.0000056873,0.0001777721
3503,10.1021/ja400069s,105,6(a),381,Pb0.98Ba0.01Na0.01Se1,Pb0.98Ba0.01Na0.01Se1,414.5,175480,0.00048566,0.000047829,2.7231,0.044801,0.0000056987,0.0001783482
3503,10.1021/ja400069s,105,6(a),381,Pb0.98Ba0.01Na0.01Se1,Pb0.98Ba0.01Na0.01Se1,415,175120,0.00048665,0.000047953,2.7199,0.045772,0.0000057104,0.000178922
3503,10.1021/ja400069s,105,6(a),381,Pb0.98Ba0.01Na0.01Se1,Pb0.98Ba0.01Na0.01Se1,415.5,174760,0.00048764,0.000048078,2.7168,0.046744,0.0000057221,0.0001794906
3503,10.1021/ja400069s,105,6(a),381,Pb0.98Ba0.01Na0.01Se1,Pb0.98Ba0.01Na0.01Se1,416,174410,0.00048863,0.000048203,2.7136,0.047715,0.0000057336,0.0001800671
3503,10.1021/ja400069s,105,6(a),381,Pb0.98Ba0.01Na0.01Se1,Pb0.98Ba0.01Na0.01Se1,416.5,174050,0.00048962,0.000048328,2.7105,0.048686,0.0000057455,0.0001806383
3503,10.1021/ja400069s,105,6(a),381,Pb0.98Ba0.01Na0.01Se1,Pb0.98Ba0.01Na0.01Se1,417,173700,0.00049062,0.000048453,2.7073,0.049657,0.0000057571,0.0001812211
3503,10.1021/ja400069s,105,6(a),381,Pb0.98Ba0.01Na0.01Se1,Pb0.98Ba0.01Na0.01Se1,417.5,173340,0.00049161,0.000048579,2.7042,0.050629,0.000005769,0.000181795
3503,10.1021/ja400069s,105,6(a),381,Pb0.98Ba0.01Na0.01Se1,Pb0.98Ba0.01Na0.01Se1,418,172990,0.0004926,0.000048705,2.701,0.0516,0.0000057807,0.0001823769
3503,10.1021/ja400069s,105,6(a),381,Pb0.98Ba0.01Na0.01Se1,Pb0.98Ba0.01Na0.01Se1,418.5,172630,0.00049359,0.000048831,2.6979,0.052571,0.0000057927,0.0001829534
3503,10.1021/ja400069s,105,6(a),381,Pb0.98Ba0.01Na0.01Se1,Pb0.98Ba0.01Na0.01Se1,419,172280,0.00049458,0.000048957,2.6947,0.053542,0.0000058045,0.0001835381
3503,10.1021/ja400069s,105,6(a),381,Pb0.98Ba0.01Na0.01Se1,Pb0.98Ba0.01Na0.01Se1,419.5,171930,0.00049557,0.000049084,2.6916,0.054514,0.0000058163,0.0001841173
3503,10.1021/ja400069s,105,6(a),381,Pb0.98Ba0.01Na0.01Se1,Pb0.98Ba0.01Na0.01Se1,420,171580,0.00049657,0.000049211,2.6885,0.055485,0.0000058282,0.0001847015
3503,10.1021/ja400069s,105,6(a),381,Pb0.98Ba0.01Na0.01Se1,Pb0.98Ba0.01Na0.01Se1,420.5,171230,0.00049756,0.000049339,2.6853,0.056456,0.0000058401,0.0001852903
3503,10.1021/ja400069s,105,6(a),381,Pb0.98Ba0.01Na0.01Se1,Pb0.98Ba0.01Na0.01Se1,421,170880,0.00049855,0.000049466,2.6822,0.057427,0.0000058521,0.0001858735
3503,10.1021/ja400069s,105,6(a),381,Pb0.98Ba0.01Na0.01Se1,Pb0.98Ba0.01Na0.01Se1,421.5,170530,0.00049954,0.000049594,2.6791,0.058399,0.0000058641,0.0001864581
3503,10.1021/ja400069s,105,6(a),381,Pb0.98Ba0.01Na0.01Se1,Pb0.98Ba0.01Na0.01Se1,422,170180,0.00050053,0.000049722,2.676,0.05937,0.0000058761,0.0001870441
3503,10.1021/ja400069s,105,6(a),381,Pb0.98Ba0.01Na0.01Se1,Pb0.98Ba0.01Na0.01Se1,422.5,169830,0.00050153,0.000049851,2.6728,0.060341,0.0000058882,0.0001876422
3503,10.1021/ja400069s,105,6(a),381,Pb0.98Ba0.01Na0.01Se1,Pb0.98Ba0.01Na0.01Se1,423,169480,0.00050252,0.000049979,2.6697,0.061312,0.0000059004,0.0001882309
3503,10.1021/ja400069s,105,6(a),381,Pb0.98Ba0.01Na0.01Se1,Pb0.98Ba0.01Na0.01Se1,423.5,169130,0.00050351,0.000050108,2.6666,0.062284,0.0000059126,0.000188821
3503,10.1021/ja400069s,105,6(a),381,Pb0.98Ba0.01Na0.01Se1,Pb0.98Ba0.01Na0.01Se1,424,168790,0.0005045,0.000050238,2.6635,0.063255,0.0000059245,0.0001894124
3503,10.1021/ja400069s,105,6(a),381,Pb0.98Ba0.01Na0.01Se1,Pb0.98Ba0.01Na0.01Se1,424.5,168440,0.00050549,0.000050367,2.6604,0.064226,0.0000059368,0.0001900053
3503,10.1021/ja400069s,105,6(a),381,Pb0.98Ba0.01Na0.01Se1,Pb0.98Ba0.01Na0.01Se1,425,168090,0.00050649,0.000050497,2.6573,0.065198,0.0000059492,0.0001906032
3503,10.1021/ja400069s,105,6(a),381,Pb0.98Ba0.01Na0.01Se1,Pb0.98Ba0.01Na0.01Se1,425.5,167750,0.00050748,0.000050627,2.6542,0.066169,0.0000059613,0.0001911989
3503,10.1021/ja400069s,105,6(a),381,Pb0.98Ba0.01Na0.01Se1,Pb0.98Ba0.01Na0.01Se1,426,167400,0.00050847,0.000050758,2.6511,0.06714,0.0000059737,0.0001917959
3503,10.1021/ja400069s,105,6(a),381,Pb0.98Ba0.01Na0.01Se1,Pb0.98Ba0.01Na0.01Se1,426.5,167060,0.00050946,0.000050888,2.648,0.068111,0.0000059859,0.0001923943
3503,10.1021/ja400069s,105,6(a),381,Pb0.98Ba0.01Na0.01Se1,Pb0.98Ba0.01Na0.01Se1,427,166720,0.00051045,0.000051019,2.6449,0.069083,0.0000059981,0.0001929941
3503,10.1021/ja400069s,105,6(a),381,Pb0.98Ba0.01Na0.01Se1,Pb0.98Ba0.01Na0.01Se1,427.5,166370,0.00051144,0.00005115,2.6418,0.070054,0.0000060107,0.0001935953
3503,10.1021/ja400069s,105,6(a),381,Pb0.98Ba0.01Na0.01Se1,Pb0.98Ba0.01Na0.01Se1,428,166030,0.00051244,0.000051282,2.6387,0.071025,0.000006023,0.0001942017
3503,10.1021/ja400069s,105,6(a),381,Pb0.98Ba0.01Na0.01Se1,Pb0.98Ba0.01Na0.01Se1,428.5,165690,0.00051343,0.000051414,2.6356,0.071996,0.0000060354,0.0001948057
3503,10.1021/ja400069s,105,6(a),381,Pb0.98Ba0.01Na0.01Se1,Pb0.98Ba0.01Na0.01Se1,429,165350,0.00051442,0.000051546,2.6325,0.072968,0.0000060478,0.0001954112
3503,10.1021/ja400069s,105,6(a),381,Pb0.98Ba0.01Na0.01Se1,Pb0.98Ba0.01Na0.01Se1,429.5,165010,0.00051541,0.000051678,2.6294,0.073939,0.0000060602,0.0001960181
3503,10.1021/ja400069s,105,6(a),381,Pb0.98Ba0.01Na0.01Se1,Pb0.98Ba0.01Na0.01Se1,430,164670,0.0005164,0.00005181,2.6264,0.07491,0.0000060728,0.0001966189
3503,10.1021/ja400069s,105,6(a),381,Pb0.98Ba0.01Na0.01Se1,Pb0.98Ba0.01Na0.01Se1,430.5,164330,0.0005174,0.000051943,2.6233,0.075881,0.0000060853,0.0001972325
3503,10.1021/ja400069s,105,6(a),381,Pb0.98Ba0.01Na0.01Se1,Pb0.98Ba0.01Na0.01Se1,431,163990,0.00051839,0.000052076,2.6202,0.076853,0.0000060979,0.0001978437
3503,10.1021/ja400069s,105,6(a),381,Pb0.98Ba0.01Na0.01Se1,Pb0.98Ba0.01Na0.01Se1,431.5,163650,0.00051938,0.00005221,2.6171,0.077824,0.0000061106,0.0001984563
3503,10.1021/ja400069s,105,6(a),381,Pb0.98Ba0.01Na0.01Se1,Pb0.98Ba0.01Na0.01Se1,432,163310,0.00052037,0.000052343,2.6141,0.078795,0.0000061233,0.0001990628
3503,10.1021/ja400069s,105,6(a),381,Pb0.98Ba0.01Na0.01Se1,Pb0.98Ba0.01Na0.01Se1,432.5,162970,0.00052136,0.000052477,2.611,0.079766,0.0000061361,0.0001996783
3503,10.1021/ja400069s,105,6(a),381,Pb0.98Ba0.01Na0.01Se1,Pb0.98Ba0.01Na0.01Se1,433,162640,0.00052235,0.000052611,2.6079,0.080738,0.0000061485,0.0002002953
3503,10.1021/ja400069s,105,6(a),381,Pb0.98Ba0.01Na0.01Se1,Pb0.98Ba0.01Na0.01Se1,433.5,162300,0.00052335,0.000052746,2.6049,0.081709,0.0000061614,0.0002009098
3503,10.1021/ja400069s,105,6(a),381,Pb0.98Ba0.01Na0.01Se1,Pb0.98Ba0.01Na0.01Se1,434,161960,0.00052434,0.000052881,2.6018,0.08268,0.0000061744,0.0002015297
3503,10.1021/ja400069s,105,6(a),381,Pb0.98Ba0.01Na0.01Se1,Pb0.98Ba0.01Na0.01Se1,434.5,161630,0.00052533,0.000053016,2.5988,0.083651,0.000006187,0.0002021433
3503,10.1021/ja400069s,105,6(a),381,Pb0.98Ba0.01Na0.01Se1,Pb0.98Ba0.01Na0.01Se1,435,161300,0.00052632,0.000053151,2.5957,0.084623,0.0000061996,0.0002027661
3503,10.1021/ja400069s,105,6(a),381,Pb0.98Ba0.01Na0.01Se1,Pb0.98Ba0.01Na0.01Se1,435.5,160960,0.00052731,0.000053286,2.5927,0.085594,0.0000062127,0.0002033826
3503,10.1021/ja400069s,105,6(a),381,Pb0.98Ba0.01Na0.01Se1,Pb0.98Ba0.01Na0.01Se1,436,160630,0.00052831,0.000053422,2.5896,0.086565,0.0000062255,0.0002040122
3503,10.1021/ja400069s,105,6(a),381,Pb0.98Ba0.01Na0.01Se1,Pb0.98Ba0.01Na0.01Se1,436.5,160290,0.0005293,0.000053558,2.5866,0.087537,0.0000062387,0.0002046316
3503,10.1021/ja400069s,105,6(a),381,Pb0.98Ba0.01Na0.01Se1,Pb0.98Ba0.01Na0.01Se1,437,159960,0.00053029,0.000053694,2.5835,0.088508,0.0000062516,0.0002052603
3503,10.1021/ja400069s,105,6(a),381,Pb0.98Ba0.01Na0.01Se1,Pb0.98Ba0.01Na0.01Se1,437.5,159630,0.00053128,0.000053831,2.5805,0.089479,0.0000062645,0.0002058826
3503,10.1021/ja400069s,105,6(a),381,Pb0.98Ba0.01Na0.01Se1,Pb0.98Ba0.01Na0.01Se1,438,159300,0.00053227,0.000053968,2.5775,0.09045,0.0000062775,0.0002065063
3503,10.1021/ja400069s,105,6(a),381,Pb0.98Ba0.01Na0.01Se1,Pb0.98Ba0.01Na0.01Se1,438.5,158970,0.00053327,0.000054105,2.5744,0.091422,0.0000062905,0.0002071434
3503,10.1021/ja400069s,105,6(a),381,Pb0.98Ba0.01Na0.01Se1,Pb0.98Ba0.01Na0.01Se1,439,158640,0.00053426,0.000054242,2.5714,0.092393,0.0000063036,0.0002077701
3503,10.1021/ja400069s,105,6(a),381,Pb0.98Ba0.01Na0.01Se1,Pb0.98Ba0.01Na0.01Se1,439.5,158310,0.00053525,0.00005438,2.5684,0.093364,0.0000063167,0.0002083982
3503,10.1021/ja400069s,105,6(a),381,Pb0.98Ba0.01Na0.01Se1,Pb0.98Ba0.01Na0.01Se1,440,157980,0.00053624,0.000054518,2.5654,0.094335,0.0000063299,0.0002090278
3503,10.1021/ja400069s,105,6(a),381,Pb0.98Ba0.01Na0.01Se1,Pb0.98Ba0.01Na0.01Se1,440.5,157650,0.00053723,0.000054656,2.5624,0.095307,0.0000063432,0.0002096589
3503,10.1021/ja400069s,105,6(a),381,Pb0.98Ba0.01Na0.01Se1,Pb0.98Ba0.01Na0.01Se1,441,157320,0.00053822,0.000054794,2.5593,0.096278,0.0000063565,0.0002102997
3503,10.1021/ja400069s,105,6(a),381,Pb0.98Ba0.01Na0.01Se1,Pb0.98Ba0.01Na0.01Se1,441.5,157000,0.00053922,0.000054933,2.5563,0.097249,0.0000063694,0.0002109377
3503,10.1021/ja400069s,105,6(a),381,Pb0.98Ba0.01Na0.01Se1,Pb0.98Ba0.01Na0.01Se1,442,156670,0.00054021,0.000055072,2.5533,0.09822,0.0000063828,0.0002115733
3503,10.1021/ja400069s,105,6(a),381,Pb0.98Ba0.01Na0.01Se1,Pb0.98Ba0.01Na0.01Se1,442.5,156340,0.0005412,0.000055211,2.5503,0.099192,0.0000063963,0.0002122103
3503,10.1021/ja400069s,105,6(a),381,Pb0.98Ba0.01Na0.01Se1,Pb0.98Ba0.01Na0.01Se1,443,156020,0.00054219,0.00005535,2.5473,0.10016,0.0000064094,0.0002128489
3503,10.1021/ja400069s,105,6(a),381,Pb0.98Ba0.01Na0.01Se1,Pb0.98Ba0.01Na0.01Se1,443.5,155690,0.00054318,0.00005549,2.5443,0.10113,0.000006423,0.000213489
3503,10.1021/ja400069s,105,6(a),381,Pb0.98Ba0.01Na0.01Se1,Pb0.98Ba0.01Na0.01Se1,444,155370,0.00054418,0.00005563,2.5413,0.10211,0.0000064362,0.0002141345
3503,10.1021/ja400069s,105,6(a),381,Pb0.98Ba0.01Na0.01Se1,Pb0.98Ba0.01Na0.01Se1,444.5,155050,0.00054517,0.00005577,2.5383,0.10308,0.0000064495,0.0002147776
3503,10.1021/ja400069s,105,6(a),381,Pb0.98Ba0.01Na0.01Se1,Pb0.98Ba0.01Na0.01Se1,445,154720,0.00054616,0.000055911,2.5353,0.10405,0.0000064633,0.0002154222
3503,10.1021/ja400069s,105,6(a),381,Pb0.98Ba0.01Na0.01Se1,Pb0.98Ba0.01Na0.01Se1,445.5,154400,0.00054715,0.000056052,2.5323,0.10502,0.0000064767,0.0002160684
3503,10.1021/ja400069s,105,6(a),381,Pb0.98Ba0.01Na0.01Se1,Pb0.98Ba0.01Na0.01Se1,446,154080,0.00054814,0.000056193,2.5293,0.10599,0.0000064901,0.0002167161
3503,10.1021/ja400069s,105,6(a),381,Pb0.98Ba0.01Na0.01Se1,Pb0.98Ba0.01Na0.01Se1,446.5,153760,0.00054914,0.000056334,2.5264,0.10696,0.0000065036,0.0002173607
3503,10.1021/ja400069s,105,6(a),381,Pb0.98Ba0.01Na0.01Se1,Pb0.98Ba0.01Na0.01Se1,447,153430,0.00055013,0.000056475,2.5234,0.10793,0.0000065176,0.0002180114
3503,10.1021/ja400069s,105,6(a),381,Pb0.98Ba0.01Na0.01Se1,Pb0.98Ba0.01Na0.01Se1,447.5,153110,0.00055112,0.000056617,2.5204,0.1089,0.0000065313,0.0002186637
3503,10.1021/ja400069s,105,6(a),381,Pb0.98Ba0.01Na0.01Se1,Pb0.98Ba0.01Na0.01Se1,448,152790,0.00055211,0.000056759,2.5174,0.10988,0.0000065449,0.0002193175
3503,10.1021/ja400069s,105,6(a),381,Pb0.98Ba0.01Na0.01Se1,Pb0.98Ba0.01Na0.01Se1,448.5,152470,0.0005531,0.000056901,2.5144,0.11085,0.0000065587,0.000219973
3503,10.1021/ja400069s,105,6(a),381,Pb0.98Ba0.01Na0.01Se1,Pb0.98Ba0.01Na0.01Se1,449,152160,0.00055409,0.000057044,2.5115,0.11182,0.000006572,0.0002206211
3503,10.1021/ja400069s,105,6(a),381,Pb0.98Ba0.01Na0.01Se1,Pb0.98Ba0.01Na0.01Se1,449.5,151840,0.00055509,0.000057187,2.5085,0.11279,0.0000065859,0.0002212836
3503,10.1021/ja400069s,105,6(a),381,Pb0.98Ba0.01Na0.01Se1,Pb0.98Ba0.01Na0.01Se1,450,151520,0.00055608,0.00005733,2.5055,0.11376,0.0000065998,0.0002219437
3503,10.1021/ja400069s,105,6(a),381,Pb0.98Ba0.01Na0.01Se1,Pb0.98Ba0.01Na0.01Se1,450.5,151200,0.00055707,0.000057473,2.5026,0.11473,0.0000066138,0.0002225965
3503,10.1021/ja400069s,105,6(a),381,Pb0.98Ba0.01Na0.01Se1,Pb0.98Ba0.01Na0.01Se1,451,150890,0.00055806,0.000057616,2.4996,0.1157,0.0000066273,0.0002232597
3503,10.1021/ja400069s,105,6(a),381,Pb0.98Ba0.01Na0.01Se1,Pb0.98Ba0.01Na0.01Se1,451.5,150570,0.00055905,0.00005776,2.4967,0.11667,0.0000066414,0.0002239156
3503,10.1021/ja400069s,105,6(a),381,Pb0.98Ba0.01Na0.01Se1,Pb0.98Ba0.01Na0.01Se1,452,150250,0.00056005,0.000057904,2.4937,0.11765,0.0000066556,0.000224586
3503,10.1021/ja400069s,105,6(a),381,Pb0.98Ba0.01Na0.01Se1,Pb0.98Ba0.01Na0.01Se1,452.5,149940,0.00056104,0.000058049,2.4908,0.11862,0.0000066693,0.0002252449
3503,10.1021/ja400069s,105,6(a),381,Pb0.98Ba0.01Na0.01Se1,Pb0.98Ba0.01Na0.01Se1,453,149620,0.00056203,0.000058193,2.4878,0.11959,0.0000066836,0.0002259145
3503,10.1021/ja400069s,105,6(a),381,Pb0.98Ba0.01Na0.01Se1,Pb0.98Ba0.01Na0.01Se1,453.5,149310,0.00056302,0.000058338,2.4849,0.12056,0.0000066975,0.0002265765
3503,10.1021/ja400069s,105,6(a),381,Pb0.98Ba0.01Na0.01Se1,Pb0.98Ba0.01Na0.01Se1,454,149000,0.00056401,0.000058483,2.4819,0.12153,0.0000067114,0.0002272493
3503,10.1021/ja400069s,105,6(a),381,Pb0.98Ba0.01Na0.01Se1,Pb0.98Ba0.01Na0.01Se1,454.5,148680,0.000565,0.000058628,2.479,0.1225,0.0000067259,0.0002279145
3503,10.1021/ja400069s,105,6(a),381,Pb0.98Ba0.01Na0.01Se1,Pb0.98Ba0.01Na0.01Se1,455,148370,0.000566,0.000058774,2.4761,0.12347,0.0000067399,0.0002285853
3503,10.1021/ja400069s,105,6(a),381,Pb0.98Ba0.01Na0.01Se1,Pb0.98Ba0.01Na0.01Se1,455.5,148060,0.00056699,0.00005892,2.4731,0.12444,0.000006754,0.0002292629
3503,10.1021/ja400069s,105,6(a),381,Pb0.98Ba0.01Na0.01Se1,Pb0.98Ba0.01Na0.01Se1,456,147750,0.00056798,0.000059066,2.4702,0.12542,0.0000067682,0.0002299328
3503,10.1021/ja400069s,105,6(a),381,Pb0.98Ba0.01Na0.01Se1,Pb0.98Ba0.01Na0.01Se1,456.5,147440,0.00056897,0.000059212,2.4673,0.12639,0.0000067824,0.0002306043
3503,10.1021/ja400069s,105,6(a),381,Pb0.98Ba0.01Na0.01Se1,Pb0.98Ba0.01Na0.01Se1,457,147130,0.00056996,0.000059358,2.4644,0.12736,0.0000067967,0.0002312774
3503,10.1021/ja400069s,105,6(a),381,Pb0.98Ba0.01Na0.01Se1,Pb0.98Ba0.01Na0.01Se1,457.5,146820,0.00057096,0.000059505,2.4614,0.12833,0.0000068111,0.0002319655
3503,10.1021/ja400069s,105,6(a),381,Pb0.98Ba0.01Na0.01Se1,Pb0.98Ba0.01Na0.01Se1,458,146510,0.00057195,0.000059652,2.4585,0.1293,0.0000068255,0.0002326419
3503,10.1021/ja400069s,105,6(a),381,Pb0.98Ba0.01Na0.01Se1,Pb0.98Ba0.01Na0.01Se1,458.5,146200,0.00057294,0.0000598,2.4556,0.13027,0.0000068399,0.0002333198
3503,10.1021/ja400069s,105,6(a),381,Pb0.98Ba0.01Na0.01Se1,Pb0.98Ba0.01Na0.01Se1,459,145890,0.00057393,0.000059947,2.4527,0.13124,0.0000068545,0.0002339993
3503,10.1021/ja400069s,105,6(a),381,Pb0.98Ba0.01Na0.01Se1,Pb0.98Ba0.01Na0.01Se1,459.5,145590,0.00057492,0.000060095,2.4498,0.13221,0.0000068686,0.0002346804
3503,10.1021/ja400069s,105,6(a),381,Pb0.98Ba0.01Na0.01Se1,Pb0.98Ba0.01Na0.01Se1,460,145280,0.00057592,0.000060243,2.4469,0.13319,0.0000068833,0.0002353672
3503,10.1021/ja400069s,105,6(a),381,Pb0.98Ba0.01Na0.01Se1,Pb0.98Ba0.01Na0.01Se1,460.5,144970,0.00057691,0.000060391,2.444,0.13416,0.000006898,0.0002360516
3503,10.1021/ja400069s,105,6(a),381,Pb0.98Ba0.01Na0.01Se1,Pb0.98Ba0.01Na0.01Se1,461,144670,0.0005779,0.00006054,2.4411,0.13513,0.0000069123,0.0002367375
3503,10.1021/ja400069s,105,6(a),381,Pb0.98Ba0.01Na0.01Se1,Pb0.98Ba0.01Na0.01Se1,461.5,144360,0.00057889,0.000060688,2.4382,0.1361,0.0000069271,0.0002374251
3503,10.1021/ja400069s,105,6(a),381,Pb0.98Ba0.01Na0.01Se1,Pb0.98Ba0.01Na0.01Se1,462,144060,0.00057988,0.000060837,2.4353,0.13707,0.0000069416,0.0002381144
3503,10.1021/ja400069s,105,6(a),381,Pb0.98Ba0.01Na0.01Se1,Pb0.98Ba0.01Na0.01Se1,462.5,143760,0.00058087,0.000060987,2.4324,0.13804,0.000006956,0.0002388053
3503,10.1021/ja400069s,105,6(a),381,Pb0.98Ba0.01Na0.01Se1,Pb0.98Ba0.01Na0.01Se1,463,143450,0.00058187,0.000061136,2.4295,0.13901,0.0000069711,0.000239502
3503,10.1021/ja400069s,105,6(a),381,Pb0.98Ba0.01Na0.01Se1,Pb0.98Ba0.01Na0.01Se1,463.5,143150,0.00058286,0.000061286,2.4266,0.13998,0.0000069857,0.0002401962
3503,10.1021/ja400069s,105,6(a),381,Pb0.98Ba0.01Na0.01Se1,Pb0.98Ba0.01Na0.01Se1,464,142850,0.00058385,0.000061436,2.4237,0.14096,0.0000070004,0.000240892
3503,10.1021/ja400069s,105,6(a),381,Pb0.98Ba0.01Na0.01Se1,Pb0.98Ba0.01Na0.01Se1,464.5,142550,0.00058484,0.000061586,2.4209,0.14193,0.0000070151,0.0002415796
3503,10.1021/ja400069s,105,6(a),381,Pb0.98Ba0.01Na0.01Se1,Pb0.98Ba0.01Na0.01Se1,465,142240,0.00058583,0.000061737,2.418,0.1429,0.0000070304,0.0002422787
3503,10.1021/ja400069s,105,6(a),381,Pb0.98Ba0.01Na0.01Se1,Pb0.98Ba0.01Na0.01Se1,465.5,141940,0.00058683,0.000061887,2.4151,0.14387,0.0000070452,0.0002429837
3503,10.1021/ja400069s,105,6(a),381,Pb0.98Ba0.01Na0.01Se1,Pb0.98Ba0.01Na0.01Se1,466,141640,0.00058782,0.000062038,2.4123,0.14484,0.0000070602,0.0002436762
3503,10.1021/ja400069s,105,6(a),381,Pb0.98Ba0.01Na0.01Se1,Pb0.98Ba0.01Na0.01Se1,466.5,141340,0.00058881,0.000062189,2.4094,0.14581,0.0000070751,0.0002443803
3503,10.1021/ja400069s,105,6(a),381,Pb0.98Ba0.01Na0.01Se1,Pb0.98Ba0.01Na0.01Se1,467,141040,0.0005898,0.000062341,2.4065,0.14678,0.0000070902,0.0002450862
3503,10.1021/ja400069s,105,6(a),381,Pb0.98Ba0.01Na0.01Se1,Pb0.98Ba0.01Na0.01Se1,467.5,140750,0.00059079,0.000062493,2.4037,0.14775,0.0000071048,0.0002457836
3503,10.1021/ja400069s,105,6(a),381,Pb0.98Ba0.01Na0.01Se1,Pb0.98Ba0.01Na0.01Se1,468,140450,0.00059178,0.000062644,2.4008,0.14873,0.00000712,0.0002464928
3503,10.1021/ja400069s,105,6(a),381,Pb0.98Ba0.01Na0.01Se1,Pb0.98Ba0.01Na0.01Se1,468.5,140150,0.00059278,0.000062797,2.3979,0.1497,0.0000071352,0.000247208
3503,10.1021/ja400069s,105,6(a),381,Pb0.98Ba0.01Na0.01Se1,Pb0.98Ba0.01Na0.01Se1,469,139850,0.00059377,0.000062949,2.3951,0.15067,0.0000071505,0.0002479103
3503,10.1021/ja400069s,105,6(a),381,Pb0.98Ba0.01Na0.01Se1,Pb0.98Ba0.01Na0.01Se1,469.5,139560,0.00059476,0.000063102,2.3922,0.15164,0.0000071654,0.0002486247
3503,10.1021/ja400069s,105,6(a),381,Pb0.98Ba0.01Na0.01Se1,Pb0.98Ba0.01Na0.01Se1,470,139260,0.00059575,0.000063254,2.3894,0.15261,0.0000071808,0.0002493304
3503,10.1021/ja400069s,105,6(a),381,Pb0.98Ba0.01Na0.01Se1,Pb0.98Ba0.01Na0.01Se1,470.5,138970,0.00059674,0.000063408,2.3866,0.15358,0.0000071958,0.0002500377
3503,10.1021/ja400069s,105,6(a),381,Pb0.98Ba0.01Na0.01Se1,Pb0.98Ba0.01Na0.01Se1,471,138670,0.00059774,0.000063561,2.3837,0.15455,0.0000072114,0.0002507614
3503,10.1021/ja400069s,105,6(a),381,Pb0.98Ba0.01Na0.01Se1,Pb0.98Ba0.01Na0.01Se1,471.5,138380,0.00059873,0.000063714,2.3809,0.15552,0.0000072265,0.0002514721
3503,10.1021/ja400069s,105,6(a),381,Pb0.98Ba0.01Na0.01Se1,Pb0.98Ba0.01Na0.01Se1,472,138080,0.00059972,0.000063868,2.3781,0.1565,0.0000072422,0.0002521845
3503,10.1021/ja400069s,105,6(a),381,Pb0.98Ba0.01Na0.01Se1,Pb0.98Ba0.01Na0.01Se1,472.5,137790,0.00060071,0.000064022,2.3752,0.15747,0.0000072574,0.0002529092
3503,10.1021/ja400069s,105,6(a),381,Pb0.98Ba0.01Na0.01Se1,Pb0.98Ba0.01Na0.01Se1,473,137500,0.0006017,0.000064177,2.3724,0.15844,0.0000072727,0.000253625
3503,10.1021/ja400069s,105,6(a),381,Pb0.98Ba0.01Na0.01Se1,Pb0.98Ba0.01Na0.01Se1,473.5,137210,0.0006027,0.000064331,2.3696,0.15941,0.0000072881,0.0002543467
3503,10.1021/ja400069s,105,6(a),381,Pb0.98Ba0.01Na0.01Se1,Pb0.98Ba0.01Na0.01Se1,474,136920,0.00060369,0.000064486,2.3667,0.16038,0.0000073035,0.0002550767
3503,10.1021/ja400069s,105,6(a),381,Pb0.98Ba0.01Na0.01Se1,Pb0.98Ba0.01Na0.01Se1,474.5,136620,0.00060468,0.000064641,2.3639,0.16135,0.0000073196,0.0002557976
3503,10.1021/ja400069s,105,6(a),381,Pb0.98Ba0.01Na0.01Se1,Pb0.98Ba0.01Na0.01Se1,475,136330,0.00060567,0.000064796,2.3611,0.16232,0.0000073351,0.0002565203
3503,10.1021/ja400069s,105,6(a),381,Pb0.98Ba0.01Na0.01Se1,Pb0.98Ba0.01Na0.01Se1,475.5,136040,0.00060666,0.000064952,2.3583,0.1633,0.0000073508,0.0002572446
3503,10.1021/ja400069s,105,6(a),381,Pb0.98Ba0.01Na0.01Se1,Pb0.98Ba0.01Na0.01Se1,476,135760,0.00060765,0.000065107,2.3555,0.16427,0.0000073659,0.0002579707
3503,10.1021/ja400069s,105,6(a),381,Pb0.98Ba0.01Na0.01Se1,Pb0.98Ba0.01Na0.01Se1,476.5,135470,0.00060865,0.000065263,2.3527,0.16524,0.0000073817,0.0002587028
3503,10.1021/ja400069s,105,6(a),381,Pb0.98Ba0.01Na0.01Se1,Pb0.98Ba0.01Na0.01Se1,477,135180,0.00060964,0.000065419,2.3499,0.16621,0.0000073975,0.0002594323