sid,DOI,figureid,fignum,sampleid,samplename,composition,Temperature,Electrical conductivity,Power factor,Seebeck coefficient,Thermal conductivity,ZT,Electrical resistivity,Figure of merit Z
3503,10.1021/ja400069s,105,6(a),179,Pb0.95Sr0.04Na0.01Se1,Pb0.95Sr0.04Na0.01Se1,459.5,131160,0.00059841,0.000069994,2.0887,0.14807,0.0000076243,0.0002864988
3503,10.1021/ja400069s,105,6(a),179,Pb0.95Sr0.04Na0.01Se1,Pb0.95Sr0.04Na0.01Se1,460,130880,0.00059909,0.000070128,2.0864,0.14909,0.0000076406,0.0002871405
3503,10.1021/ja400069s,105,6(a),179,Pb0.95Sr0.04Na0.01Se1,Pb0.95Sr0.04Na0.01Se1,460.5,130600,0.00059977,0.000070262,2.0841,0.15012,0.000007657,0.0002877837
3503,10.1021/ja400069s,105,6(a),179,Pb0.95Sr0.04Na0.01Se1,Pb0.95Sr0.04Na0.01Se1,461,130330,0.00060045,0.000070395,2.0818,0.15114,0.0000076728,0.0002884283
3503,10.1021/ja400069s,105,6(a),179,Pb0.95Sr0.04Na0.01Se1,Pb0.95Sr0.04Na0.01Se1,461.5,130050,0.00060113,0.00007053,2.0794,0.15216,0.0000076894,0.0002890882
3503,10.1021/ja400069s,105,6(a),179,Pb0.95Sr0.04Na0.01Se1,Pb0.95Sr0.04Na0.01Se1,462,129780,0.00060181,0.000070664,2.0771,0.15318,0.0000077053,0.0002897357
3503,10.1021/ja400069s,105,6(a),179,Pb0.95Sr0.04Na0.01Se1,Pb0.95Sr0.04Na0.01Se1,462.5,129500,0.0006025,0.000070799,2.0748,0.1542,0.000007722,0.0002903894
3503,10.1021/ja400069s,105,6(a),179,Pb0.95Sr0.04Na0.01Se1,Pb0.95Sr0.04Na0.01Se1,463,129230,0.00060318,0.000070934,2.0725,0.15522,0.0000077381,0.0002910398
3503,10.1021/ja400069s,105,6(a),179,Pb0.95Sr0.04Na0.01Se1,Pb0.95Sr0.04Na0.01Se1,463.5,128960,0.00060386,0.000071069,2.0702,0.15624,0.0000077543,0.0002916916
3503,10.1021/ja400069s,105,6(a),179,Pb0.95Sr0.04Na0.01Se1,Pb0.95Sr0.04Na0.01Se1,464,128680,0.00060454,0.000071204,2.0679,0.15726,0.0000077712,0.0002923449
3503,10.1021/ja400069s,105,6(a),179,Pb0.95Sr0.04Na0.01Se1,Pb0.95Sr0.04Na0.01Se1,464.5,128410,0.00060522,0.00007134,2.0656,0.15828,0.0000077876,0.0002929996
3503,10.1021/ja400069s,105,6(a),179,Pb0.95Sr0.04Na0.01Se1,Pb0.95Sr0.04Na0.01Se1,465,128140,0.00060591,0.000071475,2.0633,0.15931,0.000007804,0.0002936606
3503,10.1021/ja400069s,105,6(a),179,Pb0.95Sr0.04Na0.01Se1,Pb0.95Sr0.04Na0.01Se1,465.5,127870,0.00060659,0.000071611,2.061,0.16033,0.0000078204,0.0002943183
3503,10.1021/ja400069s,105,6(a),179,Pb0.95Sr0.04Na0.01Se1,Pb0.95Sr0.04Na0.01Se1,466,127600,0.00060727,0.000071748,2.0587,0.16135,0.000007837,0.0002949774
3503,10.1021/ja400069s,105,6(a),179,Pb0.95Sr0.04Na0.01Se1,Pb0.95Sr0.04Na0.01Se1,466.5,127330,0.00060795,0.000071884,2.0565,0.16237,0.0000078536,0.0002956236
3503,10.1021/ja400069s,105,6(a),179,Pb0.95Sr0.04Na0.01Se1,Pb0.95Sr0.04Na0.01Se1,467,127060,0.00060863,0.000072021,2.0542,0.16339,0.0000078703,0.0002962857
3503,10.1021/ja400069s,105,6(a),179,Pb0.95Sr0.04Na0.01Se1,Pb0.95Sr0.04Na0.01Se1,467.5,126790,0.00060931,0.000072158,2.0519,0.16441,0.0000078871,0.0002969492
3503,10.1021/ja400069s,105,6(a),179,Pb0.95Sr0.04Na0.01Se1,Pb0.95Sr0.04Na0.01Se1,468,126520,0.00061,0.000072295,2.0496,0.16543,0.0000079039,0.000297619
3503,10.1021/ja400069s,105,6(a),179,Pb0.95Sr0.04Na0.01Se1,Pb0.95Sr0.04Na0.01Se1,468.5,126250,0.00061068,0.000072432,2.0473,0.16645,0.0000079208,0.0002982855
3503,10.1021/ja400069s,105,6(a),179,Pb0.95Sr0.04Na0.01Se1,Pb0.95Sr0.04Na0.01Se1,469,125980,0.00061136,0.00007257,2.0451,0.16748,0.0000079378,0.0002989389
3503,10.1021/ja400069s,105,6(a),179,Pb0.95Sr0.04Na0.01Se1,Pb0.95Sr0.04Na0.01Se1,469.5,125710,0.00061204,0.000072708,2.0428,0.1685,0.0000079548,0.0002996084
3503,10.1021/ja400069s,105,6(a),179,Pb0.95Sr0.04Na0.01Se1,Pb0.95Sr0.04Na0.01Se1,470,125450,0.00061272,0.000072846,2.0405,0.16952,0.0000079713,0.0003002793
3503,10.1021/ja400069s,105,6(a),179,Pb0.95Sr0.04Na0.01Se1,Pb0.95Sr0.04Na0.01Se1,470.5,125180,0.0006134,0.000072984,2.0382,0.17054,0.0000079885,0.0003009518
3503,10.1021/ja400069s,105,6(a),179,Pb0.95Sr0.04Na0.01Se1,Pb0.95Sr0.04Na0.01Se1,471,124910,0.00061409,0.000073122,2.036,0.17156,0.0000080058,0.0003016159
3503,10.1021/ja400069s,105,6(a),179,Pb0.95Sr0.04Na0.01Se1,Pb0.95Sr0.04Na0.01Se1,471.5,124650,0.00061477,0.000073261,2.0337,0.17258,0.0000080225,0.0003022914
3503,10.1021/ja400069s,105,6(a),179,Pb0.95Sr0.04Na0.01Se1,Pb0.95Sr0.04Na0.01Se1,472,124380,0.00061545,0.0000734,2.0315,0.1736,0.0000080399,0.0003029535
3503,10.1021/ja400069s,105,6(a),179,Pb0.95Sr0.04Na0.01Se1,Pb0.95Sr0.04Na0.01Se1,472.5,124120,0.00061613,0.000073539,2.0292,0.17462,0.0000080567,0.000303632
3503,10.1021/ja400069s,105,6(a),179,Pb0.95Sr0.04Na0.01Se1,Pb0.95Sr0.04Na0.01Se1,473,123850,0.00061681,0.000073679,2.0269,0.17564,0.0000080743,0.000304312
3503,10.1021/ja400069s,105,6(a),179,Pb0.95Sr0.04Na0.01Se1,Pb0.95Sr0.04Na0.01Se1,473.5,123590,0.0006175,0.000073818,2.0247,0.17667,0.0000080913,0.0003049835
3503,10.1021/ja400069s,105,6(a),179,Pb0.95Sr0.04Na0.01Se1,Pb0.95Sr0.04Na0.01Se1,474,123330,0.00061818,0.000073958,2.0224,0.17769,0.0000081083,0.0003056665
3503,10.1021/ja400069s,105,6(a),179,Pb0.95Sr0.04Na0.01Se1,Pb0.95Sr0.04Na0.01Se1,474.5,123060,0.00061886,0.000074098,2.0202,0.17871,0.0000081261,0.000306336
3503,10.1021/ja400069s,105,6(a),179,Pb0.95Sr0.04Na0.01Se1,Pb0.95Sr0.04Na0.01Se1,475,122800,0.00061954,0.000074238,2.0179,0.17973,0.0000081433,0.0003070222
3503,10.1021/ja400069s,105,6(a),179,Pb0.95Sr0.04Na0.01Se1,Pb0.95Sr0.04Na0.01Se1,475.5,122540,0.00062022,0.000074379,2.0157,0.18075,0.0000081606,0.0003076946
3503,10.1021/ja400069s,105,6(a),179,Pb0.95Sr0.04Na0.01Se1,Pb0.95Sr0.04Na0.01Se1,476,122280,0.0006209,0.00007452,2.0135,0.18177,0.000008178,0.0003083685
3503,10.1021/ja400069s,105,6(a),179,Pb0.95Sr0.04Na0.01Se1,Pb0.95Sr0.04Na0.01Se1,476.5,122020,0.00062159,0.000074661,2.0112,0.18279,0.0000081954,0.0003090642
3503,10.1021/ja400069s,105,6(a),179,Pb0.95Sr0.04Na0.01Se1,Pb0.95Sr0.04Na0.01Se1,477,121760,0.00062227,0.000074802,2.009,0.18381,0.0000082129,0.0003097412
3503,10.1021/ja400069s,105,6(a),179,Pb0.95Sr0.04Na0.01Se1,Pb0.95Sr0.04Na0.01Se1,477.5,121500,0.00062295,0.000074943,2.0067,0.18484,0.0000082305,0.000310435
3503,10.1021/ja400069s,105,6(a),179,Pb0.95Sr0.04Na0.01Se1,Pb0.95Sr0.04Na0.01Se1,478,121240,0.00062363,0.000075085,2.0045,0.18586,0.0000082481,0.000311115
3503,10.1021/ja400069s,105,6(a),179,Pb0.95Sr0.04Na0.01Se1,Pb0.95Sr0.04Na0.01Se1,478.5,120980,0.00062431,0.000075227,2.0023,0.18688,0.0000082658,0.0003117964
3503,10.1021/ja400069s,105,6(a),179,Pb0.95Sr0.04Na0.01Se1,Pb0.95Sr0.04Na0.01Se1,479,120720,0.00062499,0.000075369,2.0001,0.1879,0.0000082836,0.0003124794
3503,10.1021/ja400069s,105,6(a),179,Pb0.95Sr0.04Na0.01Se1,Pb0.95Sr0.04Na0.01Se1,479.5,120460,0.00062568,0.000075511,1.9978,0.18892,0.0000083015,0.0003131845
3503,10.1021/ja400069s,105,6(a),179,Pb0.95Sr0.04Na0.01Se1,Pb0.95Sr0.04Na0.01Se1,480,120200,0.00062636,0.000075654,1.9956,0.18994,0.0000083195,0.0003138705
3503,10.1021/ja400069s,105,6(a),179,Pb0.95Sr0.04Na0.01Se1,Pb0.95Sr0.04Na0.01Se1,480.5,119940,0.00062704,0.000075796,1.9934,0.19096,0.0000083375,0.000314558
3503,10.1021/ja400069s,105,6(a),179,Pb0.95Sr0.04Na0.01Se1,Pb0.95Sr0.04Na0.01Se1,481,119690,0.00062772,0.000075939,1.9912,0.19198,0.0000083549,0.0003152471
3503,10.1021/ja400069s,105,6(a),179,Pb0.95Sr0.04Na0.01Se1,Pb0.95Sr0.04Na0.01Se1,481.5,119430,0.0006284,0.000076082,1.989,0.193,0.0000083731,0.0003159377
3503,10.1021/ja400069s,105,6(a),179,Pb0.95Sr0.04Na0.01Se1,Pb0.95Sr0.04Na0.01Se1,482,119180,0.00062909,0.000076226,1.9867,0.19403,0.0000083907,0.0003166507
3503,10.1021/ja400069s,105,6(a),179,Pb0.95Sr0.04Na0.01Se1,Pb0.95Sr0.04Na0.01Se1,482.5,118920,0.00062977,0.00007637,1.9845,0.19505,0.000008409,0.0003173444
3503,10.1021/ja400069s,105,6(a),179,Pb0.95Sr0.04Na0.01Se1,Pb0.95Sr0.04Na0.01Se1,483,118660,0.00063045,0.000076513,1.9823,0.19607,0.0000084274,0.0003180397
3503,10.1021/ja400069s,105,6(a),179,Pb0.95Sr0.04Na0.01Se1,Pb0.95Sr0.04Na0.01Se1,483.5,118410,0.00063113,0.000076658,1.9801,0.19709,0.0000084452,0.0003187364
3503,10.1021/ja400069s,105,6(a),179,Pb0.95Sr0.04Na0.01Se1,Pb0.95Sr0.04Na0.01Se1,484,118160,0.00063181,0.000076802,1.9779,0.19811,0.0000084631,0.0003194348
3503,10.1021/ja400069s,105,6(a),179,Pb0.95Sr0.04Na0.01Se1,Pb0.95Sr0.04Na0.01Se1,484.5,117900,0.00063249,0.000076946,1.9757,0.19913,0.0000084818,0.0003201346
3503,10.1021/ja400069s,105,6(a),179,Pb0.95Sr0.04Na0.01Se1,Pb0.95Sr0.04Na0.01Se1,485,117650,0.00063318,0.000077091,1.9735,0.20015,0.0000084998,0.0003208411
3503,10.1021/ja400069s,105,6(a),179,Pb0.95Sr0.04Na0.01Se1,Pb0.95Sr0.04Na0.01Se1,485.5,117400,0.00063386,0.000077236,1.9713,0.20117,0.0000085179,0.0003215442
3503,10.1021/ja400069s,105,6(a),179,Pb0.95Sr0.04Na0.01Se1,Pb0.95Sr0.04Na0.01Se1,486,117140,0.00063454,0.000077381,1.9691,0.20219,0.0000085368,0.0003222487
3503,10.1021/ja400069s,105,6(a),179,Pb0.95Sr0.04Na0.01Se1,Pb0.95Sr0.04Na0.01Se1,486.5,116890,0.00063522,0.000077527,1.9669,0.20322,0.0000085551,0.0003229549
3503,10.1021/ja400069s,105,6(a),179,Pb0.95Sr0.04Na0.01Se1,Pb0.95Sr0.04Na0.01Se1,487,116640,0.0006359,0.000077673,1.9647,0.20424,0.0000085734,0.0003236626
3503,10.1021/ja400069s,105,6(a),179,Pb0.95Sr0.04Na0.01Se1,Pb0.95Sr0.04Na0.01Se1,487.5,116390,0.00063658,0.000077818,1.9626,0.20526,0.0000085918,0.0003243554
3503,10.1021/ja400069s,105,6(a),179,Pb0.95Sr0.04Na0.01Se1,Pb0.95Sr0.04Na0.01Se1,488,116140,0.00063727,0.000077965,1.9604,0.20628,0.0000086103,0.0003250714
3503,10.1021/ja400069s,105,6(a),179,Pb0.95Sr0.04Na0.01Se1,Pb0.95Sr0.04Na0.01Se1,488.5,115890,0.00063795,0.000078111,1.9582,0.2073,0.0000086289,0.0003257839
3503,10.1021/ja400069s,105,6(a),179,Pb0.95Sr0.04Na0.01Se1,Pb0.95Sr0.04Na0.01Se1,489,115640,0.00063863,0.000078257,1.956,0.20832,0.0000086475,0.000326498
3503,10.1021/ja400069s,105,6(a),179,Pb0.95Sr0.04Na0.01Se1,Pb0.95Sr0.04Na0.01Se1,489.5,115390,0.00063931,0.000078404,1.9538,0.20934,0.0000086663,0.0003272136
3503,10.1021/ja400069s,105,6(a),179,Pb0.95Sr0.04Na0.01Se1,Pb0.95Sr0.04Na0.01Se1,490,115140,0.00063999,0.000078551,1.9517,0.21036,0.0000086851,0.0003279141
3503,10.1021/ja400069s,105,6(a),179,Pb0.95Sr0.04Na0.01Se1,Pb0.95Sr0.04Na0.01Se1,490.5,114890,0.00064068,0.000078699,1.9495,0.21139,0.000008704,0.0003286381
3503,10.1021/ja400069s,105,6(a),179,Pb0.95Sr0.04Na0.01Se1,Pb0.95Sr0.04Na0.01Se1,491,114650,0.00064136,0.000078846,1.9473,0.21241,0.0000087222,0.0003293586
3503,10.1021/ja400069s,105,6(a),179,Pb0.95Sr0.04Na0.01Se1,Pb0.95Sr0.04Na0.01Se1,491.5,114400,0.00064204,0.000078994,1.9451,0.21343,0.0000087413,0.0003300807
3503,10.1021/ja400069s,105,6(a),179,Pb0.95Sr0.04Na0.01Se1,Pb0.95Sr0.04Na0.01Se1,492,114150,0.00064272,0.000079142,1.943,0.21445,0.0000087604,0.0003307874
3503,10.1021/ja400069s,105,6(a),179,Pb0.95Sr0.04Na0.01Se1,Pb0.95Sr0.04Na0.01Se1,492.5,113910,0.0006434,0.00007929,1.9408,0.21547,0.0000087789,0.0003315128
3503,10.1021/ja400069s,105,6(a),179,Pb0.95Sr0.04Na0.01Se1,Pb0.95Sr0.04Na0.01Se1,493,113660,0.00064408,0.000079438,1.9387,0.21649,0.0000087982,0.0003322226
3503,10.1021/ja400069s,105,6(a),179,Pb0.95Sr0.04Na0.01Se1,Pb0.95Sr0.04Na0.01Se1,493.5,113420,0.00064477,0.000079587,1.9365,0.21751,0.0000088168,0.0003329564
3503,10.1021/ja400069s,105,6(a),179,Pb0.95Sr0.04Na0.01Se1,Pb0.95Sr0.04Na0.01Se1,494,113170,0.00064545,0.000079735,1.9343,0.21853,0.0000088363,0.0003336866
3503,10.1021/ja400069s,105,6(a),179,Pb0.95Sr0.04Na0.01Se1,Pb0.95Sr0.04Na0.01Se1,494.5,112930,0.00064613,0.000079884,1.9322,0.21955,0.000008855,0.0003344012
3503,10.1021/ja400069s,105,6(a),179,Pb0.95Sr0.04Na0.01Se1,Pb0.95Sr0.04Na0.01Se1,495,112680,0.00064681,0.000080034,1.93,0.22058,0.0000088747,0.0003351347
3503,10.1021/ja400069s,105,6(a),179,Pb0.95Sr0.04Na0.01Se1,Pb0.95Sr0.04Na0.01Se1,495.5,112440,0.00064749,0.000080183,1.9279,0.2216,0.0000088936,0.0003358525
3503,10.1021/ja400069s,105,6(a),179,Pb0.95Sr0.04Na0.01Se1,Pb0.95Sr0.04Na0.01Se1,496,112190,0.00064817,0.000080333,1.9257,0.22262,0.0000089135,0.0003365893
3503,10.1021/ja400069s,105,6(a),179,Pb0.95Sr0.04Na0.01Se1,Pb0.95Sr0.04Na0.01Se1,496.5,111950,0.00064886,0.000080483,1.9236,0.22364,0.0000089326,0.0003373155
3503,10.1021/ja400069s,105,6(a),179,Pb0.95Sr0.04Na0.01Se1,Pb0.95Sr0.04Na0.01Se1,497,111710,0.00064954,0.000080633,1.9214,0.22466,0.0000089518,0.0003380556
3503,10.1021/ja400069s,105,6(a),179,Pb0.95Sr0.04Na0.01Se1,Pb0.95Sr0.04Na0.01Se1,497.5,111470,0.00065022,0.000080783,1.9193,0.22568,0.000008971,0.0003387798
3503,10.1021/ja400069s,105,6(a),179,Pb0.95Sr0.04Na0.01Se1,Pb0.95Sr0.04Na0.01Se1,498,111230,0.0006509,0.000080934,1.9172,0.2267,0.0000089904,0.0003395055
3503,10.1021/ja400069s,105,6(a),179,Pb0.95Sr0.04Na0.01Se1,Pb0.95Sr0.04Na0.01Se1,498.5,110990,0.00065158,0.000081085,1.915,0.22772,0.0000090098,0.0003402507
3503,10.1021/ja400069s,105,6(a),179,Pb0.95Sr0.04Na0.01Se1,Pb0.95Sr0.04Na0.01Se1,499,110740,0.00065227,0.000081236,1.9129,0.22875,0.0000090302,0.0003409849
3503,10.1021/ja400069s,105,6(a),179,Pb0.95Sr0.04Na0.01Se1,Pb0.95Sr0.04Na0.01Se1,499.5,110500,0.00065295,0.000081387,1.9108,0.22977,0.0000090498,0.0003417155
3503,10.1021/ja400069s,105,6(a),179,Pb0.95Sr0.04Na0.01Se1,Pb0.95Sr0.04Na0.01Se1,500,110270,0.00065363,0.000081538,1.9086,0.23079,0.0000090686,0.0003424657
3503,10.1021/ja400069s,105,6(a),179,Pb0.95Sr0.04Na0.01Se1,Pb0.95Sr0.04Na0.01Se1,500.5,110030,0.00065431,0.00008169,1.9065,0.23181,0.0000090884,0.0003431996
3503,10.1021/ja400069s,105,6(a),179,Pb0.95Sr0.04Na0.01Se1,Pb0.95Sr0.04Na0.01Se1,501,109790,0.00065499,0.000081842,1.9044,0.23283,0.0000091083,0.0003439351
3503,10.1021/ja400069s,105,6(a),179,Pb0.95Sr0.04Na0.01Se1,Pb0.95Sr0.04Na0.01Se1,501.5,109550,0.00065567,0.000081994,1.9023,0.23385,0.0000091283,0.0003446722
3503,10.1021/ja400069s,105,6(a),179,Pb0.95Sr0.04Na0.01Se1,Pb0.95Sr0.04Na0.01Se1,502,109310,0.00065636,0.000082146,1.9001,0.23487,0.0000091483,0.0003454345
3503,10.1021/ja400069s,105,6(a),179,Pb0.95Sr0.04Na0.01Se1,Pb0.95Sr0.04Na0.01Se1,502.5,109070,0.00065704,0.000082299,1.898,0.23589,0.0000091684,0.0003461749
3503,10.1021/ja400069s,105,6(a),179,Pb0.95Sr0.04Na0.01Se1,Pb0.95Sr0.04Na0.01Se1,503,108840,0.00065772,0.000082452,1.8959,0.23691,0.0000091878,0.000346917
3503,10.1021/ja400069s,105,6(a),179,Pb0.95Sr0.04Na0.01Se1,Pb0.95Sr0.04Na0.01Se1,503.5,108600,0.0006584,0.000082605,1.8938,0.23794,0.0000092081,0.0003476608
3503,10.1021/ja400069s,105,6(a),179,Pb0.95Sr0.04Na0.01Se1,Pb0.95Sr0.04Na0.01Se1,504,108360,0.00065908,0.000082758,1.8917,0.23896,0.0000092285,0.0003484062
3503,10.1021/ja400069s,105,6(a),179,Pb0.95Sr0.04Na0.01Se1,Pb0.95Sr0.04Na0.01Se1,504.5,108130,0.00065976,0.000082911,1.8896,0.23998,0.0000092481,0.0003491533
3503,10.1021/ja400069s,105,6(a),179,Pb0.95Sr0.04Na0.01Se1,Pb0.95Sr0.04Na0.01Se1,505,107890,0.00066045,0.000083065,1.8875,0.241,0.0000092687,0.0003499073
3503,10.1021/ja400069s,105,6(a),179,Pb0.95Sr0.04Na0.01Se1,Pb0.95Sr0.04Na0.01Se1,505.5,107660,0.00066113,0.000083219,1.8854,0.24202,0.0000092885,0.0003506577
3503,10.1021/ja400069s,105,6(a),179,Pb0.95Sr0.04Na0.01Se1,Pb0.95Sr0.04Na0.01Se1,506,107420,0.00066181,0.000083373,1.8833,0.24304,0.0000093093,0.0003514098
3503,10.1021/ja400069s,105,6(a),179,Pb0.95Sr0.04Na0.01Se1,Pb0.95Sr0.04Na0.01Se1,506.5,107190,0.00066249,0.000083527,1.8812,0.24406,0.0000093292,0.0003521635
3503,10.1021/ja400069s,105,6(a),179,Pb0.95Sr0.04Na0.01Se1,Pb0.95Sr0.04Na0.01Se1,507,106960,0.00066317,0.000083682,1.8791,0.24508,0.0000093493,0.000352919
3503,10.1021/ja400069s,105,6(a),179,Pb0.95Sr0.04Na0.01Se1,Pb0.95Sr0.04Na0.01Se1,507.5,106720,0.00066386,0.000083837,1.877,0.24611,0.0000093703,0.0003536814
3503,10.1021/ja400069s,105,6(a),179,Pb0.95Sr0.04Na0.01Se1,Pb0.95Sr0.04Na0.01Se1,508,106490,0.00066454,0.000083992,1.8749,0.24713,0.0000093906,0.0003544402
3503,10.1021/ja400069s,105,6(a),179,Pb0.95Sr0.04Na0.01Se1,Pb0.95Sr0.04Na0.01Se1,508.5,106260,0.00066522,0.000084147,1.8728,0.24815,0.0000094109,0.0003552008
3503,10.1021/ja400069s,105,6(a),179,Pb0.95Sr0.04Na0.01Se1,Pb0.95Sr0.04Na0.01Se1,509,106030,0.0006659,0.000084302,1.8707,0.24917,0.0000094313,0.000355963
3503,10.1021/ja400069s,105,6(a),179,Pb0.95Sr0.04Na0.01Se1,Pb0.95Sr0.04Na0.01Se1,509.5,105800,0.00066658,0.000084458,1.8686,0.25019,0.0000094518,0.000356727
3503,10.1021/ja400069s,105,6(a),179,Pb0.95Sr0.04Na0.01Se1,Pb0.95Sr0.04Na0.01Se1,510,105570,0.00066726,0.000084614,1.8665,0.25121,0.0000094724,0.0003574926
3503,10.1021/ja400069s,105,6(a),179,Pb0.95Sr0.04Na0.01Se1,Pb0.95Sr0.04Na0.01Se1,510.5,105340,0.00066795,0.00008477,1.8645,0.25223,0.0000094931,0.0003582462
3503,10.1021/ja400069s,105,6(a),179,Pb0.95Sr0.04Na0.01Se1,Pb0.95Sr0.04Na0.01Se1,511,105110,0.00066863,0.000084926,1.8624,0.25325,0.0000095138,0.0003590152
3503,10.1021/ja400069s,105,6(a),179,Pb0.95Sr0.04Na0.01Se1,Pb0.95Sr0.04Na0.01Se1,511.5,104880,0.00066931,0.000085083,1.8603,0.25427,0.0000095347,0.0003597861
3503,10.1021/ja400069s,105,6(a),179,Pb0.95Sr0.04Na0.01Se1,Pb0.95Sr0.04Na0.01Se1,512,104650,0.00066999,0.000085239,1.8582,0.2553,0.0000095557,0.0003605586
3503,10.1021/ja400069s,105,6(a),179,Pb0.95Sr0.04Na0.01Se1,Pb0.95Sr0.04Na0.01Se1,512.5,104420,0.00067067,0.000085396,1.8562,0.25632,0.0000095767,0.0003613134
3503,10.1021/ja400069s,105,6(a),179,Pb0.95Sr0.04Na0.01Se1,Pb0.95Sr0.04Na0.01Se1,513,104190,0.00067135,0.000085553,1.8541,0.25734,0.0000095979,0.0003620894
3503,10.1021/ja400069s,105,6(a),179,Pb0.95Sr0.04Na0.01Se1,Pb0.95Sr0.04Na0.01Se1,513.5,103960,0.00067204,0.000085711,1.852,0.25836,0.0000096191,0.0003628726
3503,10.1021/ja400069s,105,6(a),179,Pb0.95Sr0.04Na0.01Se1,Pb0.95Sr0.04Na0.01Se1,514,103740,0.00067272,0.000085868,1.85,0.25938,0.0000096395,0.0003636324
3503,10.1021/ja400069s,105,6(a),179,Pb0.95Sr0.04Na0.01Se1,Pb0.95Sr0.04Na0.01Se1,514.5,103510,0.0006734,0.000086026,1.8479,0.2604,0.0000096609,0.0003644137
3503,10.1021/ja400069s,105,6(a),179,Pb0.95Sr0.04Na0.01Se1,Pb0.95Sr0.04Na0.01Se1,515,103280,0.00067408,0.000086184,1.8458,0.26142,0.0000096824,0.0003651967
3503,10.1021/ja400069s,105,6(a),179,Pb0.95Sr0.04Na0.01Se1,Pb0.95Sr0.04Na0.01Se1,515.5,103060,0.00067476,0.000086342,1.8438,0.26244,0.0000097031,0.0003659616
3503,10.1021/ja400069s,105,6(a),179,Pb0.95Sr0.04Na0.01Se1,Pb0.95Sr0.04Na0.01Se1,516,102830,0.00067545,0.000086501,1.8417,0.26347,0.0000097248,0.0003667535
3503,10.1021/ja400069s,105,6(a),179,Pb0.95Sr0.04Na0.01Se1,Pb0.95Sr0.04Na0.01Se1,516.5,102610,0.00067613,0.00008666,1.8397,0.26449,0.0000097456,0.0003675219
3503,10.1021/ja400069s,105,6(a),179,Pb0.95Sr0.04Na0.01Se1,Pb0.95Sr0.04Na0.01Se1,517,102380,0.00067681,0.000086819,1.8376,0.26551,0.0000097675,0.0003683119
3503,10.1021/ja400069s,105,6(a),179,Pb0.95Sr0.04Na0.01Se1,Pb0.95Sr0.04Na0.01Se1,517.5,102160,0.00067749,0.000086978,1.8356,0.26653,0.0000097886,0.0003690837
3503,10.1021/ja400069s,105,6(a),179,Pb0.95Sr0.04Na0.01Se1,Pb0.95Sr0.04Na0.01Se1,518,101930,0.00067817,0.000087137,1.8335,0.26755,0.0000098107,0.0003698773
3503,10.1021/ja400069s,105,6(a),179,Pb0.95Sr0.04Na0.01Se1,Pb0.95Sr0.04Na0.01Se1,518.5,101710,0.00067885,0.000087297,1.8315,0.26857,0.0000098319,0.0003706525
3503,10.1021/ja400069s,105,6(a),179,Pb0.95Sr0.04Na0.01Se1,Pb0.95Sr0.04Na0.01Se1,519,101490,0.00067954,0.000087456,1.8294,0.26959,0.0000098532,0.0003714551
3503,10.1021/ja400069s,105,6(a),179,Pb0.95Sr0.04Na0.01Se1,Pb0.95Sr0.04Na0.01Se1,519.5,101260,0.00068022,0.000087616,1.8274,0.27061,0.0000098756,0.0003722338
3503,10.1021/ja400069s,105,6(a),179,Pb0.95Sr0.04Na0.01Se1,Pb0.95Sr0.04Na0.01Se1,520,101040,0.0006809,0.000087776,1.8254,0.27163,0.0000098971,0.0003730141
3503,10.1021/ja400069s,105,6(a),179,Pb0.95Sr0.04Na0.01Se1,Pb0.95Sr0.04Na0.01Se1,520.5,100820,0.00068158,0.000087937,1.8233,0.27266,0.0000099187,0.0003738167
3503,10.1021/ja400069s,105,6(a),179,Pb0.95Sr0.04Na0.01Se1,Pb0.95Sr0.04Na0.01Se1,521,100600,0.00068226,0.000088098,1.8213,0.27368,0.0000099404,0.0003746006
3503,10.1021/ja400069s,105,6(a),179,Pb0.95Sr0.04Na0.01Se1,Pb0.95Sr0.04Na0.01Se1,521.5,100380,0.00068294,0.000088258,1.8193,0.2747,0.0000099621,0.0003753861
3503,10.1021/ja400069s,105,6(a),179,Pb0.95Sr0.04Na0.01Se1,Pb0.95Sr0.04Na0.01Se1,522,100160,0.00068363,0.000088419,1.8172,0.27572,0.000009984,0.0003761996
3503,10.1021/ja400069s,105,6(a),179,Pb0.95Sr0.04Na0.01Se1,Pb0.95Sr0.04Na0.01Se1,522.5,99937,0.00068431,0.000088581,1.8152,0.27674,0.0000100063,0.0003769888