sid,DOI,figureid,fignum,sampleid,samplename,composition,Temperature,Electrical conductivity,Power factor,Seebeck coefficient,Thermal conductivity,ZT,Electrical resistivity,Figure of merit Z
3503,10.1021/ja400069s,105,6(a),381,Pb0.98Ba0.01Na0.01Se1,Pb0.98Ba0.01Na0.01Se1,799.5,30688,0.0012494,0.00020141,1.1763,0.79267,0.000032586,0.001062144
3503,10.1021/ja400069s,105,6(a),381,Pb0.98Ba0.01Na0.01Se1,Pb0.98Ba0.01Na0.01Se1,800,30628,0.0012504,0.00020165,1.1754,0.79364,0.0000326499,0.0010638081
3503,10.1021/ja400069s,105,6(a),381,Pb0.98Ba0.01Na0.01Se1,Pb0.98Ba0.01Na0.01Se1,800.5,30568,0.0012514,0.0002019,1.1745,0.79462,0.0000327139,0.0010654747
3503,10.1021/ja400069s,105,6(a),381,Pb0.98Ba0.01Na0.01Se1,Pb0.98Ba0.01Na0.01Se1,801,30509,0.0012524,0.00020215,1.1736,0.79559,0.0000327772,0.0010671438
3503,10.1021/ja400069s,105,6(a),381,Pb0.98Ba0.01Na0.01Se1,Pb0.98Ba0.01Na0.01Se1,801.5,30450,0.0012534,0.00020239,1.1727,0.79656,0.0000328407,0.0010688156
3503,10.1021/ja400069s,105,6(a),381,Pb0.98Ba0.01Na0.01Se1,Pb0.98Ba0.01Na0.01Se1,802,30391,0.0012543,0.00020264,1.1719,0.79753,0.0000329045,0.0010703132
3503,10.1021/ja400069s,105,6(a),381,Pb0.98Ba0.01Na0.01Se1,Pb0.98Ba0.01Na0.01Se1,802.5,30333,0.0012553,0.00020288,1.171,0.7985,0.0000329674,0.0010719898
3503,10.1021/ja400069s,105,6(a),381,Pb0.98Ba0.01Na0.01Se1,Pb0.98Ba0.01Na0.01Se1,803,30276,0.0012563,0.00020313,1.1701,0.79947,0.0000330295,0.0010736689
3503,10.1021/ja400069s,105,6(a),381,Pb0.98Ba0.01Na0.01Se1,Pb0.98Ba0.01Na0.01Se1,803.5,30218,0.0012573,0.00020337,1.1692,0.80044,0.0000330929,0.0010753507
3503,10.1021/ja400069s,105,6(a),381,Pb0.98Ba0.01Na0.01Se1,Pb0.98Ba0.01Na0.01Se1,804,30162,0.0012583,0.00020362,1.1684,0.80141,0.0000331543,0.0010769428
3503,10.1021/ja400069s,105,6(a),381,Pb0.98Ba0.01Na0.01Se1,Pb0.98Ba0.01Na0.01Se1,804.5,30105,0.0012593,0.00020387,1.1675,0.80239,0.0000332171,0.0010786296
3503,10.1021/ja400069s,105,6(a),381,Pb0.98Ba0.01Na0.01Se1,Pb0.98Ba0.01Na0.01Se1,805,30049,0.0012603,0.00020411,1.1666,0.80336,0.000033279,0.0010803189
3503,10.1021/ja400069s,105,6(a),381,Pb0.98Ba0.01Na0.01Se1,Pb0.98Ba0.01Na0.01Se1,805.5,29993,0.0012613,0.00020436,1.1658,0.80433,0.0000333411,0.001081918
3503,10.1021/ja400069s,105,6(a),381,Pb0.98Ba0.01Na0.01Se1,Pb0.98Ba0.01Na0.01Se1,806,29938,0.0012623,0.0002046,1.1649,0.8053,0.0000334024,0.0010836123
3503,10.1021/ja400069s,105,6(a),381,Pb0.98Ba0.01Na0.01Se1,Pb0.98Ba0.01Na0.01Se1,806.5,29884,0.0012633,0.00020485,1.164,0.80627,0.0000334627,0.0010853093
3503,10.1021/ja400069s,105,6(a),381,Pb0.98Ba0.01Na0.01Se1,Pb0.98Ba0.01Na0.01Se1,807,29829,0.0012643,0.0002051,1.1632,0.80724,0.0000335244,0.0010869154
3503,10.1021/ja400069s,105,6(a),381,Pb0.98Ba0.01Na0.01Se1,Pb0.98Ba0.01Na0.01Se1,807.5,29775,0.0012653,0.00020534,1.1623,0.80821,0.0000335852,0.0010886174
3503,10.1021/ja400069s,105,6(a),381,Pb0.98Ba0.01Na0.01Se1,Pb0.98Ba0.01Na0.01Se1,808,29722,0.0012662,0.00020559,1.1615,0.80918,0.0000336451,0.0010901421
3503,10.1021/ja400069s,105,6(a),381,Pb0.98Ba0.01Na0.01Se1,Pb0.98Ba0.01Na0.01Se1,808.5,29669,0.0012672,0.00020583,1.1606,0.81016,0.0000337052,0.001091849
3503,10.1021/ja400069s,105,6(a),381,Pb0.98Ba0.01Na0.01Se1,Pb0.98Ba0.01Na0.01Se1,809,29616,0.0012682,0.00020608,1.1598,0.81113,0.0000337655,0.0010934644
3503,10.1021/ja400069s,105,6(a),381,Pb0.98Ba0.01Na0.01Se1,Pb0.98Ba0.01Na0.01Se1,809.5,29564,0.0012692,0.00020633,1.159,0.8121,0.0000338249,0.001095082
3503,10.1021/ja400069s,105,6(a),381,Pb0.98Ba0.01Na0.01Se1,Pb0.98Ba0.01Na0.01Se1,810,29512,0.0012702,0.00020657,1.1581,0.81307,0.0000338845,0.0010967965
3503,10.1021/ja400069s,105,6(a),381,Pb0.98Ba0.01Na0.01Se1,Pb0.98Ba0.01Na0.01Se1,810.5,29461,0.0012712,0.00020682,1.1573,0.81404,0.0000339432,0.0010984187
3503,10.1021/ja400069s,105,6(a),381,Pb0.98Ba0.01Na0.01Se1,Pb0.98Ba0.01Na0.01Se1,811,29410,0.0012722,0.00020706,1.1564,0.81501,0.000034002,0.0011001384
3503,10.1021/ja400069s,105,6(a),381,Pb0.98Ba0.01Na0.01Se1,Pb0.98Ba0.01Na0.01Se1,811.5,29360,0.0012732,0.00020731,1.1556,0.81598,0.0000340599,0.0011017653
3503,10.1021/ja400069s,105,6(a),381,Pb0.98Ba0.01Na0.01Se1,Pb0.98Ba0.01Na0.01Se1,812,29310,0.0012742,0.00020756,1.1548,0.81695,0.000034118,0.0011033945
3503,10.1021/ja400069s,105,6(a),381,Pb0.98Ba0.01Na0.01Se1,Pb0.98Ba0.01Na0.01Se1,812.5,29260,0.0012752,0.0002078,1.154,0.81793,0.0000341763,0.001105026
3503,10.1021/ja400069s,105,6(a),381,Pb0.98Ba0.01Na0.01Se1,Pb0.98Ba0.01Na0.01Se1,813,29211,0.0012762,0.00020805,1.1531,0.8189,0.0000342337,0.0011067557
3503,10.1021/ja400069s,105,6(a),381,Pb0.98Ba0.01Na0.01Se1,Pb0.98Ba0.01Na0.01Se1,813.5,29162,0.0012772,0.0002083,1.1523,0.81987,0.0000342912,0.0011083919
3503,10.1021/ja400069s,105,6(a),381,Pb0.98Ba0.01Na0.01Se1,Pb0.98Ba0.01Na0.01Se1,814,29114,0.0012782,0.00020854,1.1515,0.82084,0.0000343477,0.0011100304
3503,10.1021/ja400069s,105,6(a),381,Pb0.98Ba0.01Na0.01Se1,Pb0.98Ba0.01Na0.01Se1,814.5,29066,0.0012791,0.00020879,1.1507,0.82181,0.0000344045,0.0011115843
3503,10.1021/ja400069s,105,6(a),381,Pb0.98Ba0.01Na0.01Se1,Pb0.98Ba0.01Na0.01Se1,815,29019,0.0012801,0.00020904,1.1499,0.82278,0.0000344602,0.0011132272
3503,10.1021/ja400069s,105,6(a),381,Pb0.98Ba0.01Na0.01Se1,Pb0.98Ba0.01Na0.01Se1,815.5,28972,0.0012811,0.00020928,1.149,0.82375,0.0000345161,0.0011149695
3503,10.1021/ja400069s,105,6(a),381,Pb0.98Ba0.01Na0.01Se1,Pb0.98Ba0.01Na0.01Se1,816,28926,0.0012821,0.00020953,1.1482,0.82472,0.000034571,0.0011166173
3503,10.1021/ja400069s,105,6(a),381,Pb0.98Ba0.01Na0.01Se1,Pb0.98Ba0.01Na0.01Se1,816.5,28880,0.0012831,0.00020978,1.1474,0.8257,0.000034626,0.0011182674
3503,10.1021/ja400069s,105,6(a),381,Pb0.98Ba0.01Na0.01Se1,Pb0.98Ba0.01Na0.01Se1,817,28834,0.0012841,0.00021002,1.1466,0.82667,0.0000346813,0.0011199198
3503,10.1021/ja400069s,105,6(a),381,Pb0.98Ba0.01Na0.01Se1,Pb0.98Ba0.01Na0.01Se1,817.5,28789,0.0012851,0.00021027,1.1458,0.82764,0.0000347355,0.0011215744
3503,10.1021/ja400069s,105,6(a),381,Pb0.98Ba0.01Na0.01Se1,Pb0.98Ba0.01Na0.01Se1,818,28745,0.0012861,0.00021052,1.145,0.82861,0.0000347887,0.0011232314
3503,10.1021/ja400069s,105,6(a),381,Pb0.98Ba0.01Na0.01Se1,Pb0.98Ba0.01Na0.01Se1,818.5,28701,0.0012871,0.00021076,1.1442,0.82958,0.000034842,0.0011248908
3503,10.1021/ja400069s,105,6(a),381,Pb0.98Ba0.01Na0.01Se1,Pb0.98Ba0.01Na0.01Se1,819,28657,0.0012881,0.00021101,1.1434,0.83055,0.0000348955,0.0011265524
3503,10.1021/ja400069s,105,6(a),381,Pb0.98Ba0.01Na0.01Se1,Pb0.98Ba0.01Na0.01Se1,819.5,28614,0.0012891,0.00021126,1.1426,0.83152,0.0000349479,0.0011282163
3503,10.1021/ja400069s,105,6(a),381,Pb0.98Ba0.01Na0.01Se1,Pb0.98Ba0.01Na0.01Se1,820,28572,0.0012901,0.0002115,1.1418,0.83249,0.0000349993,0.0011298826
3503,10.1021/ja400069s,105,6(a),381,Pb0.98Ba0.01Na0.01Se1,Pb0.98Ba0.01Na0.01Se1,820.5,28529,0.001291,0.00021175,1.1411,0.83347,0.0000350521,0.0011313645
3503,10.1021/ja400069s,105,6(a),381,Pb0.98Ba0.01Na0.01Se1,Pb0.98Ba0.01Na0.01Se1,821,,0.001292,0.000212,1.1403,0.83444,,0.0011330352
3503,10.1021/ja400069s,105,6(a),381,Pb0.98Ba0.01Na0.01Se1,Pb0.98Ba0.01Na0.01Se1,821.5,,0.001293,0.00021224,1.1395,0.83541,,0.0011347082
3503,10.1021/ja400069s,105,6(a),381,Pb0.98Ba0.01Na0.01Se1,Pb0.98Ba0.01Na0.01Se1,822,,0.001294,0.00021249,1.1387,0.83638,,0.0011363836
3503,10.1021/ja400069s,105,6(a),381,Pb0.98Ba0.01Na0.01Se1,Pb0.98Ba0.01Na0.01Se1,822.5,,0.001295,0.00021274,1.1379,0.83735,,0.0011380613
3503,10.1021/ja400069s,105,6(a),381,Pb0.98Ba0.01Na0.01Se1,Pb0.98Ba0.01Na0.01Se1,823,,0.001296,0.00021298,1.1372,0.83832,,0.0011396412
3503,10.1021/ja400069s,105,6(a),381,Pb0.98Ba0.01Na0.01Se1,Pb0.98Ba0.01Na0.01Se1,823.5,,0.001297,0.00021323,1.1364,0.83929,,0.0011413235
3503,10.1021/ja400069s,105,6(a),381,Pb0.98Ba0.01Na0.01Se1,Pb0.98Ba0.01Na0.01Se1,824,,0.001298,0.00021348,1.1356,0.84027,,0.0011430081
3503,10.1021/ja400069s,105,6(a),381,Pb0.98Ba0.01Na0.01Se1,Pb0.98Ba0.01Na0.01Se1,824.5,,0.001299,0.00021372,1.1348,0.84124,,0.0011446951
3503,10.1021/ja400069s,105,6(a),381,Pb0.98Ba0.01Na0.01Se1,Pb0.98Ba0.01Na0.01Se1,825,,0.0013,0.00021397,1.1341,0.84221,,0.0011462834
3503,10.1021/ja400069s,105,6(a),381,Pb0.98Ba0.01Na0.01Se1,Pb0.98Ba0.01Na0.01Se1,825.5,,0.001301,0.00021422,1.1333,0.84318,,0.0011479749
3503,10.1021/ja400069s,105,6(a),381,Pb0.98Ba0.01Na0.01Se1,Pb0.98Ba0.01Na0.01Se1,826,,0.001302,0.00021446,1.1326,0.84415,,0.0011495674
3503,10.1021/ja400069s,105,6(a),381,Pb0.98Ba0.01Na0.01Se1,Pb0.98Ba0.01Na0.01Se1,826.5,,0.0013029,0.00021471,1.1318,0.84512,,0.0011511751
3503,10.1021/ja400069s,105,6(a),381,Pb0.98Ba0.01Na0.01Se1,Pb0.98Ba0.01Na0.01Se1,827,,0.0013039,0.00021496,1.131,0.84609,,0.0011528736
3503,10.1021/ja400069s,105,6(a),381,Pb0.98Ba0.01Na0.01Se1,Pb0.98Ba0.01Na0.01Se1,827.5,,0.0013049,0.0002152,1.1303,0.84706,,0.0011544723
3503,10.1021/ja400069s,105,6(a),381,Pb0.98Ba0.01Na0.01Se1,Pb0.98Ba0.01Na0.01Se1,828,,0.0013059,0.00021545,1.1295,0.84804,,0.0011561753
3503,10.1021/ja400069s,105,6(a),381,Pb0.98Ba0.01Na0.01Se1,Pb0.98Ba0.01Na0.01Se1,828.5,,0.0013069,0.0002157,1.1288,0.84901,,0.0011577782
3503,10.1021/ja400069s,105,6(a),381,Pb0.98Ba0.01Na0.01Se1,Pb0.98Ba0.01Na0.01Se1,829,,0.0013079,0.00021595,1.128,0.84998,,0.0011594858
3503,10.1021/ja400069s,105,6(a),381,Pb0.98Ba0.01Na0.01Se1,Pb0.98Ba0.01Na0.01Se1,829.5,,0.0013089,0.00021619,1.1273,0.85095,,0.0011610929
3503,10.1021/ja400069s,105,6(a),381,Pb0.98Ba0.01Na0.01Se1,Pb0.98Ba0.01Na0.01Se1,830,,0.0013099,0.00021644,1.1266,0.85192,,0.0011627019
3503,10.1021/ja400069s,105,6(a),381,Pb0.98Ba0.01Na0.01Se1,Pb0.98Ba0.01Na0.01Se1,830.5,,0.0013109,0.00021669,1.1258,0.85289,,0.0011644164
3503,10.1021/ja400069s,105,6(a),381,Pb0.98Ba0.01Na0.01Se1,Pb0.98Ba0.01Na0.01Se1,831,,0.0013119,0.00021693,1.1251,0.85386,,0.0011660297
3503,10.1021/ja400069s,105,6(a),381,Pb0.98Ba0.01Na0.01Se1,Pb0.98Ba0.01Na0.01Se1,831.5,,0.0013129,0.00021718,1.1244,0.85483,,0.001167645
3503,10.1021/ja400069s,105,6(a),381,Pb0.98Ba0.01Na0.01Se1,Pb0.98Ba0.01Na0.01Se1,832,,0.0013139,0.00021743,1.1236,0.85581,,0.0011693663
3503,10.1021/ja400069s,105,6(a),381,Pb0.98Ba0.01Na0.01Se1,Pb0.98Ba0.01Na0.01Se1,832.5,,0.0013148,0.00021768,1.1229,0.85678,,0.0011708968
3503,10.1021/ja400069s,105,6(a),381,Pb0.98Ba0.01Na0.01Se1,Pb0.98Ba0.01Na0.01Se1,833,,0.0013158,0.00021792,1.1222,0.85775,,0.0011725183
3503,10.1021/ja400069s,105,6(a),381,Pb0.98Ba0.01Na0.01Se1,Pb0.98Ba0.01Na0.01Se1,833.5,,0.0013168,0.00021817,1.1214,0.85872,,0.0011742465
3503,10.1021/ja400069s,105,6(a),381,Pb0.98Ba0.01Na0.01Se1,Pb0.98Ba0.01Na0.01Se1,834,,0.0013178,0.00021842,1.1207,0.85969,,0.0011758722
3503,10.1021/ja400069s,105,6(a),381,Pb0.98Ba0.01Na0.01Se1,Pb0.98Ba0.01Na0.01Se1,834.5,,0.0013188,0.00021866,1.12,0.86066,,0.0011775
3503,10.1021/ja400069s,105,6(a),381,Pb0.98Ba0.01Na0.01Se1,Pb0.98Ba0.01Na0.01Se1,835,,0.0013198,0.00021891,1.1193,0.86163,,0.0011791298
3503,10.1021/ja400069s,105,6(a),381,Pb0.98Ba0.01Na0.01Se1,Pb0.98Ba0.01Na0.01Se1,835.5,,0.0013208,0.00021916,1.1186,0.8626,,0.0011807617
3503,10.1021/ja400069s,105,6(a),381,Pb0.98Ba0.01Na0.01Se1,Pb0.98Ba0.01Na0.01Se1,836,,0.0013218,0.0002194,1.1179,0.86358,,0.0011823956
3503,10.1021/ja400069s,105,6(a),381,Pb0.98Ba0.01Na0.01Se1,Pb0.98Ba0.01Na0.01Se1,836.5,,0.0013228,0.00021965,1.1172,0.86455,,0.0011840315
3503,10.1021/ja400069s,105,6(a),381,Pb0.98Ba0.01Na0.01Se1,Pb0.98Ba0.01Na0.01Se1,837,,0.0013238,0.0002199,1.1164,0.86552,,0.0011857757
3503,10.1021/ja400069s,105,6(a),381,Pb0.98Ba0.01Na0.01Se1,Pb0.98Ba0.01Na0.01Se1,837.5,,0.0013248,0.00022015,1.1157,0.86649,,0.001187416
3503,10.1021/ja400069s,105,6(a),381,Pb0.98Ba0.01Na0.01Se1,Pb0.98Ba0.01Na0.01Se1,838,,0.0013258,0.00022039,1.115,0.86746,,0.0011890583
3503,10.1021/ja400069s,105,6(a),381,Pb0.98Ba0.01Na0.01Se1,Pb0.98Ba0.01Na0.01Se1,838.5,,0.0013268,0.00022064,1.1143,0.86843,,0.0011907027
3503,10.1021/ja400069s,105,6(a),381,Pb0.98Ba0.01Na0.01Se1,Pb0.98Ba0.01Na0.01Se1,839,,0.0013277,0.00022089,1.1136,0.8694,,0.0011922593
3503,10.1021/ja400069s,105,6(a),381,Pb0.98Ba0.01Na0.01Se1,Pb0.98Ba0.01Na0.01Se1,839.5,,0.0013287,0.00022113,1.1129,0.87037,,0.0011939078
3503,10.1021/ja400069s,105,6(a),381,Pb0.98Ba0.01Na0.01Se1,Pb0.98Ba0.01Na0.01Se1,840,,0.0013297,0.00022138,1.1123,0.87135,,0.0011954509
3503,10.1021/ja400069s,105,6(a),381,Pb0.98Ba0.01Na0.01Se1,Pb0.98Ba0.01Na0.01Se1,840.5,,0.0013307,0.00022163,1.1116,0.87232,,0.0011971033
3503,10.1021/ja400069s,105,6(a),381,Pb0.98Ba0.01Na0.01Se1,Pb0.98Ba0.01Na0.01Se1,841,,0.0013317,0.00022188,1.1109,0.87329,,0.0011987578
3503,10.1021/ja400069s,105,6(a),381,Pb0.98Ba0.01Na0.01Se1,Pb0.98Ba0.01Na0.01Se1,841.5,,0.0013327,0.00022212,1.1102,0.87426,,0.0012004143
3503,10.1021/ja400069s,105,6(a),381,Pb0.98Ba0.01Na0.01Se1,Pb0.98Ba0.01Na0.01Se1,842,,0.0013337,0.00022237,1.1095,0.87523,,0.001202073
3503,10.1021/ja400069s,105,6(a),381,Pb0.98Ba0.01Na0.01Se1,Pb0.98Ba0.01Na0.01Se1,842.5,,0.0013347,0.00022262,1.1088,0.8762,,0.0012037338
3503,10.1021/ja400069s,105,6(a),381,Pb0.98Ba0.01Na0.01Se1,Pb0.98Ba0.01Na0.01Se1,843,,0.0013357,0.00022286,1.1082,0.87717,,0.0012052879
3503,10.1021/ja400069s,105,6(a),381,Pb0.98Ba0.01Na0.01Se1,Pb0.98Ba0.01Na0.01Se1,843.5,,0.0013367,0.00022311,1.1075,0.87814,,0.0012069526
3503,10.1021/ja400069s,105,6(a),381,Pb0.98Ba0.01Na0.01Se1,Pb0.98Ba0.01Na0.01Se1,844,,0.0013377,0.00022336,1.1068,0.87912,,0.0012086194
3503,10.1021/ja400069s,105,6(a),381,Pb0.98Ba0.01Na0.01Se1,Pb0.98Ba0.01Na0.01Se1,844.5,,0.0013387,0.00022361,1.1061,0.88009,,0.0012102884
3503,10.1021/ja400069s,105,6(a),381,Pb0.98Ba0.01Na0.01Se1,Pb0.98Ba0.01Na0.01Se1,845,,0.0013396,0.00022385,1.1055,0.88106,,0.0012117594
3503,10.1021/ja400069s,105,6(a),381,Pb0.98Ba0.01Na0.01Se1,Pb0.98Ba0.01Na0.01Se1,845.5,,0.0013406,0.0002241,1.1048,0.88203,,0.0012134323
3503,10.1021/ja400069s,105,6(a),381,Pb0.98Ba0.01Na0.01Se1,Pb0.98Ba0.01Na0.01Se1,846,,0.0013416,0.00022435,1.1041,0.883,,0.0012151073
3503,10.1021/ja400069s,105,6(a),381,Pb0.98Ba0.01Na0.01Se1,Pb0.98Ba0.01Na0.01Se1,846.5,,0.0013426,0.00022459,1.1035,0.88397,,0.0012166742
3503,10.1021/ja400069s,105,6(a),381,Pb0.98Ba0.01Na0.01Se1,Pb0.98Ba0.01Na0.01Se1,847,,0.0013436,0.00022484,1.1028,0.88494,,0.0012183533
3503,10.1021/ja400069s,105,6(a),381,Pb0.98Ba0.01Na0.01Se1,Pb0.98Ba0.01Na0.01Se1,847.5,,0.0013446,0.00022509,1.1022,0.88591,,0.0012199238
3503,10.1021/ja400069s,105,6(a),381,Pb0.98Ba0.01Na0.01Se1,Pb0.98Ba0.01Na0.01Se1,848,,0.0013456,0.00022534,1.1015,0.88689,,0.0012216069
3503,10.1021/ja400069s,105,6(a),381,Pb0.98Ba0.01Na0.01Se1,Pb0.98Ba0.01Na0.01Se1,848.5,,0.0013466,0.00022558,1.1009,0.88786,,0.001223181
3503,10.1021/ja400069s,105,6(a),381,Pb0.98Ba0.01Na0.01Se1,Pb0.98Ba0.01Na0.01Se1,849,,0.0013476,0.00022583,1.1002,0.88883,,0.0012248682
3503,10.1021/ja400069s,105,6(a),381,Pb0.98Ba0.01Na0.01Se1,Pb0.98Ba0.01Na0.01Se1,849.5,,0.0013486,0.00022608,1.0996,0.8898,,0.001226446
3503,10.1021/ja400069s,105,6(a),381,Pb0.98Ba0.01Na0.01Se1,Pb0.98Ba0.01Na0.01Se1,850,,0.0013496,0.00022632,1.0989,0.89077,,0.0012281372
3503,10.1021/ja400069s,105,6(a),381,Pb0.98Ba0.01Na0.01Se1,Pb0.98Ba0.01Na0.01Se1,850.5,,0.0013506,0.00022657,1.0983,0.89174,,0.0012297187
3503,10.1021/ja400069s,105,6(a),381,Pb0.98Ba0.01Na0.01Se1,Pb0.98Ba0.01Na0.01Se1,851,,0.0013515,0.00022682,1.0976,0.89271,,0.0012313229
3503,10.1021/ja400069s,105,6(a),381,Pb0.98Ba0.01Na0.01Se1,Pb0.98Ba0.01Na0.01Se1,851.5,,0.0013525,0.00022706,1.097,0.89368,,0.0012329079
3503,10.1021/ja400069s,105,6(a),381,Pb0.98Ba0.01Na0.01Se1,Pb0.98Ba0.01Na0.01Se1,852,,0.0013535,0.00022731,1.0964,0.89466,,0.0012344947
3503,10.1021/ja400069s,105,6(a),381,Pb0.98Ba0.01Na0.01Se1,Pb0.98Ba0.01Na0.01Se1,852.5,,0.0013545,0.00022756,1.0957,0.89563,,0.001236196
3503,10.1021/ja400069s,105,6(a),381,Pb0.98Ba0.01Na0.01Se1,Pb0.98Ba0.01Na0.01Se1,853,,0.0013555,0.00022781,1.0951,0.8966,,0.0012377865
3503,10.1021/ja400069s,105,6(a),381,Pb0.98Ba0.01Na0.01Se1,Pb0.98Ba0.01Na0.01Se1,853.5,,0.0013565,0.00022805,1.0945,0.89757,,0.0012393787
3503,10.1021/ja400069s,105,6(a),381,Pb0.98Ba0.01Na0.01Se1,Pb0.98Ba0.01Na0.01Se1,854,,0.0013575,0.0002283,1.0938,0.89854,,0.0012410861
3503,10.1021/ja400069s,105,6(a),381,Pb0.98Ba0.01Na0.01Se1,Pb0.98Ba0.01Na0.01Se1,854.5,,0.0013585,0.00022855,1.0932,0.89951,,0.001242682
3503,10.1021/ja400069s,105,6(a),381,Pb0.98Ba0.01Na0.01Se1,Pb0.98Ba0.01Na0.01Se1,855,,0.0013595,0.00022879,1.0926,0.90048,,0.0012442797
3503,10.1021/ja400069s,105,6(a),381,Pb0.98Ba0.01Na0.01Se1,Pb0.98Ba0.01Na0.01Se1,855.5,,0.0013605,0.00022904,1.092,0.90145,,0.0012458791
3503,10.1021/ja400069s,105,6(a),381,Pb0.98Ba0.01Na0.01Se1,Pb0.98Ba0.01Na0.01Se1,856,,0.0013615,0.00022929,1.0914,0.90243,,0.0012474803
3503,10.1021/ja400069s,105,6(a),381,Pb0.98Ba0.01Na0.01Se1,Pb0.98Ba0.01Na0.01Se1,856.5,,0.0013625,0.00022953,1.0908,0.9034,,0.0012490832
3503,10.1021/ja400069s,105,6(a),381,Pb0.98Ba0.01Na0.01Se1,Pb0.98Ba0.01Na0.01Se1,857,,0.0013635,0.00022978,1.0901,0.90437,,0.0012508027
3503,10.1021/ja400069s,105,6(a),381,Pb0.98Ba0.01Na0.01Se1,Pb0.98Ba0.01Na0.01Se1,857.5,,0.0013644,0.00023003,1.0895,0.90534,,0.0012523176
3503,10.1021/ja400069s,105,6(a),381,Pb0.98Ba0.01Na0.01Se1,Pb0.98Ba0.01Na0.01Se1,858,,0.0013654,0.00023027,1.0889,0.90631,,0.001253926
3503,10.1021/ja400069s,105,6(a),381,Pb0.98Ba0.01Na0.01Se1,Pb0.98Ba0.01Na0.01Se1,858.5,,0.0013664,0.00023052,1.0883,0.90728,,0.0012555362
3503,10.1021/ja400069s,105,6(a),381,Pb0.98Ba0.01Na0.01Se1,Pb0.98Ba0.01Na0.01Se1,859,,0.0013674,0.00023077,1.0877,0.90825,,0.0012571481
3503,10.1021/ja400069s,105,6(a),381,Pb0.98Ba0.01Na0.01Se1,Pb0.98Ba0.01Na0.01Se1,859.5,,0.0013684,0.00023101,1.0871,0.90922,,0.0012587618
3503,10.1021/ja400069s,105,6(a),381,Pb0.98Ba0.01Na0.01Se1,Pb0.98Ba0.01Na0.01Se1,860,,0.0013694,0.00023126,1.0865,0.9102,,0.0012603774
3503,10.1021/ja400069s,105,6(a),381,Pb0.98Ba0.01Na0.01Se1,Pb0.98Ba0.01Na0.01Se1,860.5,,0.0013704,0.00023151,1.0859,0.91117,,0.0012619947
3503,10.1021/ja400069s,105,6(a),381,Pb0.98Ba0.01Na0.01Se1,Pb0.98Ba0.01Na0.01Se1,861,,0.0013714,0.00023176,1.0853,0.91214,,0.0012636137
3503,10.1021/ja400069s,105,6(a),381,Pb0.98Ba0.01Na0.01Se1,Pb0.98Ba0.01Na0.01Se1,861.5,,0.0013724,0.000232,1.0847,0.91311,,0.0012652346
3503,10.1021/ja400069s,105,6(a),381,Pb0.98Ba0.01Na0.01Se1,Pb0.98Ba0.01Na0.01Se1,862,,0.0013734,0.00023225,1.0842,0.91408,,0.0012667405
3503,10.1021/ja400069s,105,6(a),381,Pb0.98Ba0.01Na0.01Se1,Pb0.98Ba0.01Na0.01Se1,862.5,,0.0013744,0.0002325,1.0836,0.91505,,0.0012683647
3503,10.1021/ja400069s,105,6(a),381,Pb0.98Ba0.01Na0.01Se1,Pb0.98Ba0.01Na0.01Se1,863,,0.0013754,0.00023274,1.083,0.91602,,0.0012699908
3503,10.1021/ja400069s,105,6(a),381,Pb0.98Ba0.01Na0.01Se1,Pb0.98Ba0.01Na0.01Se1,863.5,,0.0013763,0.00023299,1.0824,0.91699,,0.0012715262
3503,10.1021/ja400069s,105,6(a),381,Pb0.98Ba0.01Na0.01Se1,Pb0.98Ba0.01Na0.01Se1,864,,0.0013773,0.00023323,1.0818,0.91797,,0.0012731559
3503,10.1021/ja400069s,105,6(a),381,Pb0.98Ba0.01Na0.01Se1,Pb0.98Ba0.01Na0.01Se1,864.5,,0.0013783,0.00023348,1.0812,0.91894,,0.0012747873
3503,10.1021/ja400069s,105,6(a),381,Pb0.98Ba0.01Na0.01Se1,Pb0.98Ba0.01Na0.01Se1,865,,0.0013793,0.00023373,1.0807,0.91991,,0.0012763024
3503,10.1021/ja400069s,105,6(a),381,Pb0.98Ba0.01Na0.01Se1,Pb0.98Ba0.01Na0.01Se1,865.5,,0.0013803,0.00023397,1.0801,0.92088,,0.0012779372
3503,10.1021/ja400069s,105,6(a),381,Pb0.98Ba0.01Na0.01Se1,Pb0.98Ba0.01Na0.01Se1,866,,0.0013813,0.00023422,1.0795,0.92185,,0.0012795739
3503,10.1021/ja400069s,105,6(a),381,Pb0.98Ba0.01Na0.01Se1,Pb0.98Ba0.01Na0.01Se1,866.5,,0.0013823,0.00023447,1.079,0.92282,,0.0012810936
3503,10.1021/ja400069s,105,6(a),381,Pb0.98Ba0.01Na0.01Se1,Pb0.98Ba0.01Na0.01Se1,867,,0.0013833,0.00023471,1.0784,0.92379,,0.0012827337
3503,10.1021/ja400069s,105,6(a),381,Pb0.98Ba0.01Na0.01Se1,Pb0.98Ba0.01Na0.01Se1,867.5,,0.0013843,0.00023496,1.0778,0.92476,,0.0012843756
3503,10.1021/ja400069s,105,6(a),381,Pb0.98Ba0.01Na0.01Se1,Pb0.98Ba0.01Na0.01Se1,868,,0.0013853,0.00023521,1.0773,0.92574,,0.0012858999
3503,10.1021/ja400069s,105,6(a),381,Pb0.98Ba0.01Na0.01Se1,Pb0.98Ba0.01Na0.01Se1,868.5,,0.0013863,0.00023545,1.0767,0.92671,,0.0012875453
3503,10.1021/ja400069s,105,6(a),381,Pb0.98Ba0.01Na0.01Se1,Pb0.98Ba0.01Na0.01Se1,869,,0.0013873,0.0002357,1.0762,0.92768,,0.0012890727