sid,DOI,figureid,fignum,sampleid,samplename,composition,Temperature,Electrical conductivity,Power factor,Seebeck coefficient,Thermal conductivity,ZT,Electrical resistivity,Figure of merit Z
3503,10.1021/ja400069s,105,6(a),393,Pb0.95Ba0.04Na0.01Se1,Pb0.95Ba0.04Na0.01Se1,880.5,20890,0.0012496,0.00023316,0.92798,1.0059,0.0000478698,0.0013465807
3503,10.1021/ja400069s,105,6(a),393,Pb0.95Ba0.04Na0.01Se1,Pb0.95Ba0.04Na0.01Se1,881,20862,0.0012504,0.00023323,0.92765,1.0069,0.000047934,0.0013479222
3503,10.1021/ja400069s,105,6(a),393,Pb0.95Ba0.04Na0.01Se1,Pb0.95Ba0.04Na0.01Se1,881.5,20834,0.0012512,0.0002333,0.92732,1.0078,0.0000479985,0.0013492645
3503,10.1021/ja400069s,105,6(a),393,Pb0.95Ba0.04Na0.01Se1,Pb0.95Ba0.04Na0.01Se1,882,20805,0.0012519,0.00023337,0.927,1.0087,0.0000480654,0.0013504854
3503,10.1021/ja400069s,105,6(a),393,Pb0.95Ba0.04Na0.01Se1,Pb0.95Ba0.04Na0.01Se1,882.5,20777,0.0012527,0.00023344,0.92668,1.0097,0.0000481301,0.0013518151
3503,10.1021/ja400069s,105,6(a),393,Pb0.95Ba0.04Na0.01Se1,Pb0.95Ba0.04Na0.01Se1,883,20749,0.0012535,0.00023351,0.92636,1.0106,0.0000481951,0.0013531456
3503,10.1021/ja400069s,105,6(a),393,Pb0.95Ba0.04Na0.01Se1,Pb0.95Ba0.04Na0.01Se1,883.5,20722,0.0012543,0.00023358,0.92604,1.0115,0.0000482579,0.0013544771
3503,10.1021/ja400069s,105,6(a),393,Pb0.95Ba0.04Na0.01Se1,Pb0.95Ba0.04Na0.01Se1,884,20694,0.001255,0.00023364,0.92573,1.0125,0.0000483232,0.0013556869
3503,10.1021/ja400069s,105,6(a),393,Pb0.95Ba0.04Na0.01Se1,Pb0.95Ba0.04Na0.01Se1,884.5,20666,0.0012558,0.00023371,0.92542,1.0134,0.0000483887,0.0013570055
3503,10.1021/ja400069s,105,6(a),393,Pb0.95Ba0.04Na0.01Se1,Pb0.95Ba0.04Na0.01Se1,885,20639,0.0012566,0.00023378,0.92512,1.0143,0.000048452,0.0013583103
3503,10.1021/ja400069s,105,6(a),393,Pb0.95Ba0.04Na0.01Se1,Pb0.95Ba0.04Na0.01Se1,885.5,20611,0.0012574,0.00023384,0.92482,1.0153,0.0000485178,0.0013596159
3503,10.1021/ja400069s,105,6(a),393,Pb0.95Ba0.04Na0.01Se1,Pb0.95Ba0.04Na0.01Se1,886,20584,0.0012581,0.0002339,0.92452,1.0162,0.0000485814,0.0013608143
3503,10.1021/ja400069s,105,6(a),393,Pb0.95Ba0.04Na0.01Se1,Pb0.95Ba0.04Na0.01Se1,886.5,20556,0.0012589,0.00023397,0.92422,1.0171,0.0000486476,0.0013621216
3503,10.1021/ja400069s,105,6(a),393,Pb0.95Ba0.04Na0.01Se1,Pb0.95Ba0.04Na0.01Se1,887,20529,0.0012597,0.00023403,0.92393,1.0181,0.0000487116,0.001363415
3503,10.1021/ja400069s,105,6(a),393,Pb0.95Ba0.04Na0.01Se1,Pb0.95Ba0.04Na0.01Se1,887.5,20502,0.0012605,0.00023409,0.92364,1.019,0.0000487757,0.0013647092
3503,10.1021/ja400069s,105,6(a),393,Pb0.95Ba0.04Na0.01Se1,Pb0.95Ba0.04Na0.01Se1,888,20475,0.0012612,0.00023415,0.92336,1.0199,0.00004884,0.0013658811
3503,10.1021/ja400069s,105,6(a),393,Pb0.95Ba0.04Na0.01Se1,Pb0.95Ba0.04Na0.01Se1,888.5,20448,0.001262,0.00023421,0.92308,1.0209,0.0000489045,0.0013671621
3503,10.1021/ja400069s,105,6(a),393,Pb0.95Ba0.04Na0.01Se1,Pb0.95Ba0.04Na0.01Se1,889,20421,0.0012628,0.00023427,0.9228,1.0218,0.0000489692,0.0013684439
3503,10.1021/ja400069s,105,6(a),393,Pb0.95Ba0.04Na0.01Se1,Pb0.95Ba0.04Na0.01Se1,889.5,20395,0.0012636,0.00023432,0.92252,1.0227,0.0000490316,0.0013697264
3503,10.1021/ja400069s,105,6(a),393,Pb0.95Ba0.04Na0.01Se1,Pb0.95Ba0.04Na0.01Se1,890,20368,0.0012643,0.00023438,0.92225,1.0237,0.0000490966,0.0013708864
3503,10.1021/ja400069s,105,6(a),393,Pb0.95Ba0.04Na0.01Se1,Pb0.95Ba0.04Na0.01Se1,890.5,20342,0.0012651,0.00023444,0.92198,1.0246,0.0000491594,0.0013721556
3503,10.1021/ja400069s,105,6(a),393,Pb0.95Ba0.04Na0.01Se1,Pb0.95Ba0.04Na0.01Se1,891,20315,0.0012659,0.00023449,0.92172,1.0255,0.0000492247,0.0013734106
3503,10.1021/ja400069s,105,6(a),393,Pb0.95Ba0.04Na0.01Se1,Pb0.95Ba0.04Na0.01Se1,891.5,20289,0.0012667,0.00023454,0.92146,1.0265,0.0000492878,0.0013746663
3503,10.1021/ja400069s,105,6(a),393,Pb0.95Ba0.04Na0.01Se1,Pb0.95Ba0.04Na0.01Se1,892,20262,0.0012674,0.0002346,0.9212,1.0274,0.0000493535,0.0013758142
3503,10.1021/ja400069s,105,6(a),393,Pb0.95Ba0.04Na0.01Se1,Pb0.95Ba0.04Na0.01Se1,892.5,20236,0.0012682,0.00023465,0.92095,1.0283,0.0000494169,0.0013770563
3503,10.1021/ja400069s,105,6(a),393,Pb0.95Ba0.04Na0.01Se1,Pb0.95Ba0.04Na0.01Se1,893,20210,0.001269,0.0002347,0.9207,1.0293,0.0000494805,0.0013782991
3503,10.1021/ja400069s,105,6(a),393,Pb0.95Ba0.04Na0.01Se1,Pb0.95Ba0.04Na0.01Se1,893.5,20184,0.0012698,0.00023475,0.92045,1.0302,0.0000495442,0.0013795426
3503,10.1021/ja400069s,105,6(a),393,Pb0.95Ba0.04Na0.01Se1,Pb0.95Ba0.04Na0.01Se1,894,20158,0.0012705,0.0002348,0.92021,1.0311,0.0000496081,0.0013806631
3503,10.1021/ja400069s,105,6(a),393,Pb0.95Ba0.04Na0.01Se1,Pb0.95Ba0.04Na0.01Se1,894.5,20132,0.0012713,0.00023485,0.91997,1.0321,0.0000496722,0.0013818929
3503,10.1021/ja400069s,105,6(a),393,Pb0.95Ba0.04Na0.01Se1,Pb0.95Ba0.04Na0.01Se1,895,20106,0.0012721,0.0002349,0.91973,1.033,0.0000497364,0.0013831233
3503,10.1021/ja400069s,105,6(a),393,Pb0.95Ba0.04Na0.01Se1,Pb0.95Ba0.04Na0.01Se1,895.5,20080,0.0012729,0.00023494,0.9195,1.0339,0.0000498008,0.0013843393
3503,10.1021/ja400069s,105,6(a),393,Pb0.95Ba0.04Na0.01Se1,Pb0.95Ba0.04Na0.01Se1,896,20055,0.0012736,0.00023499,0.91927,1.0349,0.0000498629,0.0013854471
3503,10.1021/ja400069s,105,6(a),393,Pb0.95Ba0.04Na0.01Se1,Pb0.95Ba0.04Na0.01Se1,896.5,20029,0.0012744,0.00023503,0.91905,1.0358,0.0000499276,0.0013866493
3503,10.1021/ja400069s,105,6(a),393,Pb0.95Ba0.04Na0.01Se1,Pb0.95Ba0.04Na0.01Se1,897,20004,0.0012752,0.00023508,0.91883,1.0367,0.00004999,0.0013878519
3503,10.1021/ja400069s,105,6(a),393,Pb0.95Ba0.04Na0.01Se1,Pb0.95Ba0.04Na0.01Se1,897.5,19978,0.001276,0.00023512,0.91861,1.0377,0.0000500551,0.0013890552
3503,10.1021/ja400069s,105,6(a),393,Pb0.95Ba0.04Na0.01Se1,Pb0.95Ba0.04Na0.01Se1,898,19953,0.0012767,0.00023516,0.9184,1.0386,0.0000501178,0.001390135
3503,10.1021/ja400069s,105,6(a),393,Pb0.95Ba0.04Na0.01Se1,Pb0.95Ba0.04Na0.01Se1,898.5,19928,0.0012775,0.00023521,0.91819,1.0395,0.0000501807,0.0013913242
3503,10.1021/ja400069s,105,6(a),393,Pb0.95Ba0.04Na0.01Se1,Pb0.95Ba0.04Na0.01Se1,899,19902,0.0012783,0.00023525,0.91798,1.0405,0.0000502462,0.001392514
3503,10.1021/ja400069s,105,6(a),393,Pb0.95Ba0.04Na0.01Se1,Pb0.95Ba0.04Na0.01Se1,899.5,19877,0.0012791,0.00023529,0.91778,1.0414,0.0000503094,0.0013936891
3503,10.1021/ja400069s,105,6(a),393,Pb0.95Ba0.04Na0.01Se1,Pb0.95Ba0.04Na0.01Se1,900,19852,0.0012799,0.00023532,0.91758,1.0423,0.0000503728,0.0013948648
3503,10.1021/ja400069s,105,6(a),393,Pb0.95Ba0.04Na0.01Se1,Pb0.95Ba0.04Na0.01Se1,900.5,19827,0.0012806,0.00023536,0.91739,1.0433,0.0000504363,0.0013959167
3503,10.1021/ja400069s,105,6(a),393,Pb0.95Ba0.04Na0.01Se1,Pb0.95Ba0.04Na0.01Se1,901,19802,0.0012814,0.0002354,0.91719,1.0442,0.0000504999,0.0013970933
3503,10.1021/ja400069s,105,6(a),393,Pb0.95Ba0.04Na0.01Se1,Pb0.95Ba0.04Na0.01Se1,901.5,19777,0.0012822,0.00023543,0.91701,1.0451,0.0000505638,0.0013982399
3503,10.1021/ja400069s,105,6(a),393,Pb0.95Ba0.04Na0.01Se1,Pb0.95Ba0.04Na0.01Se1,902,19753,0.001283,0.00023547,0.91682,1.0461,0.0000506252,0.0013994023
3503,10.1021/ja400069s,105,6(a),393,Pb0.95Ba0.04Na0.01Se1,Pb0.95Ba0.04Na0.01Se1,902.5,19728,0.0012837,0.0002355,0.91664,1.047,0.0000506894,0.0014004407
3503,10.1021/ja400069s,105,6(a),393,Pb0.95Ba0.04Na0.01Se1,Pb0.95Ba0.04Na0.01Se1,903,19703,0.0012845,0.00023554,0.91647,1.0479,0.0000507537,0.0014015734
3503,10.1021/ja400069s,105,6(a),393,Pb0.95Ba0.04Na0.01Se1,Pb0.95Ba0.04Na0.01Se1,903.5,19679,0.0012853,0.00023557,0.9163,1.0489,0.0000508156,0.0014027065
3503,10.1021/ja400069s,105,6(a),393,Pb0.95Ba0.04Na0.01Se1,Pb0.95Ba0.04Na0.01Se1,904,19654,0.0012861,0.0002356,0.91613,1.0498,0.0000508802,0.0014038401
3503,10.1021/ja400069s,105,6(a),393,Pb0.95Ba0.04Na0.01Se1,Pb0.95Ba0.04Na0.01Se1,904.5,19630,0.0012868,0.00023563,0.91596,1.0507,0.0000509424,0.0014048648
3503,10.1021/ja400069s,105,6(a),393,Pb0.95Ba0.04Na0.01Se1,Pb0.95Ba0.04Na0.01Se1,905,19605,0.0012876,0.00023566,0.9158,1.0517,0.0000510074,0.0014059838
3503,10.1021/ja400069s,105,6(a),393,Pb0.95Ba0.04Na0.01Se1,Pb0.95Ba0.04Na0.01Se1,905.5,19581,0.0012884,0.00023569,0.91565,1.0526,0.0000510699,0.0014070879
3503,10.1021/ja400069s,105,6(a),393,Pb0.95Ba0.04Na0.01Se1,Pb0.95Ba0.04Na0.01Se1,906,19557,0.0012892,0.00023572,0.91549,1.0535,0.0000511326,0.0014082076
3503,10.1021/ja400069s,105,6(a),393,Pb0.95Ba0.04Na0.01Se1,Pb0.95Ba0.04Na0.01Se1,906.5,19533,0.0012899,0.00023574,0.91534,1.0545,0.0000511954,0.0014092031
3503,10.1021/ja400069s,105,6(a),393,Pb0.95Ba0.04Na0.01Se1,Pb0.95Ba0.04Na0.01Se1,907,19508,0.0012907,0.00023577,0.9152,1.0554,0.000051261,0.0014102928
3503,10.1021/ja400069s,105,6(a),393,Pb0.95Ba0.04Na0.01Se1,Pb0.95Ba0.04Na0.01Se1,907.5,19484,0.0012915,0.00023579,0.91506,1.0563,0.0000513242,0.0014113829
3503,10.1021/ja400069s,105,6(a),393,Pb0.95Ba0.04Na0.01Se1,Pb0.95Ba0.04Na0.01Se1,908,19460,0.0012923,0.00023582,0.91492,1.0573,0.0000513875,0.0014124732
3503,10.1021/ja400069s,105,6(a),393,Pb0.95Ba0.04Na0.01Se1,Pb0.95Ba0.04Na0.01Se1,908.5,19436,0.001293,0.00023584,0.91479,1.0582,0.0000514509,0.0014134391
3503,10.1021/ja400069s,105,6(a),393,Pb0.95Ba0.04Na0.01Se1,Pb0.95Ba0.04Na0.01Se1,909,19412,0.0012938,0.00023586,0.91466,1.0591,0.0000515145,0.0014145147
3503,10.1021/ja400069s,105,6(a),393,Pb0.95Ba0.04Na0.01Se1,Pb0.95Ba0.04Na0.01Se1,909.5,19388,0.0012946,0.00023588,0.91454,1.0601,0.0000515783,0.001415575
3503,10.1021/ja400069s,171,5(a),393,Pb0.95Ba0.04Na0.01Se1,Pb0.95Ba0.04Na0.01Se1,910,19365,0.0012954,,0.91442,1.061,0.0000516396,0.0014166357
3503,10.1021/ja400069s,171,5(a),393,Pb0.95Ba0.04Na0.01Se1,Pb0.95Ba0.04Na0.01Se1,910.5,19341,0.0012961,,0.9143,1.062,0.0000517036,0.0014175872
3503,10.1021/ja400069s,171,5(a),393,Pb0.95Ba0.04Na0.01Se1,Pb0.95Ba0.04Na0.01Se1,911,19317,0.0012969,,0.91419,1.0629,0.0000517679,0.0014186329
3503,10.1021/ja400069s,31,7(b),393,Pb0.95Ba0.04Na0.01Se1,Pb0.95Ba0.04Na0.01Se1,911.5,,0.0012977,,0.91408,1.0638,,0.0014196788
3503,10.1021/ja400069s,4875,7(a),393,Pb0.95Ba0.04Na0.01Se1,Pb0.95Ba0.04Na0.01Se1,912,,0.0012985,,,1.0648,,
3503,10.1021/ja400069s,4875,7(a),393,Pb0.95Ba0.04Na0.01Se1,Pb0.95Ba0.04Na0.01Se1,912.5,,0.0012992,,,1.0657,,
3503,10.1021/ja400069s,4875,7(a),393,Pb0.95Ba0.04Na0.01Se1,Pb0.95Ba0.04Na0.01Se1,913,,0.0013,,,1.0666,,
3503,10.1021/ja400069s,105,6(a),179,Pb0.95Sr0.04Na0.01Se1,Pb0.95Sr0.04Na0.01Se1,301.5,,,0.000038463,,-0.17462,,
3503,10.1021/ja400069s,105,6(a),179,Pb0.95Sr0.04Na0.01Se1,Pb0.95Sr0.04Na0.01Se1,302,,,0.000038533,,-0.1736,,
3503,10.1021/ja400069s,105,6(a),179,Pb0.95Sr0.04Na0.01Se1,Pb0.95Sr0.04Na0.01Se1,302.5,243740,0.00036324,0.000038604,,-0.17258,0.0000041027,
3503,10.1021/ja400069s,105,6(a),179,Pb0.95Sr0.04Na0.01Se1,Pb0.95Sr0.04Na0.01Se1,303,243300,0.0003639,0.000038674,2.9547,-0.17155,0.0000041102,0.0001231597
3503,10.1021/ja400069s,105,6(a),179,Pb0.95Sr0.04Na0.01Se1,Pb0.95Sr0.04Na0.01Se1,303.5,242850,0.00036456,0.000038745,2.9514,-0.17053,0.0000041178,0.000123521
3503,10.1021/ja400069s,105,6(a),179,Pb0.95Sr0.04Na0.01Se1,Pb0.95Sr0.04Na0.01Se1,304,242410,0.00036523,0.000038816,2.9481,-0.16951,0.0000041252,0.0001238866
3503,10.1021/ja400069s,105,6(a),179,Pb0.95Sr0.04Na0.01Se1,Pb0.95Sr0.04Na0.01Se1,304.5,241970,0.00036589,0.000038886,2.9448,-0.16849,0.0000041327,0.0001242495
3503,10.1021/ja400069s,105,6(a),179,Pb0.95Sr0.04Na0.01Se1,Pb0.95Sr0.04Na0.01Se1,305,241520,0.00036656,0.000038958,2.9416,-0.16747,0.0000041404,0.0001246125
3503,10.1021/ja400069s,105,6(a),179,Pb0.95Sr0.04Na0.01Se1,Pb0.95Sr0.04Na0.01Se1,305.5,241080,0.00038842,0.000039029,2.9383,-0.16645,0.000004148,0.0001321921
3503,10.1021/ja400069s,105,6(a),179,Pb0.95Sr0.04Na0.01Se1,Pb0.95Sr0.04Na0.01Se1,306,240640,0.0003891,0.0000391,2.935,-0.16543,0.0000041556,0.0001325724
3503,10.1021/ja400069s,105,6(a),179,Pb0.95Sr0.04Na0.01Se1,Pb0.95Sr0.04Na0.01Se1,306.5,240200,0.00038978,0.000039172,2.9318,-0.16441,0.0000041632,0.000132949
3503,10.1021/ja400069s,105,6(a),179,Pb0.95Sr0.04Na0.01Se1,Pb0.95Sr0.04Na0.01Se1,307,239760,0.00039047,0.000039243,2.9285,-0.16338,0.0000041708,0.0001333345
3503,10.1021/ja400069s,105,6(a),179,Pb0.95Sr0.04Na0.01Se1,Pb0.95Sr0.04Na0.01Se1,307.5,239320,0.00039115,0.000039315,2.9252,-0.16236,0.0000041785,0.0001337174
3503,10.1021/ja400069s,105,6(a),179,Pb0.95Sr0.04Na0.01Se1,Pb0.95Sr0.04Na0.01Se1,308,238880,0.00039183,0.000039387,2.922,-0.16134,0.0000041862,0.0001340965
3503,10.1021/ja400069s,105,6(a),179,Pb0.95Sr0.04Na0.01Se1,Pb0.95Sr0.04Na0.01Se1,308.5,238440,0.00039251,0.000039459,2.9188,-0.16032,0.0000041939,0.0001344765
3503,10.1021/ja400069s,105,6(a),179,Pb0.95Sr0.04Na0.01Se1,Pb0.95Sr0.04Na0.01Se1,309,238000,0.00039319,0.000039532,2.9155,-0.1593,0.0000042017,0.0001348619
3503,10.1021/ja400069s,105,6(a),179,Pb0.95Sr0.04Na0.01Se1,Pb0.95Sr0.04Na0.01Se1,309.5,237570,0.00039388,0.000039604,2.9123,-0.15828,0.0000042093,0.0001352471
3503,10.1021/ja400069s,105,6(a),179,Pb0.95Sr0.04Na0.01Se1,Pb0.95Sr0.04Na0.01Se1,310,237130,0.00039456,0.000039677,2.909,-0.15726,0.0000042171,0.0001356342
3503,10.1021/ja400069s,105,6(a),179,Pb0.95Sr0.04Na0.01Se1,Pb0.95Sr0.04Na0.01Se1,310.5,236690,0.00039524,0.00003975,2.9058,-0.15624,0.0000042249,0.0001360176
3503,10.1021/ja400069s,105,6(a),179,Pb0.95Sr0.04Na0.01Se1,Pb0.95Sr0.04Na0.01Se1,311,236260,0.00039592,0.000039823,2.9026,-0.15522,0.0000042326,0.0001364018
3503,10.1021/ja400069s,105,6(a),179,Pb0.95Sr0.04Na0.01Se1,Pb0.95Sr0.04Na0.01Se1,311.5,235820,0.0003966,0.000039896,2.8994,-0.15419,0.0000042405,0.0001367869
3503,10.1021/ja400069s,105,6(a),179,Pb0.95Sr0.04Na0.01Se1,Pb0.95Sr0.04Na0.01Se1,312,235390,0.00039728,0.000039969,2.8961,-0.15317,0.0000042483,0.0001371776
3503,10.1021/ja400069s,105,6(a),179,Pb0.95Sr0.04Na0.01Se1,Pb0.95Sr0.04Na0.01Se1,312.5,234950,0.00039797,0.000040042,2.8929,-0.15215,0.0000042562,0.0001375678
3503,10.1021/ja400069s,105,6(a),179,Pb0.95Sr0.04Na0.01Se1,Pb0.95Sr0.04Na0.01Se1,313,234520,0.00039865,0.000040116,2.8897,-0.15113,0.000004264,0.0001379555
3503,10.1021/ja400069s,105,6(a),179,Pb0.95Sr0.04Na0.01Se1,Pb0.95Sr0.04Na0.01Se1,313.5,234090,0.00039933,0.00004019,2.8865,-0.15011,0.0000042719,0.000138344
3503,10.1021/ja400069s,105,6(a),179,Pb0.95Sr0.04Na0.01Se1,Pb0.95Sr0.04Na0.01Se1,314,233660,0.00040001,0.000040264,2.8833,-0.14909,0.0000042797,0.0001387334
3503,10.1021/ja400069s,105,6(a),179,Pb0.95Sr0.04Na0.01Se1,Pb0.95Sr0.04Na0.01Se1,314.5,233220,0.00040069,0.000040338,2.8801,-0.14807,0.0000042878,0.0001391236
3503,10.1021/ja400069s,105,6(a),179,Pb0.95Sr0.04Na0.01Se1,Pb0.95Sr0.04Na0.01Se1,315,232790,0.00040137,0.000040412,2.8769,-0.14705,0.0000042957,0.0001395148
3503,10.1021/ja400069s,105,6(a),179,Pb0.95Sr0.04Na0.01Se1,Pb0.95Sr0.04Na0.01Se1,315.5,232360,0.00040206,0.000040486,2.8737,-0.14602,0.0000043037,0.0001399102
3503,10.1021/ja400069s,105,6(a),179,Pb0.95Sr0.04Na0.01Se1,Pb0.95Sr0.04Na0.01Se1,316,231930,0.00040274,0.000040561,2.8705,-0.145,0.0000043116,0.0001403031
3503,10.1021/ja400069s,105,6(a),179,Pb0.95Sr0.04Na0.01Se1,Pb0.95Sr0.04Na0.01Se1,316.5,231500,0.00040342,0.000040636,2.8673,-0.14398,0.0000043197,0.0001406968
3503,10.1021/ja400069s,105,6(a),179,Pb0.95Sr0.04Na0.01Se1,Pb0.95Sr0.04Na0.01Se1,317,231080,0.0004041,0.00004071,2.8641,-0.14296,0.0000043275,0.0001410914
3503,10.1021/ja400069s,105,6(a),179,Pb0.95Sr0.04Na0.01Se1,Pb0.95Sr0.04Na0.01Se1,317.5,230650,0.00040478,0.000040785,2.861,-0.14194,0.0000043356,0.000141482
3503,10.1021/ja400069s,105,6(a),179,Pb0.95Sr0.04Na0.01Se1,Pb0.95Sr0.04Na0.01Se1,318,230220,0.00040547,0.000040861,2.8578,-0.14092,0.0000043437,0.0001418819
3503,10.1021/ja400069s,105,6(a),179,Pb0.95Sr0.04Na0.01Se1,Pb0.95Sr0.04Na0.01Se1,318.5,229790,0.00040615,0.000040936,2.8546,-0.1399,0.0000043518,0.0001422791
3503,10.1021/ja400069s,105,6(a),179,Pb0.95Sr0.04Na0.01Se1,Pb0.95Sr0.04Na0.01Se1,319,229370,0.00040683,0.000041012,2.8514,-0.13888,0.0000043598,0.0001426773
3503,10.1021/ja400069s,105,6(a),179,Pb0.95Sr0.04Na0.01Se1,Pb0.95Sr0.04Na0.01Se1,319.5,228940,0.00040751,0.000041087,2.8483,-0.13786,0.000004368,0.0001430713
3503,10.1021/ja400069s,105,6(a),179,Pb0.95Sr0.04Na0.01Se1,Pb0.95Sr0.04Na0.01Se1,320,228510,0.00040819,0.000041163,2.8451,-0.13683,0.0000043762,0.0001434712
3503,10.1021/ja400069s,105,6(a),179,Pb0.95Sr0.04Na0.01Se1,Pb0.95Sr0.04Na0.01Se1,320.5,228090,0.00040887,0.000041239,2.842,-0.13581,0.0000043842,0.000143867
3503,10.1021/ja400069s,105,6(a),179,Pb0.95Sr0.04Na0.01Se1,Pb0.95Sr0.04Na0.01Se1,321,227670,0.00040956,0.000041316,2.8388,-0.13479,0.0000043923,0.0001442722
3503,10.1021/ja400069s,105,6(a),179,Pb0.95Sr0.04Na0.01Se1,Pb0.95Sr0.04Na0.01Se1,321.5,227240,0.00041024,0.000041392,2.8357,-0.13377,0.0000044006,0.0001446697
3503,10.1021/ja400069s,105,6(a),179,Pb0.95Sr0.04Na0.01Se1,Pb0.95Sr0.04Na0.01Se1,322,226820,0.00041092,0.000041468,2.8325,-0.13275,0.0000044088,0.0001450733
3503,10.1021/ja400069s,105,6(a),179,Pb0.95Sr0.04Na0.01Se1,Pb0.95Sr0.04Na0.01Se1,322.5,226400,0.0004116,0.000041545,2.8294,-0.13173,0.000004417,0.0001454725
3503,10.1021/ja400069s,105,6(a),179,Pb0.95Sr0.04Na0.01Se1,Pb0.95Sr0.04Na0.01Se1,323,225970,0.00041228,0.000041622,2.8262,-0.13071,0.0000044254,0.0001458779
3503,10.1021/ja400069s,105,6(a),179,Pb0.95Sr0.04Na0.01Se1,Pb0.95Sr0.04Na0.01Se1,323.5,225550,0.00041296,0.000041699,2.8231,-0.12969,0.0000044336,0.0001462789
3503,10.1021/ja400069s,105,6(a),179,Pb0.95Sr0.04Na0.01Se1,Pb0.95Sr0.04Na0.01Se1,324,225130,0.00041365,0.000041776,2.82,-0.12866,0.0000044419,0.0001466844
3503,10.1021/ja400069s,105,6(a),179,Pb0.95Sr0.04Na0.01Se1,Pb0.95Sr0.04Na0.01Se1,324.5,224710,0.00041433,0.000041854,2.8169,-0.12764,0.0000044502,0.0001470872
3503,10.1021/ja400069s,105,6(a),179,Pb0.95Sr0.04Na0.01Se1,Pb0.95Sr0.04Na0.01Se1,325,224290,0.00041501,0.000041931,2.8137,-0.12662,0.0000044585,0.0001474962
3503,10.1021/ja400069s,105,6(a),179,Pb0.95Sr0.04Na0.01Se1,Pb0.95Sr0.04Na0.01Se1,325.5,223870,0.00041569,0.000042009,2.8106,-0.1256,0.0000044669,0.0001479008
3503,10.1021/ja400069s,105,6(a),179,Pb0.95Sr0.04Na0.01Se1,Pb0.95Sr0.04Na0.01Se1,326,223450,0.00041637,0.000042087,2.8075,-0.12458,0.0000044753,0.0001483063
3503,10.1021/ja400069s,105,6(a),179,Pb0.95Sr0.04Na0.01Se1,Pb0.95Sr0.04Na0.01Se1,326.5,223040,0.00041706,0.000042165,2.8044,-0.12356,0.0000044835,0.0001487163
3503,10.1021/ja400069s,105,6(a),179,Pb0.95Sr0.04Na0.01Se1,Pb0.95Sr0.04Na0.01Se1,327,222620,0.00041774,0.000042243,2.8013,-0.12254,0.000004492,0.0001491236
3503,10.1021/ja400069s,105,6(a),179,Pb0.95Sr0.04Na0.01Se1,Pb0.95Sr0.04Na0.01Se1,327.5,222200,0.00041842,0.000042322,2.7982,-0.12152,0.0000045005,0.0001495318
3503,10.1021/ja400069s,105,6(a),179,Pb0.95Sr0.04Na0.01Se1,Pb0.95Sr0.04Na0.01Se1,328,221790,0.0004191,0.0000424,2.7951,-0.1205,0.0000045088,0.000149941
3503,10.1021/ja400069s,105,6(a),179,Pb0.95Sr0.04Na0.01Se1,Pb0.95Sr0.04Na0.01Se1,328.5,221370,0.00041978,0.000042479,2.792,-0.11947,0.0000045173,0.000150351
3503,10.1021/ja400069s,105,6(a),179,Pb0.95Sr0.04Na0.01Se1,Pb0.95Sr0.04Na0.01Se1,329,220960,0.00042046,0.000042558,2.7889,-0.11845,0.0000045257,0.0001507619
3503,10.1021/ja400069s,105,6(a),179,Pb0.95Sr0.04Na0.01Se1,Pb0.95Sr0.04Na0.01Se1,329.5,220540,0.00042115,0.000042637,2.7858,-0.11743,0.0000045343,0.0001511774
3503,10.1021/ja400069s,105,6(a),179,Pb0.95Sr0.04Na0.01Se1,Pb0.95Sr0.04Na0.01Se1,330,220130,0.00042183,0.000042717,2.7827,-0.11641,0.0000045428,0.0001515902
3503,10.1021/ja400069s,105,6(a),179,Pb0.95Sr0.04Na0.01Se1,Pb0.95Sr0.04Na0.01Se1,330.5,219710,0.00042251,0.000042796,2.7796,-0.11539,0.0000045515,0.0001520039
3503,10.1021/ja400069s,105,6(a),179,Pb0.95Sr0.04Na0.01Se1,Pb0.95Sr0.04Na0.01Se1,331,219300,0.00042319,0.000042876,2.7765,-0.11437,0.00000456,0.0001524185
3503,10.1021/ja400069s,105,6(a),179,Pb0.95Sr0.04Na0.01Se1,Pb0.95Sr0.04Na0.01Se1,331.5,218890,0.00042387,0.000042956,2.7735,-0.11335,0.0000045685,0.0001528286
3503,10.1021/ja400069s,105,6(a),179,Pb0.95Sr0.04Na0.01Se1,Pb0.95Sr0.04Na0.01Se1,332,218480,0.00042455,0.000043036,2.7704,-0.11233,0.0000045771,0.000153245
3503,10.1021/ja400069s,105,6(a),179,Pb0.95Sr0.04Na0.01Se1,Pb0.95Sr0.04Na0.01Se1,332.5,218070,0.00042524,0.000043116,2.7673,-0.1113,0.0000045857,0.000153666
3503,10.1021/ja400069s,105,6(a),179,Pb0.95Sr0.04Na0.01Se1,Pb0.95Sr0.04Na0.01Se1,333,217650,0.00042592,0.000043196,2.7642,-0.11028,0.0000045945,0.0001540844