sid,DOI,figureid,fignum,sampleid,samplename,composition,Temperature,Electrical conductivity,Power factor,Seebeck coefficient,Thermal conductivity,ZT,Electrical resistivity,Figure of merit Z
3503,10.1021/ja400069s,105,6(a),381,Pb0.98Ba0.01Na0.01Se1,Pb0.98Ba0.01Na0.01Se1,541,102460,0.0007366,0.000087214,2.0162,0.29053,0.0000097599,0.0003653407
3503,10.1021/ja400069s,105,6(a),381,Pb0.98Ba0.01Na0.01Se1,Pb0.98Ba0.01Na0.01Se1,541.5,102240,0.00073759,0.000087397,2.0138,0.2915,0.0000097809,0.0003662678
3503,10.1021/ja400069s,105,6(a),381,Pb0.98Ba0.01Na0.01Se1,Pb0.98Ba0.01Na0.01Se1,542,102020,0.00073858,0.000087581,2.0114,0.29247,0.000009802,0.000367197
3503,10.1021/ja400069s,105,6(a),381,Pb0.98Ba0.01Na0.01Se1,Pb0.98Ba0.01Na0.01Se1,542.5,101790,0.00073957,0.000087765,2.009,0.29344,0.0000098241,0.0003681284
3503,10.1021/ja400069s,105,6(a),381,Pb0.98Ba0.01Na0.01Se1,Pb0.98Ba0.01Na0.01Se1,543,101570,0.00074056,0.000087949,2.0066,0.29442,0.0000098454,0.0003690621
3503,10.1021/ja400069s,105,6(a),381,Pb0.98Ba0.01Na0.01Se1,Pb0.98Ba0.01Na0.01Se1,543.5,101340,0.00074156,0.000088133,2.0042,0.29539,0.0000098678,0.000370003
3503,10.1021/ja400069s,105,6(a),381,Pb0.98Ba0.01Na0.01Se1,Pb0.98Ba0.01Na0.01Se1,544,101120,0.00074255,0.000088318,2.0018,0.29636,0.0000098892,0.0003709412
3503,10.1021/ja400069s,105,6(a),381,Pb0.98Ba0.01Na0.01Se1,Pb0.98Ba0.01Na0.01Se1,544.5,100900,0.00074354,0.000088502,1.9995,0.29733,0.0000099108,0.000371863
3503,10.1021/ja400069s,105,6(a),381,Pb0.98Ba0.01Na0.01Se1,Pb0.98Ba0.01Na0.01Se1,545,100680,0.00074453,0.000088687,1.9971,0.2983,0.0000099325,0.0003728056
3503,10.1021/ja400069s,105,6(a),381,Pb0.98Ba0.01Na0.01Se1,Pb0.98Ba0.01Na0.01Se1,545.5,100460,0.00074552,0.000088872,1.9947,0.29927,0.0000099542,0.0003737504
3503,10.1021/ja400069s,105,6(a),381,Pb0.98Ba0.01Na0.01Se1,Pb0.98Ba0.01Na0.01Se1,546,100240,0.00074651,0.000089057,1.9923,0.30024,0.0000099761,0.0003746976
3503,10.1021/ja400069s,105,6(a),381,Pb0.98Ba0.01Na0.01Se1,Pb0.98Ba0.01Na0.01Se1,546.5,100020,0.00074751,0.000089243,1.9899,0.30121,0.000009998,0.000375652
3503,10.1021/ja400069s,105,6(a),381,Pb0.98Ba0.01Na0.01Se1,Pb0.98Ba0.01Na0.01Se1,547,99795,0.0007485,0.000089428,1.9876,0.30219,0.0000100205,0.0003765848
3503,10.1021/ja400069s,105,6(a),381,Pb0.98Ba0.01Na0.01Se1,Pb0.98Ba0.01Na0.01Se1,547.5,99576,0.00074949,0.000089614,1.9852,0.30316,0.0000100426,0.0003775388
3503,10.1021/ja400069s,105,6(a),381,Pb0.98Ba0.01Na0.01Se1,Pb0.98Ba0.01Na0.01Se1,548,99357,0.00075048,0.0000898,1.9828,0.30413,0.0000100647,0.0003784951
3503,10.1021/ja400069s,105,6(a),381,Pb0.98Ba0.01Na0.01Se1,Pb0.98Ba0.01Na0.01Se1,548.5,99138,0.00075147,0.000089986,1.9805,0.3051,0.0000100869,0.0003794345
3503,10.1021/ja400069s,105,6(a),381,Pb0.98Ba0.01Na0.01Se1,Pb0.98Ba0.01Na0.01Se1,549,98919,0.00075247,0.000090172,1.9781,0.30607,0.0000101093,0.0003804004
3503,10.1021/ja400069s,105,6(a),381,Pb0.98Ba0.01Na0.01Se1,Pb0.98Ba0.01Na0.01Se1,549.5,98702,0.00075346,0.000090359,1.9758,0.30704,0.0000101315,0.0003813443
3503,10.1021/ja400069s,105,6(a),381,Pb0.98Ba0.01Na0.01Se1,Pb0.98Ba0.01Na0.01Se1,550,98484,0.00075445,0.000090546,1.9734,0.30801,0.0000101539,0.0003823097
3503,10.1021/ja400069s,105,6(a),381,Pb0.98Ba0.01Na0.01Se1,Pb0.98Ba0.01Na0.01Se1,550.5,98267,0.00075544,0.000090733,1.971,0.30898,0.0000101764,0.0003832775
3503,10.1021/ja400069s,105,6(a),381,Pb0.98Ba0.01Na0.01Se1,Pb0.98Ba0.01Na0.01Se1,551,98050,0.00075643,0.00009092,1.9687,0.30996,0.0000101989,0.0003842282
3503,10.1021/ja400069s,105,6(a),381,Pb0.98Ba0.01Na0.01Se1,Pb0.98Ba0.01Na0.01Se1,551.5,97834,0.00075743,0.000091107,1.9664,0.31093,0.0000102214,0.0003851861
3503,10.1021/ja400069s,105,6(a),381,Pb0.98Ba0.01Na0.01Se1,Pb0.98Ba0.01Na0.01Se1,552,97618,0.00075842,0.000091294,1.964,0.3119,0.000010244,0.0003861609
3503,10.1021/ja400069s,105,6(a),381,Pb0.98Ba0.01Na0.01Se1,Pb0.98Ba0.01Na0.01Se1,552.5,97403,0.00075941,0.000091482,1.9617,0.31287,0.0000102666,0.0003871183
3503,10.1021/ja400069s,105,6(a),381,Pb0.98Ba0.01Na0.01Se1,Pb0.98Ba0.01Na0.01Se1,553,97188,0.0007604,0.00009167,1.9593,0.31384,0.0000102893,0.0003880978
3503,10.1021/ja400069s,105,6(a),381,Pb0.98Ba0.01Na0.01Se1,Pb0.98Ba0.01Na0.01Se1,553.5,96974,0.00076139,0.000091858,1.957,0.31481,0.000010312,0.0003890598
3503,10.1021/ja400069s,105,6(a),381,Pb0.98Ba0.01Na0.01Se1,Pb0.98Ba0.01Na0.01Se1,554,96760,0.00076238,0.000092046,1.9547,0.31578,0.0000103348,0.000390024
3503,10.1021/ja400069s,105,6(a),381,Pb0.98Ba0.01Na0.01Se1,Pb0.98Ba0.01Na0.01Se1,554.5,96546,0.00076338,0.000092234,1.9524,0.31675,0.0000103578,0.0003909957
3503,10.1021/ja400069s,105,6(a),381,Pb0.98Ba0.01Na0.01Se1,Pb0.98Ba0.01Na0.01Se1,555,96333,0.00076437,0.000092423,1.95,0.31773,0.0000103807,0.0003919846
3503,10.1021/ja400069s,105,6(a),381,Pb0.98Ba0.01Na0.01Se1,Pb0.98Ba0.01Na0.01Se1,555.5,96120,0.00076536,0.000092612,1.9477,0.3187,0.0000104037,0.0003929558
3503,10.1021/ja400069s,105,6(a),381,Pb0.98Ba0.01Na0.01Se1,Pb0.98Ba0.01Na0.01Se1,556,95908,0.00076635,0.000092801,1.9454,0.31967,0.0000104267,0.0003939293
3503,10.1021/ja400069s,105,6(a),381,Pb0.98Ba0.01Na0.01Se1,Pb0.98Ba0.01Na0.01Se1,556.5,95696,0.00076734,0.00009299,1.9431,0.32064,0.0000104498,0.000394905
3503,10.1021/ja400069s,105,6(a),381,Pb0.98Ba0.01Na0.01Se1,Pb0.98Ba0.01Na0.01Se1,557,95484,0.00076834,0.000093179,1.9408,0.32161,0.000010473,0.0003958883
3503,10.1021/ja400069s,105,6(a),381,Pb0.98Ba0.01Na0.01Se1,Pb0.98Ba0.01Na0.01Se1,557.5,95273,0.00076933,0.000093368,1.9385,0.32258,0.0000104962,0.0003968687
3503,10.1021/ja400069s,105,6(a),381,Pb0.98Ba0.01Na0.01Se1,Pb0.98Ba0.01Na0.01Se1,558,95062,0.00077032,0.000093558,1.9362,0.32355,0.0000105195,0.0003978515
3503,10.1021/ja400069s,105,6(a),381,Pb0.98Ba0.01Na0.01Se1,Pb0.98Ba0.01Na0.01Se1,558.5,94852,0.00077131,0.000093748,1.9339,0.32452,0.0000105427,0.0003988365
3503,10.1021/ja400069s,105,6(a),381,Pb0.98Ba0.01Na0.01Se1,Pb0.98Ba0.01Na0.01Se1,559,94642,0.0007723,0.000093938,1.9316,0.3255,0.0000105661,0.000399824
3503,10.1021/ja400069s,105,6(a),381,Pb0.98Ba0.01Na0.01Se1,Pb0.98Ba0.01Na0.01Se1,559.5,94433,0.00077329,0.000094128,1.9293,0.32647,0.0000105895,0.0004008138
3503,10.1021/ja400069s,105,6(a),381,Pb0.98Ba0.01Na0.01Se1,Pb0.98Ba0.01Na0.01Se1,560,94223,0.00077429,0.000094319,1.927,0.32744,0.0000106131,0.0004018111
3503,10.1021/ja400069s,105,6(a),381,Pb0.98Ba0.01Na0.01Se1,Pb0.98Ba0.01Na0.01Se1,560.5,94015,0.00077528,0.000094509,1.9247,0.32841,0.0000106366,0.0004028056
3503,10.1021/ja400069s,105,6(a),381,Pb0.98Ba0.01Na0.01Se1,Pb0.98Ba0.01Na0.01Se1,561,93807,0.00077627,0.0000947,1.9224,0.32938,0.0000106602,0.0004038025
3503,10.1021/ja400069s,105,6(a),381,Pb0.98Ba0.01Na0.01Se1,Pb0.98Ba0.01Na0.01Se1,561.5,93599,0.00077726,0.000094891,1.9201,0.33035,0.0000106839,0.0004048018
3503,10.1021/ja400069s,105,6(a),381,Pb0.98Ba0.01Na0.01Se1,Pb0.98Ba0.01Na0.01Se1,562,93391,0.00077825,0.000095082,1.9178,0.33132,0.0000107077,0.0004058035
3503,10.1021/ja400069s,105,6(a),381,Pb0.98Ba0.01Na0.01Se1,Pb0.98Ba0.01Na0.01Se1,562.5,93184,0.00077925,0.000095273,1.9156,0.33229,0.0000107315,0.0004067916
3503,10.1021/ja400069s,105,6(a),381,Pb0.98Ba0.01Na0.01Se1,Pb0.98Ba0.01Na0.01Se1,563,92978,0.00078024,0.000095465,1.9133,0.33327,0.0000107552,0.000407798
3503,10.1021/ja400069s,105,6(a),381,Pb0.98Ba0.01Na0.01Se1,Pb0.98Ba0.01Na0.01Se1,563.5,92771,0.00078123,0.000095656,1.911,0.33424,0.0000107792,0.0004088069
3503,10.1021/ja400069s,105,6(a),381,Pb0.98Ba0.01Na0.01Se1,Pb0.98Ba0.01Na0.01Se1,564,92566,0.00078222,0.000095848,1.9088,0.33521,0.0000108031,0.0004097967
3503,10.1021/ja400069s,105,6(a),381,Pb0.98Ba0.01Na0.01Se1,Pb0.98Ba0.01Na0.01Se1,564.5,92360,0.00078321,0.00009604,1.9065,0.33618,0.0000108272,0.0004108104
3503,10.1021/ja400069s,105,6(a),381,Pb0.98Ba0.01Na0.01Se1,Pb0.98Ba0.01Na0.01Se1,565,92155,0.00078421,0.000096232,1.9042,0.33715,0.0000108513,0.0004118317
3503,10.1021/ja400069s,105,6(a),381,Pb0.98Ba0.01Na0.01Se1,Pb0.98Ba0.01Na0.01Se1,565.5,91951,0.0007852,0.000096425,1.902,0.33812,0.0000108754,0.0004128286
3503,10.1021/ja400069s,105,6(a),381,Pb0.98Ba0.01Na0.01Se1,Pb0.98Ba0.01Na0.01Se1,566,91747,0.00078619,0.000096617,1.8997,0.33909,0.0000108995,0.0004138496
3503,10.1021/ja400069s,105,6(a),381,Pb0.98Ba0.01Na0.01Se1,Pb0.98Ba0.01Na0.01Se1,566.5,91543,0.00078718,0.00009681,1.8975,0.34006,0.0000109238,0.0004148511
3503,10.1021/ja400069s,105,6(a),381,Pb0.98Ba0.01Na0.01Se1,Pb0.98Ba0.01Na0.01Se1,567,91339,0.00078817,0.000097003,1.8952,0.34104,0.0000109482,0.000415877
3503,10.1021/ja400069s,105,6(a),381,Pb0.98Ba0.01Na0.01Se1,Pb0.98Ba0.01Na0.01Se1,567.5,91136,0.00078916,0.000097196,1.893,0.34201,0.0000109726,0.0004168833
3503,10.1021/ja400069s,105,6(a),381,Pb0.98Ba0.01Na0.01Se1,Pb0.98Ba0.01Na0.01Se1,568,90934,0.00079016,0.000097389,1.8907,0.34298,0.000010997,0.0004179193
3503,10.1021/ja400069s,105,6(a),381,Pb0.98Ba0.01Na0.01Se1,Pb0.98Ba0.01Na0.01Se1,568.5,90732,0.00079115,0.000097583,1.8885,0.34395,0.0000110215,0.0004189304
3503,10.1021/ja400069s,105,6(a),381,Pb0.98Ba0.01Na0.01Se1,Pb0.98Ba0.01Na0.01Se1,569,90530,0.00079214,0.000097776,1.8863,0.34492,0.0000110461,0.0004199438
3503,10.1021/ja400069s,105,6(a),381,Pb0.98Ba0.01Na0.01Se1,Pb0.98Ba0.01Na0.01Se1,569.5,90329,0.00079313,0.00009797,1.884,0.34589,0.0000110706,0.000420982
3503,10.1021/ja400069s,105,6(a),381,Pb0.98Ba0.01Na0.01Se1,Pb0.98Ba0.01Na0.01Se1,570,90128,0.00079412,0.000098164,1.8818,0.34686,0.0000110953,0.0004220002
3503,10.1021/ja400069s,105,6(a),381,Pb0.98Ba0.01Na0.01Se1,Pb0.98Ba0.01Na0.01Se1,570.5,89927,0.00079512,0.000098358,1.8796,0.34783,0.0000111201,0.0004230262
3503,10.1021/ja400069s,105,6(a),381,Pb0.98Ba0.01Na0.01Se1,Pb0.98Ba0.01Na0.01Se1,571,89727,0.00079611,0.000098552,1.8774,0.34881,0.0000111449,0.0004240492
3503,10.1021/ja400069s,105,6(a),381,Pb0.98Ba0.01Na0.01Se1,Pb0.98Ba0.01Na0.01Se1,571.5,89527,0.0007971,0.000098747,1.8751,0.34978,0.0000111698,0.0004250973
3503,10.1021/ja400069s,105,6(a),381,Pb0.98Ba0.01Na0.01Se1,Pb0.98Ba0.01Na0.01Se1,572,89328,0.00079809,0.000098941,1.8729,0.35075,0.0000111947,0.0004261253
3503,10.1021/ja400069s,105,6(a),381,Pb0.98Ba0.01Na0.01Se1,Pb0.98Ba0.01Na0.01Se1,572.5,89129,0.00079908,0.000099136,1.8707,0.35172,0.0000112197,0.0004271556
3503,10.1021/ja400069s,105,6(a),381,Pb0.98Ba0.01Na0.01Se1,Pb0.98Ba0.01Na0.01Se1,573,88930,0.00080008,0.000099331,1.8685,0.35269,0.0000112448,0.0004281937
3503,10.1021/ja400069s,105,6(a),381,Pb0.98Ba0.01Na0.01Se1,Pb0.98Ba0.01Na0.01Se1,573.5,88732,0.00080107,0.000099527,1.8663,0.35366,0.0000112699,0.000429229
3503,10.1021/ja400069s,105,6(a),381,Pb0.98Ba0.01Na0.01Se1,Pb0.98Ba0.01Na0.01Se1,574,88534,0.00080206,0.000099722,1.8641,0.35463,0.0000112951,0.0004302666
3503,10.1021/ja400069s,105,6(a),381,Pb0.98Ba0.01Na0.01Se1,Pb0.98Ba0.01Na0.01Se1,574.5,88336,0.00080305,0.000099917,1.8619,0.35561,0.0000113204,0.0004313067
3503,10.1021/ja400069s,105,6(a),381,Pb0.98Ba0.01Na0.01Se1,Pb0.98Ba0.01Na0.01Se1,575,88139,0.00080404,0.00010011,1.8597,0.35658,0.0000113457,0.0004323493
3503,10.1021/ja400069s,105,6(a),381,Pb0.98Ba0.01Na0.01Se1,Pb0.98Ba0.01Na0.01Se1,575.5,87943,0.00080503,0.00010031,1.8575,0.35755,0.000011371,0.0004333943
3503,10.1021/ja400069s,105,6(a),381,Pb0.98Ba0.01Na0.01Se1,Pb0.98Ba0.01Na0.01Se1,576,87746,0.00080603,0.00010051,1.8553,0.35852,0.0000113965,0.0004344473
3503,10.1021/ja400069s,105,6(a),381,Pb0.98Ba0.01Na0.01Se1,Pb0.98Ba0.01Na0.01Se1,576.5,87550,0.00080702,0.0001007,1.8531,0.35949,0.000011422,0.0004354973
3503,10.1021/ja400069s,105,6(a),381,Pb0.98Ba0.01Na0.01Se1,Pb0.98Ba0.01Na0.01Se1,577,87355,0.00080801,0.0001009,1.8509,0.36046,0.0000114475,0.0004365498
3503,10.1021/ja400069s,105,6(a),381,Pb0.98Ba0.01Na0.01Se1,Pb0.98Ba0.01Na0.01Se1,577.5,87160,0.000809,0.00010109,1.8487,0.36143,0.0000114732,0.0004376048
3503,10.1021/ja400069s,105,6(a),381,Pb0.98Ba0.01Na0.01Se1,Pb0.98Ba0.01Na0.01Se1,578,86965,0.00080999,0.00010129,1.8466,0.3624,0.0000114989,0.0004386386
3503,10.1021/ja400069s,105,6(a),381,Pb0.98Ba0.01Na0.01Se1,Pb0.98Ba0.01Na0.01Se1,578.5,86771,0.00081099,0.00010149,1.8444,0.36338,0.0000115246,0.000439704
3503,10.1021/ja400069s,105,6(a),381,Pb0.98Ba0.01Na0.01Se1,Pb0.98Ba0.01Na0.01Se1,579,86577,0.00081198,0.00010168,1.8422,0.36435,0.0000115504,0.0004407665
3503,10.1021/ja400069s,105,6(a),381,Pb0.98Ba0.01Na0.01Se1,Pb0.98Ba0.01Na0.01Se1,579.5,86383,0.00081297,0.00010188,1.8401,0.36532,0.0000115764,0.0004418075
3503,10.1021/ja400069s,105,6(a),381,Pb0.98Ba0.01Na0.01Se1,Pb0.98Ba0.01Na0.01Se1,580,86190,0.00081396,0.00010208,1.8379,0.36629,0.0000116023,0.000442875
3503,10.1021/ja400069s,105,6(a),381,Pb0.98Ba0.01Na0.01Se1,Pb0.98Ba0.01Na0.01Se1,580.5,85997,0.00081495,0.00010228,1.8357,0.36726,0.0000116283,0.0004439451
3503,10.1021/ja400069s,105,6(a),381,Pb0.98Ba0.01Na0.01Se1,Pb0.98Ba0.01Na0.01Se1,581,85804,0.00081594,0.00010247,1.8336,0.36823,0.0000116545,0.0004449935
3503,10.1021/ja400069s,105,6(a),381,Pb0.98Ba0.01Na0.01Se1,Pb0.98Ba0.01Na0.01Se1,581.5,85612,0.00081694,0.00010267,1.8314,0.3692,0.0000116806,0.000446074
3503,10.1021/ja400069s,105,6(a),381,Pb0.98Ba0.01Na0.01Se1,Pb0.98Ba0.01Na0.01Se1,582,85421,0.00081793,0.00010287,1.8293,0.37017,0.0000117067,0.0004471273
3503,10.1021/ja400069s,105,6(a),381,Pb0.98Ba0.01Na0.01Se1,Pb0.98Ba0.01Na0.01Se1,582.5,85229,0.00081892,0.00010307,1.8271,0.37115,0.0000117331,0.0004482075
3503,10.1021/ja400069s,105,6(a),381,Pb0.98Ba0.01Na0.01Se1,Pb0.98Ba0.01Na0.01Se1,583,85038,0.00081991,0.00010327,1.825,0.37212,0.0000117594,0.0004492658
3503,10.1021/ja400069s,105,6(a),381,Pb0.98Ba0.01Na0.01Se1,Pb0.98Ba0.01Na0.01Se1,583.5,84848,0.0008209,0.00010347,1.8228,0.37309,0.0000117858,0.0004503511
3503,10.1021/ja400069s,105,6(a),381,Pb0.98Ba0.01Na0.01Se1,Pb0.98Ba0.01Na0.01Se1,584,84658,0.0008219,0.00010367,1.8207,0.37406,0.0000118122,0.0004514198
3503,10.1021/ja400069s,105,6(a),381,Pb0.98Ba0.01Na0.01Se1,Pb0.98Ba0.01Na0.01Se1,584.5,84468,0.00082289,0.00010386,1.8185,0.37503,0.0000118388,0.0004525103
3503,10.1021/ja400069s,105,6(a),381,Pb0.98Ba0.01Na0.01Se1,Pb0.98Ba0.01Na0.01Se1,585,84278,0.00082388,0.00010406,1.8164,0.376,0.0000118655,0.0004535785
3503,10.1021/ja400069s,105,6(a),381,Pb0.98Ba0.01Na0.01Se1,Pb0.98Ba0.01Na0.01Se1,585.5,84089,0.00082487,0.00010426,1.8143,0.37697,0.0000118922,0.0004546492
3503,10.1021/ja400069s,105,6(a),381,Pb0.98Ba0.01Na0.01Se1,Pb0.98Ba0.01Na0.01Se1,586,83900,0.00082586,0.00010446,1.8121,0.37794,0.000011919,0.0004557475
3503,10.1021/ja400069s,105,6(a),381,Pb0.98Ba0.01Na0.01Se1,Pb0.98Ba0.01Na0.01Se1,586.5,83712,0.00082686,0.00010466,1.81,0.37892,0.0000119457,0.0004568287
3503,10.1021/ja400069s,105,6(a),381,Pb0.98Ba0.01Na0.01Se1,Pb0.98Ba0.01Na0.01Se1,587,83524,0.00082785,0.00010486,1.8079,0.37989,0.0000119726,0.000457907
3503,10.1021/ja400069s,105,6(a),381,Pb0.98Ba0.01Na0.01Se1,Pb0.98Ba0.01Na0.01Se1,587.5,83336,0.00082884,0.00010506,1.8058,0.38086,0.0000119996,0.0004589877
3503,10.1021/ja400069s,105,6(a),381,Pb0.98Ba0.01Na0.01Se1,Pb0.98Ba0.01Na0.01Se1,588,83149,0.00082983,0.00010526,1.8036,0.38183,0.0000120266,0.0004600965
3503,10.1021/ja400069s,105,6(a),381,Pb0.98Ba0.01Na0.01Se1,Pb0.98Ba0.01Na0.01Se1,588.5,82962,0.00083082,0.00010546,1.8015,0.3828,0.0000120537,0.0004611823
3503,10.1021/ja400069s,105,6(a),381,Pb0.98Ba0.01Na0.01Se1,Pb0.98Ba0.01Na0.01Se1,589,82776,0.00083181,0.00010566,1.7994,0.38377,0.0000120808,0.0004622708
3503,10.1021/ja400069s,105,6(a),381,Pb0.98Ba0.01Na0.01Se1,Pb0.98Ba0.01Na0.01Se1,589.5,82589,0.00083281,0.00010586,1.7973,0.38474,0.0000121081,0.0004633673
3503,10.1021/ja400069s,105,6(a),381,Pb0.98Ba0.01Na0.01Se1,Pb0.98Ba0.01Na0.01Se1,590,82404,0.0008338,0.00010606,1.7952,0.38571,0.0000121353,0.0004644608
3503,10.1021/ja400069s,105,6(a),381,Pb0.98Ba0.01Na0.01Se1,Pb0.98Ba0.01Na0.01Se1,590.5,82218,0.00083479,0.00010626,1.7931,0.38669,0.0000121628,0.0004655569
3503,10.1021/ja400069s,105,6(a),381,Pb0.98Ba0.01Na0.01Se1,Pb0.98Ba0.01Na0.01Se1,591,82033,0.00083578,0.00010647,1.791,0.38766,0.0000121902,0.0004666555
3503,10.1021/ja400069s,105,6(a),381,Pb0.98Ba0.01Na0.01Se1,Pb0.98Ba0.01Na0.01Se1,591.5,81848,0.00083677,0.00010667,1.7889,0.38863,0.0000122178,0.0004677567
3503,10.1021/ja400069s,105,6(a),381,Pb0.98Ba0.01Na0.01Se1,Pb0.98Ba0.01Na0.01Se1,592,81664,0.00083777,0.00010687,1.7868,0.3896,0.0000122453,0.0004688661
3503,10.1021/ja400069s,105,6(a),381,Pb0.98Ba0.01Na0.01Se1,Pb0.98Ba0.01Na0.01Se1,592.5,81480,0.00083876,0.00010707,1.7847,0.39057,0.000012273,0.0004699725
3503,10.1021/ja400069s,105,6(a),381,Pb0.98Ba0.01Na0.01Se1,Pb0.98Ba0.01Na0.01Se1,593,81296,0.00083975,0.00010727,1.7827,0.39154,0.0000123007,0.0004710551
3503,10.1021/ja400069s,105,6(a),381,Pb0.98Ba0.01Na0.01Se1,Pb0.98Ba0.01Na0.01Se1,593.5,81113,0.00084074,0.00010747,1.7806,0.39251,0.0000123285,0.0004721667
3503,10.1021/ja400069s,105,6(a),381,Pb0.98Ba0.01Na0.01Se1,Pb0.98Ba0.01Na0.01Se1,594,80930,0.00084173,0.00010768,1.7785,0.39348,0.0000123564,0.0004732809
3503,10.1021/ja400069s,105,6(a),381,Pb0.98Ba0.01Na0.01Se1,Pb0.98Ba0.01Na0.01Se1,594.5,80748,0.00084272,0.00010788,1.7764,0.39446,0.0000123842,0.0004743977
3503,10.1021/ja400069s,105,6(a),381,Pb0.98Ba0.01Na0.01Se1,Pb0.98Ba0.01Na0.01Se1,595,80565,0.00084372,0.00010808,1.7743,0.39543,0.0000124123,0.0004755227
3503,10.1021/ja400069s,105,6(a),381,Pb0.98Ba0.01Na0.01Se1,Pb0.98Ba0.01Na0.01Se1,595.5,80384,0.00084471,0.00010828,1.7723,0.3964,0.0000124403,0.000476618
3503,10.1021/ja400069s,105,6(a),381,Pb0.98Ba0.01Na0.01Se1,Pb0.98Ba0.01Na0.01Se1,596,80202,0.0008457,0.00010849,1.7702,0.39737,0.0000124685,0.0004777426
3503,10.1021/ja400069s,105,6(a),381,Pb0.98Ba0.01Na0.01Se1,Pb0.98Ba0.01Na0.01Se1,596.5,80021,0.00084669,0.00010869,1.7681,0.39834,0.0000124967,0.00047887
3503,10.1021/ja400069s,105,6(a),381,Pb0.98Ba0.01Na0.01Se1,Pb0.98Ba0.01Na0.01Se1,597,79840,0.00084768,0.00010889,1.7661,0.39931,0.0000125251,0.0004799728
3503,10.1021/ja400069s,105,6(a),381,Pb0.98Ba0.01Na0.01Se1,Pb0.98Ba0.01Na0.01Se1,597.5,79660,0.00084868,0.00010909,1.764,0.40028,0.0000125534,0.0004811111
3503,10.1021/ja400069s,105,6(a),381,Pb0.98Ba0.01Na0.01Se1,Pb0.98Ba0.01Na0.01Se1,598,79480,0.00084967,0.0001093,1.762,0.40125,0.0000125818,0.0004822191
3503,10.1021/ja400069s,105,6(a),381,Pb0.98Ba0.01Na0.01Se1,Pb0.98Ba0.01Na0.01Se1,598.5,79300,0.00085066,0.0001095,1.7599,0.40223,0.0000126103,0.000483357
3503,10.1021/ja400069s,105,6(a),381,Pb0.98Ba0.01Na0.01Se1,Pb0.98Ba0.01Na0.01Se1,599,79120,0.00085165,0.00010971,1.7579,0.4032,0.000012639,0.0004844701
3503,10.1021/ja400069s,105,6(a),381,Pb0.98Ba0.01Na0.01Se1,Pb0.98Ba0.01Na0.01Se1,599.5,78941,0.00085264,0.00010991,1.7558,0.40417,0.0000126677,0.0004856134
3503,10.1021/ja400069s,105,6(a),381,Pb0.98Ba0.01Na0.01Se1,Pb0.98Ba0.01Na0.01Se1,600,78763,0.00085364,0.00011011,1.7538,0.40514,0.0000126963,0.0004867374
3503,10.1021/ja400069s,105,6(a),381,Pb0.98Ba0.01Na0.01Se1,Pb0.98Ba0.01Na0.01Se1,600.5,78584,0.00085463,0.00011032,1.7517,0.40611,0.0000127252,0.0004878861
3503,10.1021/ja400069s,105,6(a),381,Pb0.98Ba0.01Na0.01Se1,Pb0.98Ba0.01Na0.01Se1,601,78406,0.00085562,0.00011052,1.7497,0.40708,0.0000127541,0.0004890095
3503,10.1021/ja400069s,105,6(a),381,Pb0.98Ba0.01Na0.01Se1,Pb0.98Ba0.01Na0.01Se1,601.5,78229,0.00085661,0.00011073,1.7477,0.40805,0.000012783,0.0004901356
3503,10.1021/ja400069s,105,6(a),381,Pb0.98Ba0.01Na0.01Se1,Pb0.98Ba0.01Na0.01Se1,602,78051,0.0008576,0.00011093,1.7457,0.40902,0.0000128121,0.0004912642
3503,10.1021/ja400069s,105,6(a),381,Pb0.98Ba0.01Na0.01Se1,Pb0.98Ba0.01Na0.01Se1,602.5,77874,0.00085859,0.00011114,1.7436,0.41,0.0000128413,0.0004924237
3503,10.1021/ja400069s,105,6(a),381,Pb0.98Ba0.01Na0.01Se1,Pb0.98Ba0.01Na0.01Se1,603,77698,0.00085959,0.00011134,1.7416,0.41097,0.0000128703,0.0004935634
3503,10.1021/ja400069s,105,6(a),381,Pb0.98Ba0.01Na0.01Se1,Pb0.98Ba0.01Na0.01Se1,603.5,77521,0.00086058,0.00011155,1.7396,0.41194,0.0000128997,0.0004946999
3503,10.1021/ja400069s,105,6(a),381,Pb0.98Ba0.01Na0.01Se1,Pb0.98Ba0.01Na0.01Se1,604,77346,0.00086157,0.00011175,1.7376,0.41291,0.0000129289,0.0004958391
3503,10.1021/ja400069s,105,6(a),381,Pb0.98Ba0.01Na0.01Se1,Pb0.98Ba0.01Na0.01Se1,604.5,77170,0.00086256,0.00011196,1.7356,0.41388,0.0000129584,0.0004969809