sid,DOI,figureid,fignum,sampleid,samplename,composition,Temperature,Electrical conductivity,Power factor,Seebeck coefficient,Thermal conductivity,ZT,Electrical resistivity,Figure of merit Z
3503,10.1021/ja400069s,105,6(a),286,Pb0.98Sr0.01Na0.01Se1,Pb0.98Sr0.01Na0.01Se1,364,234770,0.00041139,0.000038219,3.2608,-0.055896,0.0000042595,0.0001261623
3503,10.1021/ja400069s,105,6(a),286,Pb0.98Sr0.01Na0.01Se1,Pb0.98Sr0.01Na0.01Se1,364.5,234380,0.0004124,0.000038298,3.2571,-0.054921,0.0000042666,0.0001266157
3503,10.1021/ja400069s,105,6(a),286,Pb0.98Sr0.01Na0.01Se1,Pb0.98Sr0.01Na0.01Se1,365,233990,0.00041342,0.000038377,3.2535,-0.053947,0.0000042737,0.0001270693
3503,10.1021/ja400069s,105,6(a),286,Pb0.98Sr0.01Na0.01Se1,Pb0.98Sr0.01Na0.01Se1,365.5,233600,0.00041443,0.000038456,3.2498,-0.052972,0.0000042808,0.0001275248
3503,10.1021/ja400069s,105,6(a),286,Pb0.98Sr0.01Na0.01Se1,Pb0.98Sr0.01Na0.01Se1,366,233210,0.00041545,0.000038536,3.2462,-0.051997,0.000004288,0.0001279804
3503,10.1021/ja400069s,105,6(a),286,Pb0.98Sr0.01Na0.01Se1,Pb0.98Sr0.01Na0.01Se1,366.5,232820,0.00041647,0.000038616,3.2426,-0.051022,0.0000042952,0.0001284371
3503,10.1021/ja400069s,105,6(a),286,Pb0.98Sr0.01Na0.01Se1,Pb0.98Sr0.01Na0.01Se1,367,232420,0.00041748,0.000038696,3.2389,-0.050047,0.0000043026,0.0001288956
3503,10.1021/ja400069s,105,6(a),286,Pb0.98Sr0.01Na0.01Se1,Pb0.98Sr0.01Na0.01Se1,367.5,232030,0.0004185,0.000038776,3.2353,-0.049072,0.0000043098,0.0001293543
3503,10.1021/ja400069s,105,6(a),286,Pb0.98Sr0.01Na0.01Se1,Pb0.98Sr0.01Na0.01Se1,368,231640,0.00041951,0.000038857,3.2317,-0.048098,0.000004317,0.0001298109
3503,10.1021/ja400069s,105,6(a),286,Pb0.98Sr0.01Na0.01Se1,Pb0.98Sr0.01Na0.01Se1,368.5,231260,0.00042053,0.000038937,3.228,-0.047123,0.0000043241,0.0001302757
3503,10.1021/ja400069s,105,6(a),286,Pb0.98Sr0.01Na0.01Se1,Pb0.98Sr0.01Na0.01Se1,369,230870,0.00042154,0.000039019,3.2244,-0.046148,0.0000043314,0.0001307344
3503,10.1021/ja400069s,105,6(a),286,Pb0.98Sr0.01Na0.01Se1,Pb0.98Sr0.01Na0.01Se1,369.5,230480,0.00042256,0.0000391,3.2208,-0.045173,0.0000043388,0.0001311972
3503,10.1021/ja400069s,105,6(a),286,Pb0.98Sr0.01Na0.01Se1,Pb0.98Sr0.01Na0.01Se1,370,230090,0.00042357,0.000039182,3.2172,-0.044198,0.0000043461,0.000131658
3503,10.1021/ja400069s,105,6(a),286,Pb0.98Sr0.01Na0.01Se1,Pb0.98Sr0.01Na0.01Se1,370.5,229700,0.00042459,0.000039264,3.2136,-0.043223,0.0000043535,0.0001321229
3503,10.1021/ja400069s,105,6(a),286,Pb0.98Sr0.01Na0.01Se1,Pb0.98Sr0.01Na0.01Se1,371,229310,0.0004256,0.000039346,3.21,-0.042249,0.0000043609,0.0001325857
3503,10.1021/ja400069s,105,6(a),286,Pb0.98Sr0.01Na0.01Se1,Pb0.98Sr0.01Na0.01Se1,371.5,228930,0.00042662,0.000039428,3.2064,-0.041274,0.0000043681,0.0001330526
3503,10.1021/ja400069s,105,6(a),286,Pb0.98Sr0.01Na0.01Se1,Pb0.98Sr0.01Na0.01Se1,372,228540,0.00042763,0.000039511,3.2028,-0.040299,0.0000043756,0.0001335175
3503,10.1021/ja400069s,105,6(a),286,Pb0.98Sr0.01Na0.01Se1,Pb0.98Sr0.01Na0.01Se1,372.5,228150,0.00042865,0.000039594,3.1992,-0.039324,0.0000043831,0.0001339866
3503,10.1021/ja400069s,105,6(a),286,Pb0.98Sr0.01Na0.01Se1,Pb0.98Sr0.01Na0.01Se1,373,227770,0.00042966,0.000039677,3.1956,-0.038349,0.0000043904,0.0001344536
3503,10.1021/ja400069s,105,6(a),286,Pb0.98Sr0.01Na0.01Se1,Pb0.98Sr0.01Na0.01Se1,373.5,227380,0.00043068,0.000039761,3.192,-0.037374,0.0000043979,0.0001349248
3503,10.1021/ja400069s,105,6(a),286,Pb0.98Sr0.01Na0.01Se1,Pb0.98Sr0.01Na0.01Se1,374,227000,0.00043169,0.000039844,3.1884,-0.0364,0.0000044053,0.0001353939
3503,10.1021/ja400069s,105,6(a),286,Pb0.98Sr0.01Na0.01Se1,Pb0.98Sr0.01Na0.01Se1,374.5,226610,0.00043271,0.000039928,3.1848,-0.035425,0.0000044129,0.0001358672
3503,10.1021/ja400069s,105,6(a),286,Pb0.98Sr0.01Na0.01Se1,Pb0.98Sr0.01Na0.01Se1,375,226230,0.00043373,0.000040013,3.1813,-0.03445,0.0000044203,0.0001363373
3503,10.1021/ja400069s,105,6(a),286,Pb0.98Sr0.01Na0.01Se1,Pb0.98Sr0.01Na0.01Se1,375.5,225840,0.00043474,0.000040097,3.1777,-0.033475,0.0000044279,0.0001368096
3503,10.1021/ja400069s,105,6(a),286,Pb0.98Sr0.01Na0.01Se1,Pb0.98Sr0.01Na0.01Se1,376,225460,0.00043576,0.000040182,3.1741,-0.0325,0.0000044354,0.0001372862
3503,10.1021/ja400069s,105,6(a),286,Pb0.98Sr0.01Na0.01Se1,Pb0.98Sr0.01Na0.01Se1,376.5,225080,0.00043677,0.000040267,3.1705,-0.031525,0.0000044429,0.0001377606
3503,10.1021/ja400069s,105,6(a),286,Pb0.98Sr0.01Na0.01Se1,Pb0.98Sr0.01Na0.01Se1,377,224690,0.00043779,0.000040353,3.167,-0.030551,0.0000044506,0.0001382349
3503,10.1021/ja400069s,105,6(a),286,Pb0.98Sr0.01Na0.01Se1,Pb0.98Sr0.01Na0.01Se1,377.5,224310,0.0004388,0.000040438,3.1634,-0.029576,0.0000044581,0.0001387115
3503,10.1021/ja400069s,105,6(a),286,Pb0.98Sr0.01Na0.01Se1,Pb0.98Sr0.01Na0.01Se1,378,223930,0.00043982,0.000040524,3.1598,-0.028601,0.0000044657,0.0001391924
3503,10.1021/ja400069s,105,6(a),286,Pb0.98Sr0.01Na0.01Se1,Pb0.98Sr0.01Na0.01Se1,378.5,223550,0.00044083,0.00004061,3.1563,-0.027626,0.0000044733,0.0001396667
3503,10.1021/ja400069s,105,6(a),286,Pb0.98Sr0.01Na0.01Se1,Pb0.98Sr0.01Na0.01Se1,379,223170,0.00044185,0.000040697,3.1527,-0.026651,0.0000044809,0.0001401497
3503,10.1021/ja400069s,105,6(a),286,Pb0.98Sr0.01Na0.01Se1,Pb0.98Sr0.01Na0.01Se1,379.5,222790,0.00044286,0.000040783,3.1492,-0.025676,0.0000044885,0.0001406262
3503,10.1021/ja400069s,105,6(a),286,Pb0.98Sr0.01Na0.01Se1,Pb0.98Sr0.01Na0.01Se1,380,222410,0.00044388,0.00004087,3.1456,-0.024702,0.0000044962,0.0001411114
3503,10.1021/ja400069s,105,6(a),286,Pb0.98Sr0.01Na0.01Se1,Pb0.98Sr0.01Na0.01Se1,380.5,222020,0.00044489,0.000040958,3.1421,-0.023727,0.0000045041,0.00014159
3503,10.1021/ja400069s,105,6(a),286,Pb0.98Sr0.01Na0.01Se1,Pb0.98Sr0.01Na0.01Se1,381,221650,0.00044591,0.000041045,3.1386,-0.022752,0.0000045116,0.0001420729
3503,10.1021/ja400069s,105,6(a),286,Pb0.98Sr0.01Na0.01Se1,Pb0.98Sr0.01Na0.01Se1,381.5,221270,0.00044692,0.000041133,3.135,-0.021777,0.0000045194,0.0001425582
3503,10.1021/ja400069s,105,6(a),286,Pb0.98Sr0.01Na0.01Se1,Pb0.98Sr0.01Na0.01Se1,382,220890,0.00044794,0.000041221,3.1315,-0.020802,0.0000045271,0.0001430433
3503,10.1021/ja400069s,105,6(a),286,Pb0.98Sr0.01Na0.01Se1,Pb0.98Sr0.01Na0.01Se1,382.5,220510,0.00044895,0.000041309,3.128,-0.019828,0.0000045349,0.0001435262
3503,10.1021/ja400069s,105,6(a),286,Pb0.98Sr0.01Na0.01Se1,Pb0.98Sr0.01Na0.01Se1,383,220130,0.00044997,0.000041398,3.1244,-0.018853,0.0000045428,0.0001440181
3503,10.1021/ja400069s,105,6(a),286,Pb0.98Sr0.01Na0.01Se1,Pb0.98Sr0.01Na0.01Se1,383.5,219750,0.00045099,0.000041487,3.1209,-0.017878,0.0000045506,0.0001445064
3503,10.1021/ja400069s,105,6(a),286,Pb0.98Sr0.01Na0.01Se1,Pb0.98Sr0.01Na0.01Se1,384,219370,0.000452,0.000041576,3.1174,-0.016903,0.0000045585,0.0001449926
3503,10.1021/ja400069s,105,6(a),286,Pb0.98Sr0.01Na0.01Se1,Pb0.98Sr0.01Na0.01Se1,384.5,219000,0.00045302,0.000041666,3.1139,-0.015928,0.0000045662,0.0001454832
3503,10.1021/ja400069s,105,6(a),286,Pb0.98Sr0.01Na0.01Se1,Pb0.98Sr0.01Na0.01Se1,385,218620,0.00045403,0.000041755,3.1104,-0.014953,0.0000045741,0.0001459716
3503,10.1021/ja400069s,105,6(a),286,Pb0.98Sr0.01Na0.01Se1,Pb0.98Sr0.01Na0.01Se1,385.5,218240,0.00045505,0.000041845,3.1068,-0.013979,0.0000045821,0.000146469
3503,10.1021/ja400069s,105,6(a),286,Pb0.98Sr0.01Na0.01Se1,Pb0.98Sr0.01Na0.01Se1,386,217870,0.00045606,0.000041936,3.1033,-0.013004,0.0000045899,0.0001469597
3503,10.1021/ja400069s,105,6(a),286,Pb0.98Sr0.01Na0.01Se1,Pb0.98Sr0.01Na0.01Se1,386.5,217490,0.00045708,0.000042026,3.0998,-0.012029,0.0000045979,0.0001474547
3503,10.1021/ja400069s,105,6(a),286,Pb0.98Sr0.01Na0.01Se1,Pb0.98Sr0.01Na0.01Se1,387,217120,0.00045809,0.000042117,3.0963,-0.011054,0.0000046057,0.0001479476
3503,10.1021/ja400069s,105,6(a),286,Pb0.98Sr0.01Na0.01Se1,Pb0.98Sr0.01Na0.01Se1,387.5,216740,0.00045911,0.000042208,3.0928,-0.010079,0.0000046138,0.0001484448
3503,10.1021/ja400069s,105,6(a),286,Pb0.98Sr0.01Na0.01Se1,Pb0.98Sr0.01Na0.01Se1,388,216370,0.00046012,0.000042299,3.0893,-0.0091043,0.0000046217,0.0001489399
3503,10.1021/ja400069s,105,6(a),286,Pb0.98Sr0.01Na0.01Se1,Pb0.98Sr0.01Na0.01Se1,388.5,216000,0.00046114,0.000042391,3.0858,-0.0081295,0.0000046296,0.0001494394
3503,10.1021/ja400069s,105,6(a),286,Pb0.98Sr0.01Na0.01Se1,Pb0.98Sr0.01Na0.01Se1,389,215620,0.00046215,0.000042483,3.0824,-0.0071547,0.0000046378,0.0001499319
3503,10.1021/ja400069s,105,6(a),286,Pb0.98Sr0.01Na0.01Se1,Pb0.98Sr0.01Na0.01Se1,389.5,215250,0.00046317,0.000042575,3.0789,-0.0061798,0.0000046458,0.0001504336
3503,10.1021/ja400069s,105,6(a),286,Pb0.98Sr0.01Na0.01Se1,Pb0.98Sr0.01Na0.01Se1,390,214880,0.00046418,0.000042668,3.0754,-0.005205,0.0000046538,0.0001509332
3503,10.1021/ja400069s,105,6(a),286,Pb0.98Sr0.01Na0.01Se1,Pb0.98Sr0.01Na0.01Se1,390.5,214500,0.0004652,0.00004276,3.0719,-0.0042302,0.000004662,0.0001514372
3503,10.1021/ja400069s,105,6(a),286,Pb0.98Sr0.01Na0.01Se1,Pb0.98Sr0.01Na0.01Se1,391,214130,0.00046622,0.000042853,3.0684,-0.0032553,0.0000046701,0.0001519424
3503,10.1021/ja400069s,105,6(a),286,Pb0.98Sr0.01Na0.01Se1,Pb0.98Sr0.01Na0.01Se1,391.5,213760,0.00046723,0.000042947,3.065,-0.0022805,0.0000046781,0.0001524405
3503,10.1021/ja400069s,105,6(a),286,Pb0.98Sr0.01Na0.01Se1,Pb0.98Sr0.01Na0.01Se1,392,213390,0.00046825,0.00004304,3.0615,-0.0013057,0.0000046863,0.0001529479
3503,10.1021/ja400069s,105,6(a),286,Pb0.98Sr0.01Na0.01Se1,Pb0.98Sr0.01Na0.01Se1,392.5,213020,0.00046926,0.000043134,3.058,-0.00033084,0.0000046944,0.0001534532
3503,10.1021/ja400069s,105,6(a),286,Pb0.98Sr0.01Na0.01Se1,Pb0.98Sr0.01Na0.01Se1,393,212650,0.00047028,0.000043228,3.0546,0.00064399,0.0000047026,0.000153958
3503,10.1021/ja400069s,105,6(a),286,Pb0.98Sr0.01Na0.01Se1,Pb0.98Sr0.01Na0.01Se1,393.5,212280,0.00047129,0.000043323,3.0511,0.0016188,0.0000047108,0.0001544656
3503,10.1021/ja400069s,105,6(a),286,Pb0.98Sr0.01Na0.01Se1,Pb0.98Sr0.01Na0.01Se1,394,211910,0.00047231,0.000043417,3.0476,0.0025937,0.000004719,0.0001549777
3503,10.1021/ja400069s,105,6(a),286,Pb0.98Sr0.01Na0.01Se1,Pb0.98Sr0.01Na0.01Se1,394.5,211540,0.00047332,0.000043512,3.0442,0.0035685,0.0000047272,0.0001554826
3503,10.1021/ja400069s,105,6(a),286,Pb0.98Sr0.01Na0.01Se1,Pb0.98Sr0.01Na0.01Se1,395,211170,0.00047434,0.000043608,3.0407,0.0045433,0.0000047355,0.000155997
3503,10.1021/ja400069s,105,6(a),286,Pb0.98Sr0.01Na0.01Se1,Pb0.98Sr0.01Na0.01Se1,395.5,210800,0.00047535,0.000043703,3.0373,0.0055182,0.0000047438,0.0001565041
3503,10.1021/ja400069s,105,6(a),286,Pb0.98Sr0.01Na0.01Se1,Pb0.98Sr0.01Na0.01Se1,396,210430,0.00047637,0.000043799,3.0339,0.006493,0.0000047522,0.0001570157
3503,10.1021/ja400069s,105,6(a),286,Pb0.98Sr0.01Na0.01Se1,Pb0.98Sr0.01Na0.01Se1,396.5,210070,0.00047738,0.000043895,3.0304,0.0074678,0.0000047603,0.0001575304
3503,10.1021/ja400069s,105,6(a),286,Pb0.98Sr0.01Na0.01Se1,Pb0.98Sr0.01Na0.01Se1,397,209700,0.0004784,0.000043992,3.027,0.0084427,0.0000047687,0.0001580443
3503,10.1021/ja400069s,105,6(a),286,Pb0.98Sr0.01Na0.01Se1,Pb0.98Sr0.01Na0.01Se1,397.5,209330,0.00047941,0.000044088,3.0235,0.0094175,0.0000047771,0.0001585613
3503,10.1021/ja400069s,105,6(a),286,Pb0.98Sr0.01Na0.01Se1,Pb0.98Sr0.01Na0.01Se1,398,208970,0.00048043,0.000044185,3.0201,0.010392,0.0000047854,0.0001590775
3503,10.1021/ja400069s,105,6(a),286,Pb0.98Sr0.01Na0.01Se1,Pb0.98Sr0.01Na0.01Se1,398.5,208600,0.00048144,0.000044282,3.0167,0.011367,0.0000047939,0.0001595916
3503,10.1021/ja400069s,105,6(a),286,Pb0.98Sr0.01Na0.01Se1,Pb0.98Sr0.01Na0.01Se1,399,208240,0.00048246,0.00004438,3.0133,0.012342,0.0000048022,0.0001601102
3503,10.1021/ja400069s,105,6(a),286,Pb0.98Sr0.01Na0.01Se1,Pb0.98Sr0.01Na0.01Se1,399.5,207870,0.00048348,0.000044478,3.0098,0.013317,0.0000048107,0.0001606353
3503,10.1021/ja400069s,105,6(a),286,Pb0.98Sr0.01Na0.01Se1,Pb0.98Sr0.01Na0.01Se1,400,207510,0.00048449,0.000044576,3.0064,0.014292,0.000004819,0.0001611529
3503,10.1021/ja400069s,105,6(a),286,Pb0.98Sr0.01Na0.01Se1,Pb0.98Sr0.01Na0.01Se1,400.5,207140,0.00048551,0.000044674,3.003,0.015266,0.0000048277,0.000161675
3503,10.1021/ja400069s,105,6(a),286,Pb0.98Sr0.01Na0.01Se1,Pb0.98Sr0.01Na0.01Se1,401,206780,0.00048652,0.000044773,2.9996,0.016241,0.0000048361,0.000162195
3503,10.1021/ja400069s,105,6(a),286,Pb0.98Sr0.01Na0.01Se1,Pb0.98Sr0.01Na0.01Se1,401.5,206410,0.00048754,0.000044872,2.9962,0.017216,0.0000048447,0.0001627194
3503,10.1021/ja400069s,105,6(a),286,Pb0.98Sr0.01Na0.01Se1,Pb0.98Sr0.01Na0.01Se1,402,206050,0.00048855,0.000044971,2.9928,0.018191,0.0000048532,0.0001632418
3503,10.1021/ja400069s,105,6(a),286,Pb0.98Sr0.01Na0.01Se1,Pb0.98Sr0.01Na0.01Se1,402.5,205690,0.00048957,0.000045071,2.9894,0.019166,0.0000048617,0.0001637686
3503,10.1021/ja400069s,105,6(a),286,Pb0.98Sr0.01Na0.01Se1,Pb0.98Sr0.01Na0.01Se1,403,205330,0.00049058,0.00004517,2.986,0.020141,0.0000048702,0.0001642934
3503,10.1021/ja400069s,105,6(a),286,Pb0.98Sr0.01Na0.01Se1,Pb0.98Sr0.01Na0.01Se1,403.5,204960,0.0004916,0.000045271,2.9826,0.021115,0.000004879,0.0001648226
3503,10.1021/ja400069s,105,6(a),286,Pb0.98Sr0.01Na0.01Se1,Pb0.98Sr0.01Na0.01Se1,404,204600,0.00049261,0.000045371,2.9792,0.02209,0.0000048876,0.0001653498
3503,10.1021/ja400069s,105,6(a),286,Pb0.98Sr0.01Na0.01Se1,Pb0.98Sr0.01Na0.01Se1,404.5,204240,0.00049363,0.000045472,2.9758,0.023065,0.0000048962,0.0001658814
3503,10.1021/ja400069s,105,6(a),286,Pb0.98Sr0.01Na0.01Se1,Pb0.98Sr0.01Na0.01Se1,405,203880,0.00049464,0.000045572,2.9724,0.02404,0.0000049048,0.000166411
3503,10.1021/ja400069s,105,6(a),286,Pb0.98Sr0.01Na0.01Se1,Pb0.98Sr0.01Na0.01Se1,405.5,203520,0.00049566,0.000045674,2.969,0.025015,0.0000049135,0.0001669451
3503,10.1021/ja400069s,105,6(a),286,Pb0.98Sr0.01Na0.01Se1,Pb0.98Sr0.01Na0.01Se1,406,203160,0.00049667,0.000045775,2.9657,0.02599,0.0000049222,0.0001674714
3503,10.1021/ja400069s,105,6(a),286,Pb0.98Sr0.01Na0.01Se1,Pb0.98Sr0.01Na0.01Se1,406.5,202800,0.00049769,0.000045877,2.9623,0.026964,0.000004931,0.000168008
3503,10.1021/ja400069s,105,6(a),286,Pb0.98Sr0.01Na0.01Se1,Pb0.98Sr0.01Na0.01Se1,407,202440,0.0004987,0.000045979,2.9589,0.027939,0.0000049397,0.0001685424
3503,10.1021/ja400069s,105,6(a),286,Pb0.98Sr0.01Na0.01Se1,Pb0.98Sr0.01Na0.01Se1,407.5,202080,0.00049972,0.000046081,2.9555,0.028914,0.0000049485,0.0001690814
3503,10.1021/ja400069s,105,6(a),286,Pb0.98Sr0.01Na0.01Se1,Pb0.98Sr0.01Na0.01Se1,408,201720,0.00050074,0.000046184,2.9522,0.029889,0.0000049574,0.0001696159
3503,10.1021/ja400069s,105,6(a),286,Pb0.98Sr0.01Na0.01Se1,Pb0.98Sr0.01Na0.01Se1,408.5,201370,0.00050175,0.000046287,2.9488,0.030864,0.000004966,0.000170154
3503,10.1021/ja400069s,105,6(a),286,Pb0.98Sr0.01Na0.01Se1,Pb0.98Sr0.01Na0.01Se1,409,201010,0.00050277,0.00004639,2.9454,0.031839,0.0000049749,0.0001706967
3503,10.1021/ja400069s,105,6(a),286,Pb0.98Sr0.01Na0.01Se1,Pb0.98Sr0.01Na0.01Se1,409.5,200650,0.00050378,0.000046494,2.9421,0.032813,0.0000049838,0.0001712314
3503,10.1021/ja400069s,105,6(a),286,Pb0.98Sr0.01Na0.01Se1,Pb0.98Sr0.01Na0.01Se1,410,200290,0.0005048,0.000046598,2.9387,0.033788,0.0000049928,0.0001717766
3503,10.1021/ja400069s,105,6(a),286,Pb0.98Sr0.01Na0.01Se1,Pb0.98Sr0.01Na0.01Se1,410.5,199940,0.00050581,0.000046702,2.9354,0.034763,0.0000050015,0.0001723138
3503,10.1021/ja400069s,105,6(a),286,Pb0.98Sr0.01Na0.01Se1,Pb0.98Sr0.01Na0.01Se1,411,199580,0.00050683,0.000046806,2.932,0.035738,0.0000050105,0.0001728615
3503,10.1021/ja400069s,105,6(a),286,Pb0.98Sr0.01Na0.01Se1,Pb0.98Sr0.01Na0.01Se1,411.5,199230,0.00050784,0.000046911,2.9287,0.036713,0.0000050193,0.0001734012
3503,10.1021/ja400069s,105,6(a),286,Pb0.98Sr0.01Na0.01Se1,Pb0.98Sr0.01Na0.01Se1,412,198870,0.00050886,0.000047016,2.9253,0.037688,0.0000050284,0.0001739514
3503,10.1021/ja400069s,105,6(a),286,Pb0.98Sr0.01Na0.01Se1,Pb0.98Sr0.01Na0.01Se1,412.5,198520,0.00050987,0.000047121,2.922,0.038662,0.0000050373,0.0001744935
3503,10.1021/ja400069s,105,6(a),286,Pb0.98Sr0.01Na0.01Se1,Pb0.98Sr0.01Na0.01Se1,413,198160,0.00051089,0.000047226,2.9187,0.039637,0.0000050464,0.0001750403
3503,10.1021/ja400069s,105,6(a),286,Pb0.98Sr0.01Na0.01Se1,Pb0.98Sr0.01Na0.01Se1,413.5,197810,0.0005119,0.000047332,2.9153,0.040612,0.0000050554,0.0001755908
3503,10.1021/ja400069s,105,6(a),286,Pb0.98Sr0.01Na0.01Se1,Pb0.98Sr0.01Na0.01Se1,414,197450,0.00051292,0.000047438,2.912,0.041587,0.0000050646,0.0001761401
3503,10.1021/ja400069s,105,6(a),286,Pb0.98Sr0.01Na0.01Se1,Pb0.98Sr0.01Na0.01Se1,414.5,197100,0.00051393,0.000047545,2.9087,0.042562,0.0000050736,0.0001766872
3503,10.1021/ja400069s,105,6(a),286,Pb0.98Sr0.01Na0.01Se1,Pb0.98Sr0.01Na0.01Se1,415,196750,0.00051495,0.000047651,2.9054,0.043537,0.0000050826,0.0001772389
3503,10.1021/ja400069s,105,6(a),286,Pb0.98Sr0.01Na0.01Se1,Pb0.98Sr0.01Na0.01Se1,415.5,196400,0.00051597,0.000047758,2.902,0.044511,0.0000050916,0.0001777981
3503,10.1021/ja400069s,105,6(a),286,Pb0.98Sr0.01Na0.01Se1,Pb0.98Sr0.01Na0.01Se1,416,196040,0.00051698,0.000047866,2.8987,0.045486,0.000005101,0.0001783489
3503,10.1021/ja400069s,105,6(a),286,Pb0.98Sr0.01Na0.01Se1,Pb0.98Sr0.01Na0.01Se1,416.5,195690,0.000518,0.000047973,2.8954,0.046461,0.0000051101,0.0001789045
3503,10.1021/ja400069s,105,6(a),286,Pb0.98Sr0.01Na0.01Se1,Pb0.98Sr0.01Na0.01Se1,417,195340,0.00051901,0.000048081,2.8921,0.047436,0.0000051193,0.0001794578
3503,10.1021/ja400069s,105,6(a),286,Pb0.98Sr0.01Na0.01Se1,Pb0.98Sr0.01Na0.01Se1,417.5,194990,0.00052003,0.000048189,2.8888,0.048411,0.0000051285,0.0001800159
3503,10.1021/ja400069s,105,6(a),286,Pb0.98Sr0.01Na0.01Se1,Pb0.98Sr0.01Na0.01Se1,418,194640,0.00052104,0.000048297,2.8855,0.049386,0.0000051377,0.0001805718
3503,10.1021/ja400069s,105,6(a),286,Pb0.98Sr0.01Na0.01Se1,Pb0.98Sr0.01Na0.01Se1,418.5,194290,0.00052206,0.000048406,2.8822,0.05036,0.0000051469,0.0001811325
3503,10.1021/ja400069s,105,6(a),286,Pb0.98Sr0.01Na0.01Se1,Pb0.98Sr0.01Na0.01Se1,419,193940,0.00052307,0.000048515,2.8789,0.051335,0.0000051562,0.0001816909
3503,10.1021/ja400069s,105,6(a),286,Pb0.98Sr0.01Na0.01Se1,Pb0.98Sr0.01Na0.01Se1,419.5,193590,0.00052409,0.000048624,2.8756,0.05231,0.0000051656,0.0001822541
3503,10.1021/ja400069s,105,6(a),286,Pb0.98Sr0.01Na0.01Se1,Pb0.98Sr0.01Na0.01Se1,420,193240,0.0005251,0.000048734,2.8723,0.053285,0.0000051749,0.0001828152
3503,10.1021/ja400069s,105,6(a),286,Pb0.98Sr0.01Na0.01Se1,Pb0.98Sr0.01Na0.01Se1,420.5,192900,0.00052612,0.000048844,2.869,0.05426,0.000005184,0.000183381
3503,10.1021/ja400069s,105,6(a),286,Pb0.98Sr0.01Na0.01Se1,Pb0.98Sr0.01Na0.01Se1,421,192550,0.00052713,0.000048954,2.8657,0.055235,0.0000051935,0.0001839446
3503,10.1021/ja400069s,105,6(a),286,Pb0.98Sr0.01Na0.01Se1,Pb0.98Sr0.01Na0.01Se1,421.5,192200,0.00052815,0.000049064,2.8625,0.056209,0.0000052029,0.0001845066
3503,10.1021/ja400069s,105,6(a),286,Pb0.98Sr0.01Na0.01Se1,Pb0.98Sr0.01Na0.01Se1,422,191850,0.00052916,0.000049175,2.8592,0.057184,0.0000052124,0.0001850727
3503,10.1021/ja400069s,105,6(a),286,Pb0.98Sr0.01Na0.01Se1,Pb0.98Sr0.01Na0.01Se1,422.5,191510,0.00053018,0.000049286,2.8559,0.058159,0.0000052217,0.0001856438
3503,10.1021/ja400069s,105,6(a),286,Pb0.98Sr0.01Na0.01Se1,Pb0.98Sr0.01Na0.01Se1,423,191160,0.00053119,0.000049397,2.8526,0.059134,0.0000052312,0.0001862126
3503,10.1021/ja400069s,105,6(a),286,Pb0.98Sr0.01Na0.01Se1,Pb0.98Sr0.01Na0.01Se1,423.5,190820,0.00053221,0.000049509,2.8494,0.060109,0.0000052405,0.0001867797
3503,10.1021/ja400069s,105,6(a),286,Pb0.98Sr0.01Na0.01Se1,Pb0.98Sr0.01Na0.01Se1,424,190470,0.00053323,0.000049621,2.8461,0.061084,0.0000052502,0.0001873546
3503,10.1021/ja400069s,105,6(a),286,Pb0.98Sr0.01Na0.01Se1,Pb0.98Sr0.01Na0.01Se1,424.5,190120,0.00053424,0.000049733,2.8428,0.062058,0.0000052598,0.0001879274
3503,10.1021/ja400069s,105,6(a),286,Pb0.98Sr0.01Na0.01Se1,Pb0.98Sr0.01Na0.01Se1,425,189780,0.00053526,0.000049845,2.8396,0.063033,0.0000052693,0.0001884984
3503,10.1021/ja400069s,105,6(a),286,Pb0.98Sr0.01Na0.01Se1,Pb0.98Sr0.01Na0.01Se1,425.5,189440,0.00053627,0.000049958,2.8363,0.064008,0.0000052787,0.0001890738
3503,10.1021/ja400069s,105,6(a),286,Pb0.98Sr0.01Na0.01Se1,Pb0.98Sr0.01Na0.01Se1,426,189090,0.00053729,0.000050071,2.8331,0.064983,0.0000052885,0.0001896474
3503,10.1021/ja400069s,105,6(a),286,Pb0.98Sr0.01Na0.01Se1,Pb0.98Sr0.01Na0.01Se1,426.5,188750,0.0005383,0.000050184,2.8298,0.065958,0.000005298,0.0001902255