sid,DOI,figureid,fignum,sampleid,samplename,composition,Temperature,Electrical conductivity,Power factor,Seebeck coefficient,Thermal conductivity,ZT,Electrical resistivity,Figure of merit Z
3503,10.1021/ja400069s,105,6(a),381,Pb0.98Ba0.01Na0.01Se1,Pb0.98Ba0.01Na0.01Se1,669.5,56998,0.0009915,0.00013991,1.4999,0.54014,0.0000175445,0.0006610441
3503,10.1021/ja400069s,105,6(a),381,Pb0.98Ba0.01Na0.01Se1,Pb0.98Ba0.01Na0.01Se1,670,56862,0.0009925,0.00014014,1.4983,0.54112,0.0000175864,0.0006624174
3503,10.1021/ja400069s,105,6(a),381,Pb0.98Ba0.01Na0.01Se1,Pb0.98Ba0.01Na0.01Se1,670.5,56726,0.00099349,0.00014036,1.4967,0.54209,0.0000176286,0.000663787
3503,10.1021/ja400069s,105,6(a),381,Pb0.98Ba0.01Na0.01Se1,Pb0.98Ba0.01Na0.01Se1,671,56590,0.00099448,0.00014058,1.4951,0.54306,0.000017671,0.0006651595
3503,10.1021/ja400069s,105,6(a),381,Pb0.98Ba0.01Na0.01Se1,Pb0.98Ba0.01Na0.01Se1,671.5,56454,0.00099547,0.00014081,1.4935,0.54403,0.0000177135,0.000666535
3503,10.1021/ja400069s,105,6(a),381,Pb0.98Ba0.01Na0.01Se1,Pb0.98Ba0.01Na0.01Se1,672,56319,0.00099646,0.00014103,1.4919,0.545,0.000017756,0.0006679134
3503,10.1021/ja400069s,105,6(a),381,Pb0.98Ba0.01Na0.01Se1,Pb0.98Ba0.01Na0.01Se1,672.5,56184,0.00099745,0.00014126,1.4903,0.54597,0.0000177987,0.0006692948
3503,10.1021/ja400069s,105,6(a),381,Pb0.98Ba0.01Na0.01Se1,Pb0.98Ba0.01Na0.01Se1,673,56049,0.00099845,0.00014148,1.4887,0.54694,0.0000178415,0.0006706858
3503,10.1021/ja400069s,105,6(a),381,Pb0.98Ba0.01Na0.01Se1,Pb0.98Ba0.01Na0.01Se1,673.5,55915,0.00099944,0.00014171,1.4871,0.54792,0.0000178843,0.0006720732
3503,10.1021/ja400069s,105,6(a),381,Pb0.98Ba0.01Na0.01Se1,Pb0.98Ba0.01Na0.01Se1,674,55781,0.0010004,0.00014193,1.4855,0.54889,0.0000179273,0.0006734433
3503,10.1021/ja400069s,105,6(a),381,Pb0.98Ba0.01Na0.01Se1,Pb0.98Ba0.01Na0.01Se1,674.5,55647,0.0010014,0.00014216,1.4839,0.54986,0.0000179704,0.0006748433
3503,10.1021/ja400069s,105,6(a),381,Pb0.98Ba0.01Na0.01Se1,Pb0.98Ba0.01Na0.01Se1,675,55513,0.0010024,0.00014238,1.4823,0.55083,0.0000180138,0.0006762464
3503,10.1021/ja400069s,105,6(a),381,Pb0.98Ba0.01Na0.01Se1,Pb0.98Ba0.01Na0.01Se1,675.5,55379,0.0010034,0.00014261,1.4807,0.5518,0.0000180574,0.0006776525
3503,10.1021/ja400069s,105,6(a),381,Pb0.98Ba0.01Na0.01Se1,Pb0.98Ba0.01Na0.01Se1,676,55246,0.0010044,0.00014283,1.4791,0.55277,0.0000181009,0.0006790616
3503,10.1021/ja400069s,105,6(a),381,Pb0.98Ba0.01Na0.01Se1,Pb0.98Ba0.01Na0.01Se1,676.5,55113,0.0010054,0.00014306,1.4776,0.55374,0.0000181445,0.0006804277
3503,10.1021/ja400069s,105,6(a),381,Pb0.98Ba0.01Na0.01Se1,Pb0.98Ba0.01Na0.01Se1,677,54981,0.0010064,0.00014328,1.476,0.55471,0.0000181881,0.0006818428
3503,10.1021/ja400069s,105,6(a),381,Pb0.98Ba0.01Na0.01Se1,Pb0.98Ba0.01Na0.01Se1,677.5,54848,0.0010074,0.00014351,1.4744,0.55569,0.0000182322,0.000683261
3503,10.1021/ja400069s,105,6(a),381,Pb0.98Ba0.01Na0.01Se1,Pb0.98Ba0.01Na0.01Se1,678,54716,0.0010084,0.00014373,1.4729,0.55666,0.0000182762,0.0006846358
3503,10.1021/ja400069s,105,6(a),381,Pb0.98Ba0.01Na0.01Se1,Pb0.98Ba0.01Na0.01Se1,678.5,54584,0.0010094,0.00014396,1.4713,0.55763,0.0000183204,0.0006860599
3503,10.1021/ja400069s,105,6(a),381,Pb0.98Ba0.01Na0.01Se1,Pb0.98Ba0.01Na0.01Se1,679,54453,0.0010103,0.00014419,1.4697,0.5586,0.0000183645,0.0006874192
3503,10.1021/ja400069s,105,6(a),381,Pb0.98Ba0.01Na0.01Se1,Pb0.98Ba0.01Na0.01Se1,679.5,54321,0.0010113,0.00014441,1.4682,0.55957,0.0000184091,0.0006888026
3503,10.1021/ja400069s,105,6(a),381,Pb0.98Ba0.01Na0.01Se1,Pb0.98Ba0.01Na0.01Se1,680,54190,0.0010123,0.00014464,1.4666,0.56054,0.0000184536,0.0006902359
3503,10.1021/ja400069s,105,6(a),381,Pb0.98Ba0.01Na0.01Se1,Pb0.98Ba0.01Na0.01Se1,680.5,54059,0.0010133,0.00014487,1.4651,0.56151,0.0000184983,0.0006916251
3503,10.1021/ja400069s,105,6(a),381,Pb0.98Ba0.01Na0.01Se1,Pb0.98Ba0.01Na0.01Se1,681,53929,0.0010143,0.00014509,1.4635,0.56248,0.0000185429,0.0006930646
3503,10.1021/ja400069s,105,6(a),381,Pb0.98Ba0.01Na0.01Se1,Pb0.98Ba0.01Na0.01Se1,681.5,53799,0.0010153,0.00014532,1.462,0.56346,0.0000185877,0.0006944596
3503,10.1021/ja400069s,105,6(a),381,Pb0.98Ba0.01Na0.01Se1,Pb0.98Ba0.01Na0.01Se1,682,53668,0.0010163,0.00014555,1.4604,0.56443,0.0000186331,0.0006959052
3503,10.1021/ja400069s,105,6(a),381,Pb0.98Ba0.01Na0.01Se1,Pb0.98Ba0.01Na0.01Se1,682.5,53539,0.0010173,0.00014577,1.4589,0.5654,0.000018678,0.0006973062
3503,10.1021/ja400069s,105,6(a),381,Pb0.98Ba0.01Na0.01Se1,Pb0.98Ba0.01Na0.01Se1,683,53409,0.0010183,0.000146,1.4573,0.56637,0.0000187234,0.000698758
3503,10.1021/ja400069s,105,6(a),381,Pb0.98Ba0.01Na0.01Se1,Pb0.98Ba0.01Na0.01Se1,683.5,53280,0.0010193,0.00014623,1.4558,0.56734,0.0000187688,0.0007001649
3503,10.1021/ja400069s,105,6(a),381,Pb0.98Ba0.01Na0.01Se1,Pb0.98Ba0.01Na0.01Se1,684,53151,0.0010203,0.00014645,1.4543,0.56831,0.0000188143,0.0007015746
3503,10.1021/ja400069s,105,6(a),381,Pb0.98Ba0.01Na0.01Se1,Pb0.98Ba0.01Na0.01Se1,684.5,53022,0.0010213,0.00014668,1.4528,0.56928,0.0000188601,0.0007029873
3503,10.1021/ja400069s,105,6(a),381,Pb0.98Ba0.01Na0.01Se1,Pb0.98Ba0.01Na0.01Se1,685,52894,0.0010223,0.00014691,1.4512,0.57025,0.0000189057,0.0007044515
3503,10.1021/ja400069s,105,6(a),381,Pb0.98Ba0.01Na0.01Se1,Pb0.98Ba0.01Na0.01Se1,685.5,52765,0.0010232,0.00014714,1.4497,0.57123,0.000018952,0.0007058012
3503,10.1021/ja400069s,105,6(a),381,Pb0.98Ba0.01Na0.01Se1,Pb0.98Ba0.01Na0.01Se1,686,52638,0.0010242,0.00014736,1.4482,0.5722,0.0000189977,0.0007072228
3503,10.1021/ja400069s,105,6(a),381,Pb0.98Ba0.01Na0.01Se1,Pb0.98Ba0.01Na0.01Se1,686.5,52510,0.0010252,0.00014759,1.4467,0.57317,0.000019044,0.0007086473
3503,10.1021/ja400069s,105,6(a),381,Pb0.98Ba0.01Na0.01Se1,Pb0.98Ba0.01Na0.01Se1,687,52382,0.0010262,0.00014782,1.4452,0.57414,0.0000190905,0.0007100747
3503,10.1021/ja400069s,105,6(a),381,Pb0.98Ba0.01Na0.01Se1,Pb0.98Ba0.01Na0.01Se1,687.5,52255,0.0010272,0.00014805,1.4436,0.57511,0.0000191369,0.0007115544
3503,10.1021/ja400069s,105,6(a),381,Pb0.98Ba0.01Na0.01Se1,Pb0.98Ba0.01Na0.01Se1,688,52128,0.0010282,0.00014828,1.4421,0.57608,0.0000191835,0.000712988
3503,10.1021/ja400069s,105,6(a),381,Pb0.98Ba0.01Na0.01Se1,Pb0.98Ba0.01Na0.01Se1,688.5,52002,0.0010292,0.0001485,1.4406,0.57705,0.00001923,0.0007144245
3503,10.1021/ja400069s,105,6(a),381,Pb0.98Ba0.01Na0.01Se1,Pb0.98Ba0.01Na0.01Se1,689,51875,0.0010302,0.00014873,1.4391,0.57802,0.0000192771,0.0007158641
3503,10.1021/ja400069s,105,6(a),381,Pb0.98Ba0.01Na0.01Se1,Pb0.98Ba0.01Na0.01Se1,689.5,51749,0.0010312,0.00014896,1.4376,0.579,0.000019324,0.0007173066
3503,10.1021/ja400069s,105,6(a),381,Pb0.98Ba0.01Na0.01Se1,Pb0.98Ba0.01Na0.01Se1,690,51623,0.0010322,0.00014919,1.4361,0.57997,0.0000193712,0.0007187522
3503,10.1021/ja400069s,105,6(a),381,Pb0.98Ba0.01Na0.01Se1,Pb0.98Ba0.01Na0.01Se1,690.5,51498,0.0010332,0.00014942,1.4346,0.58094,0.0000194182,0.0007202008
3503,10.1021/ja400069s,105,6(a),381,Pb0.98Ba0.01Na0.01Se1,Pb0.98Ba0.01Na0.01Se1,691,51372,0.0010342,0.00014965,1.4332,0.58191,0.0000194659,0.000721602
3503,10.1021/ja400069s,105,6(a),381,Pb0.98Ba0.01Na0.01Se1,Pb0.98Ba0.01Na0.01Se1,691.5,51247,0.0010351,0.00014988,1.4317,0.58288,0.0000195133,0.0007229867
3503,10.1021/ja400069s,105,6(a),381,Pb0.98Ba0.01Na0.01Se1,Pb0.98Ba0.01Na0.01Se1,692,51122,0.0010361,0.0001501,1.4302,0.58385,0.0000195611,0.0007244441
3503,10.1021/ja400069s,105,6(a),381,Pb0.98Ba0.01Na0.01Se1,Pb0.98Ba0.01Na0.01Se1,692.5,50998,0.0010371,0.00015033,1.4287,0.58482,0.0000196086,0.0007259047
3503,10.1021/ja400069s,105,6(a),381,Pb0.98Ba0.01Na0.01Se1,Pb0.98Ba0.01Na0.01Se1,693,50873,0.0010381,0.00015056,1.4272,0.58579,0.0000196568,0.0007273683
3503,10.1021/ja400069s,105,6(a),381,Pb0.98Ba0.01Na0.01Se1,Pb0.98Ba0.01Na0.01Se1,693.5,50749,0.0010391,0.00015079,1.4257,0.58677,0.0000197048,0.000728835
3503,10.1021/ja400069s,105,6(a),381,Pb0.98Ba0.01Na0.01Se1,Pb0.98Ba0.01Na0.01Se1,694,50625,0.0010401,0.00015102,1.4243,0.58774,0.0000197531,0.0007302535
3503,10.1021/ja400069s,105,6(a),381,Pb0.98Ba0.01Na0.01Se1,Pb0.98Ba0.01Na0.01Se1,694.5,50502,0.0010411,0.00015125,1.4228,0.58871,0.0000198012,0.0007317262
3503,10.1021/ja400069s,105,6(a),381,Pb0.98Ba0.01Na0.01Se1,Pb0.98Ba0.01Na0.01Se1,695,50378,0.0010421,0.00015148,1.4213,0.58968,0.0000198499,0.000733202
3503,10.1021/ja400069s,105,6(a),381,Pb0.98Ba0.01Na0.01Se1,Pb0.98Ba0.01Na0.01Se1,695.5,50255,0.0010431,0.00015171,1.4199,0.59065,0.0000198985,0.0007346292
3503,10.1021/ja400069s,105,6(a),381,Pb0.98Ba0.01Na0.01Se1,Pb0.98Ba0.01Na0.01Se1,696,50133,0.0010441,0.00015194,1.4184,0.59162,0.0000199469,0.0007361111
3503,10.1021/ja400069s,105,6(a),381,Pb0.98Ba0.01Na0.01Se1,Pb0.98Ba0.01Na0.01Se1,696.5,50010,0.0010451,0.00015217,1.417,0.59259,0.000019996,0.0007375441
3503,10.1021/ja400069s,105,6(a),381,Pb0.98Ba0.01Na0.01Se1,Pb0.98Ba0.01Na0.01Se1,697,49888,0.0010461,0.0001524,1.4155,0.59356,0.0000200449,0.0007390321
3503,10.1021/ja400069s,105,6(a),381,Pb0.98Ba0.01Na0.01Se1,Pb0.98Ba0.01Na0.01Se1,697.5,49766,0.001047,0.00015263,1.414,0.59454,0.000020094,0.0007404526
3503,10.1021/ja400069s,105,6(a),381,Pb0.98Ba0.01Na0.01Se1,Pb0.98Ba0.01Na0.01Se1,698,49644,0.001048,0.00015286,1.4126,0.59551,0.0000201434,0.0007418944
3503,10.1021/ja400069s,105,6(a),381,Pb0.98Ba0.01Na0.01Se1,Pb0.98Ba0.01Na0.01Se1,698.5,49522,0.001049,0.00015309,1.4111,0.59648,0.000020193,0.0007433917
3503,10.1021/ja400069s,105,6(a),381,Pb0.98Ba0.01Na0.01Se1,Pb0.98Ba0.01Na0.01Se1,699,49401,0.00105,0.00015332,1.4097,0.59745,0.0000202425,0.0007448393
3503,10.1021/ja400069s,105,6(a),381,Pb0.98Ba0.01Na0.01Se1,Pb0.98Ba0.01Na0.01Se1,699.5,49280,0.001051,0.00015355,1.4083,0.59842,0.0000202922,0.0007462899
3503,10.1021/ja400069s,105,6(a),381,Pb0.98Ba0.01Na0.01Se1,Pb0.98Ba0.01Na0.01Se1,700,49160,0.001052,0.00015378,1.4068,0.59939,0.0000203417,0.0007477964
3503,10.1021/ja400069s,105,6(a),381,Pb0.98Ba0.01Na0.01Se1,Pb0.98Ba0.01Na0.01Se1,700.5,49039,0.001053,0.00015401,1.4054,0.60036,0.0000203919,0.0007492529
3503,10.1021/ja400069s,105,6(a),381,Pb0.98Ba0.01Na0.01Se1,Pb0.98Ba0.01Na0.01Se1,701,48919,0.001054,0.00015425,1.404,0.60133,0.000020442,0.0007507123
3503,10.1021/ja400069s,105,6(a),381,Pb0.98Ba0.01Na0.01Se1,Pb0.98Ba0.01Na0.01Se1,701.5,48799,0.001055,0.00015448,1.4025,0.60231,0.0000204922,0.0007522282
3503,10.1021/ja400069s,105,6(a),381,Pb0.98Ba0.01Na0.01Se1,Pb0.98Ba0.01Na0.01Se1,702,48679,0.001056,0.00015471,1.4011,0.60328,0.0000205427,0.0007536935
3503,10.1021/ja400069s,105,6(a),381,Pb0.98Ba0.01Na0.01Se1,Pb0.98Ba0.01Na0.01Se1,702.5,48560,0.001057,0.00015494,1.3997,0.60425,0.0000205931,0.0007551618
3503,10.1021/ja400069s,105,6(a),381,Pb0.98Ba0.01Na0.01Se1,Pb0.98Ba0.01Na0.01Se1,703,48440,0.001058,0.00015517,1.3983,0.60522,0.0000206441,0.0007566331
3503,10.1021/ja400069s,105,6(a),381,Pb0.98Ba0.01Na0.01Se1,Pb0.98Ba0.01Na0.01Se1,703.5,48322,0.0010589,0.0001554,1.3968,0.60619,0.0000206945,0.0007580899
3503,10.1021/ja400069s,105,6(a),381,Pb0.98Ba0.01Na0.01Se1,Pb0.98Ba0.01Na0.01Se1,704,48203,0.0010599,0.00015563,1.3954,0.60716,0.0000207456,0.0007595671
3503,10.1021/ja400069s,105,6(a),381,Pb0.98Ba0.01Na0.01Se1,Pb0.98Ba0.01Na0.01Se1,704.5,48084,0.0010609,0.00015587,1.394,0.60813,0.0000207969,0.0007610473
3503,10.1021/ja400069s,105,6(a),381,Pb0.98Ba0.01Na0.01Se1,Pb0.98Ba0.01Na0.01Se1,705,47966,0.0010619,0.0001561,1.3926,0.6091,0.0000208481,0.0007625305
3503,10.1021/ja400069s,105,6(a),381,Pb0.98Ba0.01Na0.01Se1,Pb0.98Ba0.01Na0.01Se1,705.5,47848,0.0010629,0.00015633,1.3912,0.61008,0.0000208995,0.0007640167
3503,10.1021/ja400069s,105,6(a),381,Pb0.98Ba0.01Na0.01Se1,Pb0.98Ba0.01Na0.01Se1,706,47731,0.0010639,0.00015656,1.3898,0.61105,0.0000209507,0.0007655058
3503,10.1021/ja400069s,105,6(a),381,Pb0.98Ba0.01Na0.01Se1,Pb0.98Ba0.01Na0.01Se1,706.5,47613,0.0010649,0.00015679,1.3884,0.61202,0.0000210027,0.000766998
3503,10.1021/ja400069s,105,6(a),381,Pb0.98Ba0.01Na0.01Se1,Pb0.98Ba0.01Na0.01Se1,707,47496,0.0010659,0.00015703,1.387,0.61299,0.0000210544,0.0007684932
3503,10.1021/ja400069s,105,6(a),381,Pb0.98Ba0.01Na0.01Se1,Pb0.98Ba0.01Na0.01Se1,707.5,47379,0.0010669,0.00015726,1.3856,0.61396,0.0000211064,0.0007699913
3503,10.1021/ja400069s,105,6(a),381,Pb0.98Ba0.01Na0.01Se1,Pb0.98Ba0.01Na0.01Se1,708,47263,0.0010679,0.00015749,1.3842,0.61493,0.0000211582,0.0007714926
3503,10.1021/ja400069s,105,6(a),381,Pb0.98Ba0.01Na0.01Se1,Pb0.98Ba0.01Na0.01Se1,708.5,47146,0.0010689,0.00015772,1.3828,0.6159,0.0000212107,0.0007729968
3503,10.1021/ja400069s,105,6(a),381,Pb0.98Ba0.01Na0.01Se1,Pb0.98Ba0.01Na0.01Se1,709,47030,0.0010699,0.00015796,1.3814,0.61687,0.000021263,0.0007745041
3503,10.1021/ja400069s,105,6(a),381,Pb0.98Ba0.01Na0.01Se1,Pb0.98Ba0.01Na0.01Se1,709.5,46914,0.0010709,0.00015819,1.3801,0.61785,0.0000213156,0.0007759583
3503,10.1021/ja400069s,105,6(a),381,Pb0.98Ba0.01Na0.01Se1,Pb0.98Ba0.01Na0.01Se1,710,46799,0.0010718,0.00015842,1.3787,0.61882,0.000021368,0.000777399
3503,10.1021/ja400069s,105,6(a),381,Pb0.98Ba0.01Na0.01Se1,Pb0.98Ba0.01Na0.01Se1,710.5,46683,0.0010728,0.00015865,1.3773,0.61979,0.0000214211,0.0007789153
3503,10.1021/ja400069s,105,6(a),381,Pb0.98Ba0.01Na0.01Se1,Pb0.98Ba0.01Na0.01Se1,711,46568,0.0010738,0.00015889,1.3759,0.62076,0.000021474,0.0007804346
3503,10.1021/ja400069s,105,6(a),381,Pb0.98Ba0.01Na0.01Se1,Pb0.98Ba0.01Na0.01Se1,711.5,46454,0.0010748,0.00015912,1.3746,0.62173,0.0000215267,0.0007819002
3503,10.1021/ja400069s,105,6(a),381,Pb0.98Ba0.01Na0.01Se1,Pb0.98Ba0.01Na0.01Se1,712,46339,0.0010758,0.00015935,1.3732,0.6227,0.0000215801,0.0007834256
3503,10.1021/ja400069s,105,6(a),381,Pb0.98Ba0.01Na0.01Se1,Pb0.98Ba0.01Na0.01Se1,712.5,46225,0.0010768,0.00015959,1.3718,0.62367,0.0000216333,0.0007849541
3503,10.1021/ja400069s,105,6(a),381,Pb0.98Ba0.01Na0.01Se1,Pb0.98Ba0.01Na0.01Se1,713,46111,0.0010778,0.00015982,1.3705,0.62464,0.0000216868,0.0007864283
3503,10.1021/ja400069s,105,6(a),381,Pb0.98Ba0.01Na0.01Se1,Pb0.98Ba0.01Na0.01Se1,713.5,45997,0.0010788,0.00016005,1.3691,0.62562,0.0000217405,0.0007879629
3503,10.1021/ja400069s,105,6(a),381,Pb0.98Ba0.01Na0.01Se1,Pb0.98Ba0.01Na0.01Se1,714,45883,0.0010798,0.00016029,1.3677,0.62659,0.0000217946,0.0007895006
3503,10.1021/ja400069s,105,6(a),381,Pb0.98Ba0.01Na0.01Se1,Pb0.98Ba0.01Na0.01Se1,714.5,45770,0.0010808,0.00016052,1.3664,0.62756,0.0000218484,0.0007909836
3503,10.1021/ja400069s,105,6(a),381,Pb0.98Ba0.01Na0.01Se1,Pb0.98Ba0.01Na0.01Se1,715,45657,0.0010818,0.00016075,1.365,0.62853,0.0000219024,0.0007925275
3503,10.1021/ja400069s,105,6(a),381,Pb0.98Ba0.01Na0.01Se1,Pb0.98Ba0.01Na0.01Se1,715.5,45544,0.0010828,0.00016099,1.3637,0.6295,0.0000219568,0.0007940163
3503,10.1021/ja400069s,105,6(a),381,Pb0.98Ba0.01Na0.01Se1,Pb0.98Ba0.01Na0.01Se1,716,45432,0.0010837,0.00016122,1.3623,0.63047,0.0000220109,0.0007954929
3503,10.1021/ja400069s,105,6(a),381,Pb0.98Ba0.01Na0.01Se1,Pb0.98Ba0.01Na0.01Se1,716.5,45320,0.0010847,0.00016146,1.361,0.63144,0.0000220653,0.0007969875
3503,10.1021/ja400069s,105,6(a),381,Pb0.98Ba0.01Na0.01Se1,Pb0.98Ba0.01Na0.01Se1,717,45208,0.0010857,0.00016169,1.3597,0.63241,0.00002212,0.000798485
3503,10.1021/ja400069s,105,6(a),381,Pb0.98Ba0.01Na0.01Se1,Pb0.98Ba0.01Na0.01Se1,717.5,45096,0.0010867,0.00016193,1.3583,0.63339,0.0000221749,0.0008000442
3503,10.1021/ja400069s,105,6(a),381,Pb0.98Ba0.01Na0.01Se1,Pb0.98Ba0.01Na0.01Se1,718,44985,0.0010877,0.00016216,1.357,0.63436,0.0000222296,0.0008015475
3503,10.1021/ja400069s,105,6(a),381,Pb0.98Ba0.01Na0.01Se1,Pb0.98Ba0.01Na0.01Se1,718.5,44873,0.0010887,0.00016239,1.3557,0.63533,0.0000222851,0.0008030538
3503,10.1021/ja400069s,105,6(a),381,Pb0.98Ba0.01Na0.01Se1,Pb0.98Ba0.01Na0.01Se1,719,44762,0.0010897,0.00016263,1.3543,0.6363,0.0000223404,0.0008046223
3503,10.1021/ja400069s,105,6(a),381,Pb0.98Ba0.01Na0.01Se1,Pb0.98Ba0.01Na0.01Se1,719.5,44652,0.0010907,0.00016286,1.353,0.63727,0.0000223954,0.0008061345
3503,10.1021/ja400069s,105,6(a),381,Pb0.98Ba0.01Na0.01Se1,Pb0.98Ba0.01Na0.01Se1,720,44541,0.0010917,0.0001631,1.3517,0.63824,0.0000224512,0.0008076496
3503,10.1021/ja400069s,105,6(a),381,Pb0.98Ba0.01Na0.01Se1,Pb0.98Ba0.01Na0.01Se1,720.5,44431,0.0010927,0.00016333,1.3504,0.63921,0.0000225068,0.0008091677
3503,10.1021/ja400069s,105,6(a),381,Pb0.98Ba0.01Na0.01Se1,Pb0.98Ba0.01Na0.01Se1,721,44321,0.0010937,0.00016357,1.349,0.64018,0.0000225627,0.0008107487
3503,10.1021/ja400069s,105,6(a),381,Pb0.98Ba0.01Na0.01Se1,Pb0.98Ba0.01Na0.01Se1,721.5,44212,0.0010947,0.0001638,1.3477,0.64116,0.0000226183,0.0008122728
3503,10.1021/ja400069s,105,6(a),381,Pb0.98Ba0.01Na0.01Se1,Pb0.98Ba0.01Na0.01Se1,722,44102,0.0010956,0.00016404,1.3464,0.64213,0.0000226747,0.0008137255
3503,10.1021/ja400069s,105,6(a),381,Pb0.98Ba0.01Na0.01Se1,Pb0.98Ba0.01Na0.01Se1,722.5,43993,0.0010966,0.00016427,1.3451,0.6431,0.0000227309,0.0008152554
3503,10.1021/ja400069s,105,6(a),381,Pb0.98Ba0.01Na0.01Se1,Pb0.98Ba0.01Na0.01Se1,723,43885,0.0010976,0.00016451,1.3438,0.64407,0.0000227868,0.0008167882
3503,10.1021/ja400069s,105,6(a),381,Pb0.98Ba0.01Na0.01Se1,Pb0.98Ba0.01Na0.01Se1,723.5,43776,0.0010986,0.00016474,1.3425,0.64504,0.0000228436,0.000818324
3503,10.1021/ja400069s,105,6(a),381,Pb0.98Ba0.01Na0.01Se1,Pb0.98Ba0.01Na0.01Se1,724,43668,0.0010996,0.00016498,1.3412,0.64601,0.0000229001,0.0008198628
3503,10.1021/ja400069s,105,6(a),381,Pb0.98Ba0.01Na0.01Se1,Pb0.98Ba0.01Na0.01Se1,724.5,43560,0.0011006,0.00016522,1.3399,0.64698,0.0000229568,0.0008214046
3503,10.1021/ja400069s,105,6(a),381,Pb0.98Ba0.01Na0.01Se1,Pb0.98Ba0.01Na0.01Se1,725,43452,0.0011016,0.00016545,1.3386,0.64796,0.0000230139,0.0008229494
3503,10.1021/ja400069s,105,6(a),381,Pb0.98Ba0.01Na0.01Se1,Pb0.98Ba0.01Na0.01Se1,725.5,43344,0.0011026,0.00016569,1.3373,0.64893,0.0000230712,0.0008244971
3503,10.1021/ja400069s,105,6(a),381,Pb0.98Ba0.01Na0.01Se1,Pb0.98Ba0.01Na0.01Se1,726,43237,0.0011036,0.00016592,1.336,0.6499,0.0000231283,0.0008260479
3503,10.1021/ja400069s,105,6(a),381,Pb0.98Ba0.01Na0.01Se1,Pb0.98Ba0.01Na0.01Se1,726.5,43130,0.0011046,0.00016616,1.3347,0.65087,0.0000231857,0.0008276017
3503,10.1021/ja400069s,105,6(a),381,Pb0.98Ba0.01Na0.01Se1,Pb0.98Ba0.01Na0.01Se1,727,43024,0.0011056,0.0001664,1.3335,0.65184,0.0000232428,0.0008290964
3503,10.1021/ja400069s,105,6(a),381,Pb0.98Ba0.01Na0.01Se1,Pb0.98Ba0.01Na0.01Se1,727.5,42917,0.0011066,0.00016663,1.3322,0.65281,0.0000233008,0.0008306561
3503,10.1021/ja400069s,105,6(a),381,Pb0.98Ba0.01Na0.01Se1,Pb0.98Ba0.01Na0.01Se1,728,42811,0.0011076,0.00016687,1.3309,0.65378,0.0000233585,0.0008322188
3503,10.1021/ja400069s,105,6(a),381,Pb0.98Ba0.01Na0.01Se1,Pb0.98Ba0.01Na0.01Se1,728.5,42705,0.0011085,0.0001671,1.3296,0.65475,0.0000234165,0.0008337094
3503,10.1021/ja400069s,105,6(a),381,Pb0.98Ba0.01Na0.01Se1,Pb0.98Ba0.01Na0.01Se1,729,42599,0.0011095,0.00016734,1.3283,0.65573,0.0000234747,0.0008352782
3503,10.1021/ja400069s,105,6(a),381,Pb0.98Ba0.01Na0.01Se1,Pb0.98Ba0.01Na0.01Se1,729.5,42494,0.0011105,0.00016758,1.3271,0.6567,0.0000235327,0.000836787
3503,10.1021/ja400069s,105,6(a),381,Pb0.98Ba0.01Na0.01Se1,Pb0.98Ba0.01Na0.01Se1,730,42389,0.0011115,0.00016781,1.3258,0.65767,0.000023591,0.0008383617
3503,10.1021/ja400069s,105,6(a),381,Pb0.98Ba0.01Na0.01Se1,Pb0.98Ba0.01Na0.01Se1,730.5,42284,0.0011125,0.00016805,1.3245,0.65864,0.0000236496,0.0008399396
3503,10.1021/ja400069s,105,6(a),381,Pb0.98Ba0.01Na0.01Se1,Pb0.98Ba0.01Na0.01Se1,731,42180,0.0011135,0.00016829,1.3233,0.65961,0.0000237079,0.000841457
3503,10.1021/ja400069s,105,6(a),381,Pb0.98Ba0.01Na0.01Se1,Pb0.98Ba0.01Na0.01Se1,731.5,42075,0.0011145,0.00016852,1.322,0.66058,0.0000237671,0.0008430408
3503,10.1021/ja400069s,105,6(a),381,Pb0.98Ba0.01Na0.01Se1,Pb0.98Ba0.01Na0.01Se1,732,41971,0.0011155,0.00016876,1.3208,0.66155,0.000023826,0.0008445639
3503,10.1021/ja400069s,105,6(a),381,Pb0.98Ba0.01Na0.01Se1,Pb0.98Ba0.01Na0.01Se1,732.5,41867,0.0011165,0.000169,1.3195,0.66252,0.0000238852,0.0008461538
3503,10.1021/ja400069s,105,6(a),381,Pb0.98Ba0.01Na0.01Se1,Pb0.98Ba0.01Na0.01Se1,733,41764,0.0011175,0.00016924,1.3183,0.6635,0.0000239441,0.0008476826
3503,10.1021/ja400069s,105,6(a),381,Pb0.98Ba0.01Na0.01Se1,Pb0.98Ba0.01Na0.01Se1,733.5,41661,0.0011185,0.00016947,1.317,0.66447,0.0000240033,0.0008492787
3503,10.1021/ja400069s,105,6(a),381,Pb0.98Ba0.01Na0.01Se1,Pb0.98Ba0.01Na0.01Se1,734,41558,0.0011195,0.00016971,1.3158,0.66544,0.0000240628,0.0008508132