sid,DOI,figureid,fignum,sampleid,samplename,composition,Temperature,Electrical conductivity,Power factor,Seebeck coefficient,Thermal conductivity,ZT,Electrical resistivity,Figure of merit Z
3503,10.1021/ja400069s,105,6(a),381,Pb0.98Ba0.01Na0.01Se1,Pb0.98Ba0.01Na0.01Se1,734.5,41455,0.0011204,0.00016995,1.3145,0.66641,0.0000241225,0.0008523393
3503,10.1021/ja400069s,105,6(a),381,Pb0.98Ba0.01Na0.01Se1,Pb0.98Ba0.01Na0.01Se1,735,41353,0.0011214,0.00017018,1.3133,0.66738,0.000024182,0.0008538795
3503,10.1021/ja400069s,105,6(a),381,Pb0.98Ba0.01Na0.01Se1,Pb0.98Ba0.01Na0.01Se1,735.5,41251,0.0011224,0.00017042,1.3121,0.66835,0.0000242418,0.0008554226
3503,10.1021/ja400069s,105,6(a),381,Pb0.98Ba0.01Na0.01Se1,Pb0.98Ba0.01Na0.01Se1,736,41149,0.0011234,0.00017066,1.3108,0.66932,0.0000243019,0.0008570339
3503,10.1021/ja400069s,105,6(a),381,Pb0.98Ba0.01Na0.01Se1,Pb0.98Ba0.01Na0.01Se1,736.5,41047,0.0011244,0.0001709,1.3096,0.67029,0.0000243623,0.0008585828
3503,10.1021/ja400069s,105,6(a),381,Pb0.98Ba0.01Na0.01Se1,Pb0.98Ba0.01Na0.01Se1,737,40946,0.0011254,0.00017114,1.3084,0.67127,0.0000244224,0.0008601345
3503,10.1021/ja400069s,105,6(a),381,Pb0.98Ba0.01Na0.01Se1,Pb0.98Ba0.01Na0.01Se1,737.5,40845,0.0011264,0.00017137,1.3071,0.67224,0.0000244828,0.000861755
3503,10.1021/ja400069s,105,6(a),381,Pb0.98Ba0.01Na0.01Se1,Pb0.98Ba0.01Na0.01Se1,738,40744,0.0011274,0.00017161,1.3059,0.67321,0.0000245435,0.0008633127
3503,10.1021/ja400069s,105,6(a),381,Pb0.98Ba0.01Na0.01Se1,Pb0.98Ba0.01Na0.01Se1,738.5,40644,0.0011284,0.00017185,1.3047,0.67418,0.0000246039,0.0008648732
3503,10.1021/ja400069s,105,6(a),381,Pb0.98Ba0.01Na0.01Se1,Pb0.98Ba0.01Na0.01Se1,739,40543,0.0011294,0.00017209,1.3035,0.67515,0.0000246652,0.0008664365
3503,10.1021/ja400069s,105,6(a),381,Pb0.98Ba0.01Na0.01Se1,Pb0.98Ba0.01Na0.01Se1,739.5,40444,0.0011304,0.00017233,1.3023,0.67612,0.0000247255,0.0008680028
3503,10.1021/ja400069s,105,6(a),381,Pb0.98Ba0.01Na0.01Se1,Pb0.98Ba0.01Na0.01Se1,740,40344,0.0011314,0.00017256,1.3011,0.67709,0.0000247868,0.0008695719
3503,10.1021/ja400069s,105,6(a),381,Pb0.98Ba0.01Na0.01Se1,Pb0.98Ba0.01Na0.01Se1,740.5,40245,0.0011323,0.0001728,1.2999,0.67806,0.0000248478,0.000871067
3503,10.1021/ja400069s,105,6(a),381,Pb0.98Ba0.01Na0.01Se1,Pb0.98Ba0.01Na0.01Se1,741,40145,0.0011333,0.00017304,1.2987,0.67904,0.0000249097,0.0008726419
3503,10.1021/ja400069s,105,6(a),381,Pb0.98Ba0.01Na0.01Se1,Pb0.98Ba0.01Na0.01Se1,741.5,40047,0.0011343,0.00017328,1.2974,0.68001,0.0000249707,0.000874287
3503,10.1021/ja400069s,105,6(a),381,Pb0.98Ba0.01Na0.01Se1,Pb0.98Ba0.01Na0.01Se1,742,39948,0.0011353,0.00017352,1.2963,0.68098,0.0000250325,0.0008758004
3503,10.1021/ja400069s,105,6(a),381,Pb0.98Ba0.01Na0.01Se1,Pb0.98Ba0.01Na0.01Se1,742.5,39850,0.0011363,0.00017376,1.2951,0.68195,0.0000250941,0.000877384
3503,10.1021/ja400069s,105,6(a),381,Pb0.98Ba0.01Na0.01Se1,Pb0.98Ba0.01Na0.01Se1,743,39752,0.0011373,0.000174,1.2939,0.68292,0.000025156,0.0008789706
3503,10.1021/ja400069s,105,6(a),381,Pb0.98Ba0.01Na0.01Se1,Pb0.98Ba0.01Na0.01Se1,743.5,39654,0.0011383,0.00017423,1.2927,0.68389,0.0000252181,0.0008805601
3503,10.1021/ja400069s,105,6(a),381,Pb0.98Ba0.01Na0.01Se1,Pb0.98Ba0.01Na0.01Se1,744,39557,0.0011393,0.00017447,1.2915,0.68486,0.00002528,0.0008821525
3503,10.1021/ja400069s,105,6(a),381,Pb0.98Ba0.01Na0.01Se1,Pb0.98Ba0.01Na0.01Se1,744.5,39460,0.0011403,0.00017471,1.2903,0.68583,0.0000253421,0.000883748
3503,10.1021/ja400069s,105,6(a),381,Pb0.98Ba0.01Na0.01Se1,Pb0.98Ba0.01Na0.01Se1,745,39363,0.0011413,0.00017495,1.2891,0.68681,0.0000254046,0.0008853464
3503,10.1021/ja400069s,105,6(a),381,Pb0.98Ba0.01Na0.01Se1,Pb0.98Ba0.01Na0.01Se1,745.5,39266,0.0011423,0.00017519,1.2879,0.68778,0.0000254673,0.0008869477
3503,10.1021/ja400069s,105,6(a),381,Pb0.98Ba0.01Na0.01Se1,Pb0.98Ba0.01Na0.01Se1,746,39170,0.0011433,0.00017543,1.2868,0.68875,0.0000255297,0.0008884831
3503,10.1021/ja400069s,105,6(a),381,Pb0.98Ba0.01Na0.01Se1,Pb0.98Ba0.01Na0.01Se1,746.5,39074,0.0011442,0.00017567,1.2856,0.68972,0.0000255925,0.0008900124
3503,10.1021/ja400069s,105,6(a),381,Pb0.98Ba0.01Na0.01Se1,Pb0.98Ba0.01Na0.01Se1,747,38978,0.0011452,0.00017591,1.2844,0.69069,0.0000256555,0.0008916225
3503,10.1021/ja400069s,105,6(a),381,Pb0.98Ba0.01Na0.01Se1,Pb0.98Ba0.01Na0.01Se1,747.5,38883,0.0011462,0.00017615,1.2832,0.69166,0.0000257182,0.0008932357
3503,10.1021/ja400069s,105,6(a),381,Pb0.98Ba0.01Na0.01Se1,Pb0.98Ba0.01Na0.01Se1,748,38788,0.0011472,0.00017639,1.2821,0.69263,0.0000257812,0.000894782
3503,10.1021/ja400069s,105,6(a),381,Pb0.98Ba0.01Na0.01Se1,Pb0.98Ba0.01Na0.01Se1,748.5,38693,0.0011482,0.00017663,1.2809,0.6936,0.0000258445,0.000896401
3503,10.1021/ja400069s,105,6(a),381,Pb0.98Ba0.01Na0.01Se1,Pb0.98Ba0.01Na0.01Se1,749,38598,0.0011492,0.00017687,1.2797,0.69458,0.0000259081,0.000898023
3503,10.1021/ja400069s,105,6(a),381,Pb0.98Ba0.01Na0.01Se1,Pb0.98Ba0.01Na0.01Se1,749.5,38504,0.0011502,0.00017711,1.2786,0.69555,0.0000259713,0.0008995777
3503,10.1021/ja400069s,105,6(a),381,Pb0.98Ba0.01Na0.01Se1,Pb0.98Ba0.01Na0.01Se1,750,38410,0.0011512,0.00017735,1.2774,0.69652,0.0000260349,0.0009012056
3503,10.1021/ja400069s,105,6(a),381,Pb0.98Ba0.01Na0.01Se1,Pb0.98Ba0.01Na0.01Se1,750.5,38316,0.0011522,0.00017759,1.2763,0.69749,0.0000260988,0.0009027658
3503,10.1021/ja400069s,105,6(a),381,Pb0.98Ba0.01Na0.01Se1,Pb0.98Ba0.01Na0.01Se1,751,38223,0.0011532,0.00017783,1.2751,0.69846,0.0000261623,0.0009043997
3503,10.1021/ja400069s,105,6(a),381,Pb0.98Ba0.01Na0.01Se1,Pb0.98Ba0.01Na0.01Se1,751.5,38130,0.0011542,0.00017807,1.274,0.69943,0.0000262261,0.0009059655
3503,10.1021/ja400069s,105,6(a),381,Pb0.98Ba0.01Na0.01Se1,Pb0.98Ba0.01Na0.01Se1,752,38037,0.0011552,0.00017831,1.2728,0.7004,0.0000262902,0.0009076053
3503,10.1021/ja400069s,105,6(a),381,Pb0.98Ba0.01Na0.01Se1,Pb0.98Ba0.01Na0.01Se1,752.5,37945,0.0011562,0.00017855,1.2717,0.70137,0.0000263539,0.0009091767
3503,10.1021/ja400069s,105,6(a),381,Pb0.98Ba0.01Na0.01Se1,Pb0.98Ba0.01Na0.01Se1,753,37852,0.0011571,0.00017879,1.2706,0.70235,0.0000264187,0.0009106721
3503,10.1021/ja400069s,105,6(a),381,Pb0.98Ba0.01Na0.01Se1,Pb0.98Ba0.01Na0.01Se1,753.5,37760,0.0011581,0.00017903,1.2694,0.70332,0.0000264831,0.0009123208
3503,10.1021/ja400069s,105,6(a),381,Pb0.98Ba0.01Na0.01Se1,Pb0.98Ba0.01Na0.01Se1,754,37669,0.0011591,0.00017927,1.2683,0.70429,0.000026547,0.0009139005
3503,10.1021/ja400069s,105,6(a),381,Pb0.98Ba0.01Na0.01Se1,Pb0.98Ba0.01Na0.01Se1,754.5,37577,0.0011601,0.00017951,1.2672,0.70526,0.000026612,0.000915483
3503,10.1021/ja400069s,105,6(a),381,Pb0.98Ba0.01Na0.01Se1,Pb0.98Ba0.01Na0.01Se1,755,37486,0.0011611,0.00017975,1.266,0.70623,0.0000266766,0.0009171406
3503,10.1021/ja400069s,105,6(a),381,Pb0.98Ba0.01Na0.01Se1,Pb0.98Ba0.01Na0.01Se1,755.5,37396,0.0011621,0.00017999,1.2649,0.7072,0.0000267408,0.0009187288
3503,10.1021/ja400069s,105,6(a),381,Pb0.98Ba0.01Na0.01Se1,Pb0.98Ba0.01Na0.01Se1,756,37305,0.0011631,0.00018023,1.2638,0.70817,0.0000268061,0.0009203197
3503,10.1021/ja400069s,105,6(a),381,Pb0.98Ba0.01Na0.01Se1,Pb0.98Ba0.01Na0.01Se1,756.5,37215,0.0011641,0.00018047,1.2627,0.70914,0.0000268709,0.0009219134
3503,10.1021/ja400069s,105,6(a),381,Pb0.98Ba0.01Na0.01Se1,Pb0.98Ba0.01Na0.01Se1,757,37125,0.0011651,0.00018071,1.2615,0.71012,0.000026936,0.000923583
3503,10.1021/ja400069s,105,6(a),381,Pb0.98Ba0.01Na0.01Se1,Pb0.98Ba0.01Na0.01Se1,757.5,37036,0.0011661,0.00018095,1.2604,0.71109,0.0000270008,0.0009251825
3503,10.1021/ja400069s,105,6(a),381,Pb0.98Ba0.01Na0.01Se1,Pb0.98Ba0.01Na0.01Se1,758,36946,0.0011671,0.0001812,1.2593,0.71206,0.0000270665,0.0009267847
3503,10.1021/ja400069s,105,6(a),381,Pb0.98Ba0.01Na0.01Se1,Pb0.98Ba0.01Na0.01Se1,758.5,36857,0.0011681,0.00018144,1.2582,0.71303,0.0000271319,0.0009283898
3503,10.1021/ja400069s,105,6(a),381,Pb0.98Ba0.01Na0.01Se1,Pb0.98Ba0.01Na0.01Se1,759,36769,0.001169,0.00018168,1.2571,0.714,0.0000271968,0.0009299181
3503,10.1021/ja400069s,105,6(a),381,Pb0.98Ba0.01Na0.01Se1,Pb0.98Ba0.01Na0.01Se1,759.5,36680,0.00117,0.00018192,1.256,0.71497,0.0000272628,0.0009315287
3503,10.1021/ja400069s,105,6(a),381,Pb0.98Ba0.01Na0.01Se1,Pb0.98Ba0.01Na0.01Se1,760,36592,0.001171,0.00018216,1.2549,0.71594,0.0000273284,0.0009331421
3503,10.1021/ja400069s,105,6(a),381,Pb0.98Ba0.01Na0.01Se1,Pb0.98Ba0.01Na0.01Se1,760.5,36505,0.001172,0.0001824,1.2538,0.71691,0.0000273935,0.0009347583
3503,10.1021/ja400069s,105,6(a),381,Pb0.98Ba0.01Na0.01Se1,Pb0.98Ba0.01Na0.01Se1,761,36417,0.001173,0.00018264,1.2527,0.71789,0.0000274597,0.0009363774
3503,10.1021/ja400069s,105,6(a),381,Pb0.98Ba0.01Na0.01Se1,Pb0.98Ba0.01Na0.01Se1,761.5,36330,0.001174,0.00018288,1.2516,0.71886,0.0000275255,0.0009379994
3503,10.1021/ja400069s,105,6(a),381,Pb0.98Ba0.01Na0.01Se1,Pb0.98Ba0.01Na0.01Se1,762,36243,0.001175,0.00018313,1.2505,0.71983,0.0000275915,0.0009396242
3503,10.1021/ja400069s,105,6(a),381,Pb0.98Ba0.01Na0.01Se1,Pb0.98Ba0.01Na0.01Se1,762.5,36157,0.001176,0.00018337,1.2494,0.7208,0.0000276572,0.0009412518
3503,10.1021/ja400069s,105,6(a),381,Pb0.98Ba0.01Na0.01Se1,Pb0.98Ba0.01Na0.01Se1,763,36071,0.001177,0.00018361,1.2483,0.72177,0.0000277231,0.0009428823
3503,10.1021/ja400069s,105,6(a),381,Pb0.98Ba0.01Na0.01Se1,Pb0.98Ba0.01Na0.01Se1,763.5,35985,0.001178,0.00018385,1.2473,0.72274,0.0000277894,0.00094444
3503,10.1021/ja400069s,105,6(a),381,Pb0.98Ba0.01Na0.01Se1,Pb0.98Ba0.01Na0.01Se1,764,35899,0.001179,0.00018409,1.2462,0.72371,0.0000278559,0.0009460761
3503,10.1021/ja400069s,105,6(a),381,Pb0.98Ba0.01Na0.01Se1,Pb0.98Ba0.01Na0.01Se1,764.5,35814,0.00118,0.00018434,1.2451,0.72468,0.000027922,0.000947715
3503,10.1021/ja400069s,105,6(a),381,Pb0.98Ba0.01Na0.01Se1,Pb0.98Ba0.01Na0.01Se1,765,35729,0.0011809,0.00018458,1.244,0.72566,0.0000279885,0.0009492765
3503,10.1021/ja400069s,105,6(a),381,Pb0.98Ba0.01Na0.01Se1,Pb0.98Ba0.01Na0.01Se1,765.5,35644,0.0011819,0.00018482,1.243,0.72663,0.0000280552,0.0009508447
3503,10.1021/ja400069s,105,6(a),381,Pb0.98Ba0.01Na0.01Se1,Pb0.98Ba0.01Na0.01Se1,766,35560,0.0011829,0.00018506,1.2419,0.7276,0.0000281215,0.0009524921
3503,10.1021/ja400069s,105,6(a),381,Pb0.98Ba0.01Na0.01Se1,Pb0.98Ba0.01Na0.01Se1,766.5,35476,0.0011839,0.0001853,1.2408,0.72857,0.0000281881,0.0009541425
3503,10.1021/ja400069s,105,6(a),381,Pb0.98Ba0.01Na0.01Se1,Pb0.98Ba0.01Na0.01Se1,767,35392,0.0011849,0.00018555,1.2398,0.72954,0.000028255,0.0009557187
3503,10.1021/ja400069s,105,6(a),381,Pb0.98Ba0.01Na0.01Se1,Pb0.98Ba0.01Na0.01Se1,767.5,35309,0.0011859,0.00018579,1.2387,0.73051,0.0000283214,0.0009573747
3503,10.1021/ja400069s,105,6(a),381,Pb0.98Ba0.01Na0.01Se1,Pb0.98Ba0.01Na0.01Se1,768,35226,0.0011869,0.00018603,1.2376,0.73148,0.0000283881,0.0009590336
3503,10.1021/ja400069s,105,6(a),381,Pb0.98Ba0.01Na0.01Se1,Pb0.98Ba0.01Na0.01Se1,768.5,35143,0.0011879,0.00018627,1.2366,0.73245,0.0000284552,0.0009606178
3503,10.1021/ja400069s,105,6(a),381,Pb0.98Ba0.01Na0.01Se1,Pb0.98Ba0.01Na0.01Se1,769,35061,0.0011889,0.00018652,1.2355,0.73343,0.0000285217,0.0009622825
3503,10.1021/ja400069s,105,6(a),381,Pb0.98Ba0.01Na0.01Se1,Pb0.98Ba0.01Na0.01Se1,769.5,34979,0.0011899,0.00018676,1.2345,0.7344,0.0000285886,0.000963872
3503,10.1021/ja400069s,105,6(a),381,Pb0.98Ba0.01Na0.01Se1,Pb0.98Ba0.01Na0.01Se1,770,34897,0.0011909,0.000187,1.2334,0.73537,0.0000286558,0.0009655424
3503,10.1021/ja400069s,105,6(a),381,Pb0.98Ba0.01Na0.01Se1,Pb0.98Ba0.01Na0.01Se1,770.5,34816,0.0011919,0.00018724,1.2324,0.73634,0.0000287224,0.0009671373
3503,10.1021/ja400069s,105,6(a),381,Pb0.98Ba0.01Na0.01Se1,Pb0.98Ba0.01Na0.01Se1,771,34735,0.0011929,0.00018749,1.2313,0.73731,0.0000287894,0.0009688134
3503,10.1021/ja400069s,105,6(a),381,Pb0.98Ba0.01Na0.01Se1,Pb0.98Ba0.01Na0.01Se1,771.5,34654,0.0011938,0.00018773,1.2303,0.73828,0.0000288567,0.0009703324
3503,10.1021/ja400069s,105,6(a),381,Pb0.98Ba0.01Na0.01Se1,Pb0.98Ba0.01Na0.01Se1,772,34573,0.0011948,0.00018797,1.2293,0.73925,0.0000289243,0.0009719352
3503,10.1021/ja400069s,105,6(a),381,Pb0.98Ba0.01Na0.01Se1,Pb0.98Ba0.01Na0.01Se1,772.5,34493,0.0011958,0.00018821,1.2282,0.74023,0.0000289914,0.0009736199
3503,10.1021/ja400069s,105,6(a),381,Pb0.98Ba0.01Na0.01Se1,Pb0.98Ba0.01Na0.01Se1,773,34413,0.0011968,0.00018846,1.2272,0.7412,0.0000290588,0.0009752282
3503,10.1021/ja400069s,105,6(a),381,Pb0.98Ba0.01Na0.01Se1,Pb0.98Ba0.01Na0.01Se1,773.5,34334,0.0011978,0.0001887,1.2262,0.74217,0.0000291256,0.000976839
3503,10.1021/ja400069s,105,6(a),381,Pb0.98Ba0.01Na0.01Se1,Pb0.98Ba0.01Na0.01Se1,774,34255,0.0011988,0.00018894,1.2251,0.74314,0.0000291928,0.0009785324
3503,10.1021/ja400069s,105,6(a),381,Pb0.98Ba0.01Na0.01Se1,Pb0.98Ba0.01Na0.01Se1,774.5,34176,0.0011998,0.00018919,1.2241,0.74411,0.0000292603,0.0009801487
3503,10.1021/ja400069s,105,6(a),381,Pb0.98Ba0.01Na0.01Se1,Pb0.98Ba0.01Na0.01Se1,775,34098,0.0012008,0.00018943,1.2231,0.74508,0.0000293272,0.0009817676
3503,10.1021/ja400069s,105,6(a),381,Pb0.98Ba0.01Na0.01Se1,Pb0.98Ba0.01Na0.01Se1,775.5,34019,0.0012018,0.00018967,1.2221,0.74605,0.0000293953,0.0009833892
3503,10.1021/ja400069s,105,6(a),381,Pb0.98Ba0.01Na0.01Se1,Pb0.98Ba0.01Na0.01Se1,776,33942,0.0012028,0.00018992,1.2211,0.74702,0.000029462,0.0009850135
3503,10.1021/ja400069s,105,6(a),381,Pb0.98Ba0.01Na0.01Se1,Pb0.98Ba0.01Na0.01Se1,776.5,33864,0.0012038,0.00019016,1.2201,0.748,0.0000295299,0.0009866404
3503,10.1021/ja400069s,105,6(a),381,Pb0.98Ba0.01Na0.01Se1,Pb0.98Ba0.01Na0.01Se1,777,33787,0.0012048,0.0001904,1.219,0.74897,0.0000295972,0.0009883511
3503,10.1021/ja400069s,105,6(a),381,Pb0.98Ba0.01Na0.01Se1,Pb0.98Ba0.01Na0.01Se1,777.5,33710,0.0012057,0.00019065,1.218,0.74994,0.0000296648,0.0009899015
3503,10.1021/ja400069s,105,6(a),381,Pb0.98Ba0.01Na0.01Se1,Pb0.98Ba0.01Na0.01Se1,778,33634,0.0012067,0.00019089,1.217,0.75091,0.0000297318,0.0009915366
3503,10.1021/ja400069s,105,6(a),381,Pb0.98Ba0.01Na0.01Se1,Pb0.98Ba0.01Na0.01Se1,778.5,33558,0.0012077,0.00019113,1.216,0.75188,0.0000297992,0.0009931743
3503,10.1021/ja400069s,105,6(a),381,Pb0.98Ba0.01Na0.01Se1,Pb0.98Ba0.01Na0.01Se1,779,33482,0.0012087,0.00019138,1.215,0.75285,0.0000298668,0.0009948148
3503,10.1021/ja400069s,105,6(a),381,Pb0.98Ba0.01Na0.01Se1,Pb0.98Ba0.01Na0.01Se1,779.5,33407,0.0012097,0.00019162,1.214,0.75382,0.0000299338,0.000996458
3503,10.1021/ja400069s,105,6(a),381,Pb0.98Ba0.01Na0.01Se1,Pb0.98Ba0.01Na0.01Se1,780,33332,0.0012107,0.00019186,1.213,0.75479,0.0000300012,0.0009981039
3503,10.1021/ja400069s,105,6(a),381,Pb0.98Ba0.01Na0.01Se1,Pb0.98Ba0.01Na0.01Se1,780.5,33257,0.0012117,0.00019211,1.212,0.75577,0.0000300689,0.0009997525
3503,10.1021/ja400069s,105,6(a),381,Pb0.98Ba0.01Na0.01Se1,Pb0.98Ba0.01Na0.01Se1,781,33183,0.0012127,0.00019235,1.2111,0.75674,0.0000301359,0.0010013211
3503,10.1021/ja400069s,105,6(a),381,Pb0.98Ba0.01Na0.01Se1,Pb0.98Ba0.01Na0.01Se1,781.5,33109,0.0012137,0.0001926,1.2101,0.75771,0.0000302033,0.001002975
3503,10.1021/ja400069s,105,6(a),381,Pb0.98Ba0.01Na0.01Se1,Pb0.98Ba0.01Na0.01Se1,782,33035,0.0012147,0.00019284,1.2091,0.75868,0.0000302709,0.0010046315
3503,10.1021/ja400069s,105,6(a),381,Pb0.98Ba0.01Na0.01Se1,Pb0.98Ba0.01Na0.01Se1,782.5,32962,0.0012157,0.00019308,1.2081,0.75965,0.000030338,0.0010062909
3503,10.1021/ja400069s,105,6(a),381,Pb0.98Ba0.01Na0.01Se1,Pb0.98Ba0.01Na0.01Se1,783,32889,0.0012167,0.00019333,1.2071,0.76062,0.0000304053,0.0010079529
3503,10.1021/ja400069s,105,6(a),381,Pb0.98Ba0.01Na0.01Se1,Pb0.98Ba0.01Na0.01Se1,783.5,32816,0.0012176,0.00019357,1.2062,0.76159,0.0000304729,0.0010094512
3503,10.1021/ja400069s,105,6(a),381,Pb0.98Ba0.01Na0.01Se1,Pb0.98Ba0.01Na0.01Se1,784,32744,0.0012186,0.00019382,1.2052,0.76256,0.0000305399,0.0010111185
3503,10.1021/ja400069s,105,6(a),381,Pb0.98Ba0.01Na0.01Se1,Pb0.98Ba0.01Na0.01Se1,784.5,32672,0.0012196,0.00019406,1.2042,0.76354,0.0000306072,0.0010127886
3503,10.1021/ja400069s,105,6(a),381,Pb0.98Ba0.01Na0.01Se1,Pb0.98Ba0.01Na0.01Se1,785,32600,0.0012206,0.0001943,1.2032,0.76451,0.0000306748,0.0010144614
3503,10.1021/ja400069s,105,6(a),381,Pb0.98Ba0.01Na0.01Se1,Pb0.98Ba0.01Na0.01Se1,785.5,32529,0.0012216,0.00019455,1.2023,0.76548,0.0000307418,0.0010160526
3503,10.1021/ja400069s,105,6(a),381,Pb0.98Ba0.01Na0.01Se1,Pb0.98Ba0.01Na0.01Se1,786,32458,0.0012226,0.00019479,1.2013,0.76645,0.000030809,0.0010177308
3503,10.1021/ja400069s,105,6(a),381,Pb0.98Ba0.01Na0.01Se1,Pb0.98Ba0.01Na0.01Se1,786.5,32388,0.0012236,0.00019504,1.2003,0.76742,0.0000308756,0.0010194118
3503,10.1021/ja400069s,105,6(a),381,Pb0.98Ba0.01Na0.01Se1,Pb0.98Ba0.01Na0.01Se1,787,32318,0.0012246,0.00019528,1.1994,0.76839,0.0000309425,0.0010210105
3503,10.1021/ja400069s,105,6(a),381,Pb0.98Ba0.01Na0.01Se1,Pb0.98Ba0.01Na0.01Se1,787.5,32248,0.0012256,0.00019553,1.1984,0.76936,0.0000310097,0.0010226969
3503,10.1021/ja400069s,105,6(a),381,Pb0.98Ba0.01Na0.01Se1,Pb0.98Ba0.01Na0.01Se1,788,32179,0.0012266,0.00019577,1.1975,0.77033,0.0000310762,0.0010243006
3503,10.1021/ja400069s,105,6(a),381,Pb0.98Ba0.01Na0.01Se1,Pb0.98Ba0.01Na0.01Se1,788.5,32110,0.0012276,0.00019602,1.1965,0.77131,0.0000311429,0.0010259925
3503,10.1021/ja400069s,105,6(a),381,Pb0.98Ba0.01Na0.01Se1,Pb0.98Ba0.01Na0.01Se1,789,32041,0.0012286,0.00019626,1.1956,0.77228,0.00003121,0.0010276012
3503,10.1021/ja400069s,105,6(a),381,Pb0.98Ba0.01Na0.01Se1,Pb0.98Ba0.01Na0.01Se1,789.5,31973,0.0012295,0.00019651,1.1946,0.77325,0.0000312764,0.0010292148
3503,10.1021/ja400069s,105,6(a),381,Pb0.98Ba0.01Na0.01Se1,Pb0.98Ba0.01Na0.01Se1,790,31905,0.0012305,0.00019675,1.1937,0.77422,0.000031343,0.0010308285
3503,10.1021/ja400069s,105,6(a),381,Pb0.98Ba0.01Na0.01Se1,Pb0.98Ba0.01Na0.01Se1,790.5,31838,0.0012315,0.000197,1.1928,0.77519,0.000031409,0.0010324447
3503,10.1021/ja400069s,105,6(a),381,Pb0.98Ba0.01Na0.01Se1,Pb0.98Ba0.01Na0.01Se1,791,31770,0.0012325,0.00019724,1.1918,0.77616,0.0000314762,0.00103415
3503,10.1021/ja400069s,105,6(a),381,Pb0.98Ba0.01Na0.01Se1,Pb0.98Ba0.01Na0.01Se1,791.5,31704,0.0012335,0.00019748,1.1909,0.77713,0.0000315418,0.0010357713
3503,10.1021/ja400069s,105,6(a),381,Pb0.98Ba0.01Na0.01Se1,Pb0.98Ba0.01Na0.01Se1,792,31637,0.0012345,0.00019773,1.19,0.7781,0.0000316086,0.001037395
3503,10.1021/ja400069s,105,6(a),381,Pb0.98Ba0.01Na0.01Se1,Pb0.98Ba0.01Na0.01Se1,792.5,31571,0.0012355,0.00019797,1.189,0.77908,0.0000316746,0.0010391085
3503,10.1021/ja400069s,105,6(a),381,Pb0.98Ba0.01Na0.01Se1,Pb0.98Ba0.01Na0.01Se1,793,31506,0.0012365,0.00019822,1.1881,0.78005,0.00003174,0.0010407373
3503,10.1021/ja400069s,105,6(a),381,Pb0.98Ba0.01Na0.01Se1,Pb0.98Ba0.01Na0.01Se1,793.5,31441,0.0012375,0.00019846,1.1872,0.78102,0.0000318056,0.0010423686
3503,10.1021/ja400069s,105,6(a),381,Pb0.98Ba0.01Na0.01Se1,Pb0.98Ba0.01Na0.01Se1,794,31376,0.0012385,0.00019871,1.1863,0.78199,0.0000318715,0.0010440024
3503,10.1021/ja400069s,105,6(a),381,Pb0.98Ba0.01Na0.01Se1,Pb0.98Ba0.01Na0.01Se1,794.5,31311,0.0012395,0.00019895,1.1853,0.78296,0.0000319377,0.0010457268
3503,10.1021/ja400069s,105,6(a),381,Pb0.98Ba0.01Na0.01Se1,Pb0.98Ba0.01Na0.01Se1,795,31247,0.0012405,0.0001992,1.1844,0.78393,0.0000320031,0.0010473658
3503,10.1021/ja400069s,105,6(a),381,Pb0.98Ba0.01Na0.01Se1,Pb0.98Ba0.01Na0.01Se1,795.5,31183,0.0012415,0.00019945,1.1835,0.7849,0.0000320688,0.0010490072
3503,10.1021/ja400069s,105,6(a),381,Pb0.98Ba0.01Na0.01Se1,Pb0.98Ba0.01Na0.01Se1,796,31120,0.0012424,0.00019969,1.1826,0.78587,0.0000321337,0.0010505665
3503,10.1021/ja400069s,105,6(a),381,Pb0.98Ba0.01Na0.01Se1,Pb0.98Ba0.01Na0.01Se1,796.5,31057,0.0012434,0.00019994,1.1817,0.78685,0.0000321989,0.0010522129
3503,10.1021/ja400069s,105,6(a),381,Pb0.98Ba0.01Na0.01Se1,Pb0.98Ba0.01Na0.01Se1,797,30995,0.0012444,0.00020018,1.1808,0.78782,0.0000322633,0.0010538618
3503,10.1021/ja400069s,105,6(a),381,Pb0.98Ba0.01Na0.01Se1,Pb0.98Ba0.01Na0.01Se1,797.5,30933,0.0012454,0.00020043,1.1799,0.78879,0.0000323279,0.0010555132
3503,10.1021/ja400069s,105,6(a),381,Pb0.98Ba0.01Na0.01Se1,Pb0.98Ba0.01Na0.01Se1,798,30871,0.0012464,0.00020067,1.179,0.78976,0.0000323929,0.0010571671
3503,10.1021/ja400069s,105,6(a),381,Pb0.98Ba0.01Na0.01Se1,Pb0.98Ba0.01Na0.01Se1,798.5,30810,0.0012474,0.00020092,1.1781,0.79073,0.000032457,0.0010588235
3503,10.1021/ja400069s,105,6(a),381,Pb0.98Ba0.01Na0.01Se1,Pb0.98Ba0.01Na0.01Se1,799,30749,0.0012484,0.00020116,1.1772,0.7917,0.0000325214,0.0010604825