sid,DOI,figureid,fignum,sampleid,samplename,composition,Temperature,Electrical resistivity,Hall movility,Lattice thermal conductivity,Power factor,Seebeck coefficient,Thermal conductivity,ZT,Electrical conductivity,Figure of merit Z
4605,10.1039/c4cp01294a,25686,2(a),32003,(In2Te3)x(GeTe)3-3x_ x=0.00,(GeTe)3,50,-7.56e-8,0.018001,,-0.00025637,-0.000012675,,,-13225064.141561085,
4605,10.1039/c4cp01294a,25686,2(a),32003,(In2Te3)x(GeTe)3-3x_ x=0.00,(GeTe)3,100,2.965e-7,0.015521,,0.000039305,-0.0000012425,,,3372908.796546141,
4605,10.1039/c4cp01294a,25686,2(a),32003,(In2Te3)x(GeTe)3-3x_ x=0.00,(GeTe)3,150,6.686e-7,0.013042,,0.00033498,0.00001019,,,1495707.319991624,
4605,10.1039/c4cp01294a,25686,2(a),32003,(In2Te3)x(GeTe)3-3x_ x=0.00,(GeTe)3,200,0.0000010407,0.010563,,0.00063066,0.000021622,,,960891.7075045642,
4605,10.1039/c4cp01294a,25686,2(a),32003,(In2Te3)x(GeTe)3-3x_ x=0.00,(GeTe)3,250,0.0000014128,0.0080834,,0.00092634,0.000033054,,,707814.2695356738,
4605,10.1039/c4cp01294a,25686,2(a),32003,(In2Te3)x(GeTe)3-3x_ x=0.00,(GeTe)3,300,0.0000017849,,,0.001222,0.000044486,,,560255.4764972827,
4605,10.1039/c4cp01294a,25686,2(a),32003,(In2Te3)x(GeTe)3-3x_ x=0.00,(GeTe)3,350,0.000002157,,1.5854,0.0015177,0.000055918,6.6543,-0.037242,463606.8613815485,0.0002280781
4605,10.1039/c4cp01294a,25686,2(a),32003,(In2Te3)x(GeTe)3-3x_ x=0.00,(GeTe)3,400,0.0000025291,,1.5205,0.0018134,0.000067351,6.2254,0.080287,395397.5722589063,0.0002912905
4605,10.1039/c4cp01294a,25686,2(a),32003,(In2Te3)x(GeTe)3-3x_ x=0.00,(GeTe)3,450,0.0000029012,,1.4556,0.0021091,0.000078783,5.7965,0.19782,344684.9579484352,0.0003638575
4605,10.1039/c4cp01294a,25686,2(a),32003,(In2Te3)x(GeTe)3-3x_ x=0.00,(GeTe)3,500,0.0000032733,,1.3908,0.0024047,0.000090215,5.3676,0.31534,305502.0926893349,0.0004480028
4605,10.1039/c4cp01294a,25686,2(a),32003,(In2Te3)x(GeTe)3-3x_ x=0.00,(GeTe)3,550,0.0000036454,,1.3259,0.0027004,0.00010165,4.9387,0.43287,274318.3189773413,0.0005467836
4605,10.1039/c4cp01294a,25686,2(a),32003,(In2Te3)x(GeTe)3-3x_ x=0.00,(GeTe)3,600,0.0000040175,,1.261,0.0029961,0.00011308,4.5098,0.5504,248911.0143123833,0.0006643532
4605,10.1039/c4cp01294a,25686,2(a),32003,(In2Te3)x(GeTe)3-3x_ x=0.00,(GeTe)3,650,0.0000043896,,1.1961,0.0032918,0.00012451,4.081,0.66793,227811.190085657,0.000806616
4605,10.1039/c4cp01294a,25686,2(a),32003,(In2Te3)x(GeTe)3-3x_ x=0.00,(GeTe)3,700,0.0000047617,,1.1312,0.0035874,0.00013594,3.6521,0.78546,210009.0303883067,0.0009822842
4605,10.1039/c4cp01294a,25686,2(a),32003,(In2Te3)x(GeTe)3-3x_ x=0.00,(GeTe)3,750,0.0000051338,,1.0664,0.0038831,0.00014738,3.2232,0.90299,194787.4868518446,0.0012047344
4605,10.1039/c4cp01294a,25686,2(a),32003,(In2Te3)x(GeTe)3-3x_ x=0.00,(GeTe)3,800,0.0000055059,,1.0015,0.0041788,0.00015881,2.7943,1.0205,181623.3494978114,0.0014954729
4605,10.1039/c4cp01294a,25686,2(a),32004,(In2Te3)x(GeTe)3-3x_ x=0.05,(In2Te3)0.05(GeTe)2.85,50,0.0000021139,0.0037083,,0.000022532,0.000013084,,,473059.2743270731,
4605,10.1039/c4cp01294a,25686,2(a),32004,(In2Te3)x(GeTe)3-3x_ x=0.05,(In2Te3)0.05(GeTe)2.85,100,0.000002477,0.0034798,,0.00030913,0.000024593,,,403714.1703673798,
4605,10.1039/c4cp01294a,25686,2(a),32004,(In2Te3)x(GeTe)3-3x_ x=0.05,(In2Te3)0.05(GeTe)2.85,150,0.0000028401,0.0032513,,0.00059574,0.000036102,,,352100.2781592197,
4605,10.1039/c4cp01294a,25686,2(a),32004,(In2Te3)x(GeTe)3-3x_ x=0.05,(In2Te3)0.05(GeTe)2.85,200,0.0000032032,0.0030228,,0.00088234,0.000047611,,,312187.8121878122,
4605,10.1039/c4cp01294a,25686,2(a),32004,(In2Te3)x(GeTe)3-3x_ x=0.05,(In2Te3)0.05(GeTe)2.85,250,0.0000035663,0.0027943,,0.0011689,0.00005912,,,280402.6582171999,
4605,10.1039/c4cp01294a,25686,2(a),32004,(In2Te3)x(GeTe)3-3x_ x=0.05,(In2Te3)0.05(GeTe)2.85,300,0.0000039294,,,0.0014555,0.000070629,,,254491.7799155087,
4605,10.1039/c4cp01294a,25686,2(a),32004,(In2Te3)x(GeTe)3-3x_ x=0.05,(In2Te3)0.05(GeTe)2.85,350,0.0000042925,,0.82511,0.0017421,0.000082138,2.7146,0.22784,232964.47291788,0.000641752
4605,10.1039/c4cp01294a,25686,2(a),32004,(In2Te3)x(GeTe)3-3x_ x=0.05,(In2Te3)0.05(GeTe)2.85,400,0.0000046556,,0.79691,0.0020288,0.000093647,2.655,0.35886,214795.085488444,0.0007641431
4605,10.1039/c4cp01294a,25686,2(a),32004,(In2Te3)x(GeTe)3-3x_ x=0.05,(In2Te3)0.05(GeTe)2.85,450,0.0000050186,,0.7687,0.0023154,0.00010516,2.5953,0.48987,199258.7574223887,0.0008921512
4605,10.1039/c4cp01294a,25686,2(a),32004,(In2Te3)x(GeTe)3-3x_ x=0.05,(In2Te3)0.05(GeTe)2.85,500,0.0000053817,,0.74049,0.002602,0.00011666,2.5357,0.62089,185814.8912053812,0.0010261466
4605,10.1039/c4cp01294a,25686,2(a),32004,(In2Te3)x(GeTe)3-3x_ x=0.05,(In2Te3)0.05(GeTe)2.85,550,0.0000057448,,0.71228,0.0028886,0.00012817,2.476,0.75191,174070.4637237154,0.0011666397
4605,10.1039/c4cp01294a,25686,2(a),32004,(In2Te3)x(GeTe)3-3x_ x=0.05,(In2Te3)0.05(GeTe)2.85,600,0.0000061079,,0.68407,0.0031752,0.00013968,2.4163,0.88292,163722.3923115965,0.0013140752
4605,10.1039/c4cp01294a,25686,2(a),32004,(In2Te3)x(GeTe)3-3x_ x=0.05,(In2Te3)0.05(GeTe)2.85,650,0.000006471,,0.65586,0.0034618,0.00015119,2.3567,1.0139,154535.6204605161,0.0014689184
4605,10.1039/c4cp01294a,25686,2(a),32004,(In2Te3)x(GeTe)3-3x_ x=0.05,(In2Te3)0.05(GeTe)2.85,700,0.0000068341,,0.62765,0.0037484,0.0001627,2.297,1.145,146325.0464582022,0.0016318677
4605,10.1039/c4cp01294a,25686,2(a),32004,(In2Te3)x(GeTe)3-3x_ x=0.05,(In2Te3)0.05(GeTe)2.85,750,0.0000071972,,0.59945,0.004035,0.00017421,2.2374,1.276,138942.9222475407,0.0018034326
4605,10.1039/c4cp01294a,25686,2(a),32004,(In2Te3)x(GeTe)3-3x_ x=0.05,(In2Te3)0.05(GeTe)2.85,800,0.0000075603,,0.57124,0.0043216,0.00018572,2.1777,1.407,132269.8834702327,0.001984479
4605,10.1039/c4cp01294a,25686,2(a),32005,(In2Te3)x(GeTe)3-3x_ x=0.10,(In2Te3)0.1(GeTe)2.7,50,0.0000068439,0.0012959,,0.00011213,0.000032243,,,146115.5189292655,
4605,10.1039/c4cp01294a,25686,2(a),32005,(In2Te3)x(GeTe)3-3x_ x=0.10,(In2Te3)0.1(GeTe)2.7,100,0.0000071489,0.0013284,,0.00032621,0.000042888,,,139881.6601155422,
4605,10.1039/c4cp01294a,25686,2(a),32005,(In2Te3)x(GeTe)3-3x_ x=0.10,(In2Te3)0.1(GeTe)2.7,150,0.0000074342,0.001361,,0.00054029,0.000053534,,,134513.4647978263,
4605,10.1039/c4cp01294a,25686,2(a),32005,(In2Te3)x(GeTe)3-3x_ x=0.10,(In2Te3)0.1(GeTe)2.7,200,0.0000076999,0.0013936,,0.00075438,0.000064179,,,129871.8165170976,
4605,10.1039/c4cp01294a,25686,2(a),32005,(In2Te3)x(GeTe)3-3x_ x=0.10,(In2Te3)0.1(GeTe)2.7,250,0.0000079459,0.0014261,,0.00096846,0.000074825,,,125851.0678463107,
4605,10.1039/c4cp01294a,25686,2(a),32005,(In2Te3)x(GeTe)3-3x_ x=0.10,(In2Te3)0.1(GeTe)2.7,300,0.0000081724,,,0.0011825,0.00008547,,,122363.0757182713,
4605,10.1039/c4cp01294a,25686,2(a),32005,(In2Te3)x(GeTe)3-3x_ x=0.10,(In2Te3)0.1(GeTe)2.7,350,0.0000083791,,0.77285,0.0013966,0.000096116,1.5036,0.42513,119344.5596782471,0.0009288375
4605,10.1039/c4cp01294a,25686,2(a),32005,(In2Te3)x(GeTe)3-3x_ x=0.10,(In2Te3)0.1(GeTe)2.7,400,0.0000085663,,0.76234,0.0016107,0.00010676,1.5731,0.50634,116736.5140142185,0.0010239018
4605,10.1039/c4cp01294a,25686,2(a),32005,(In2Te3)x(GeTe)3-3x_ x=0.10,(In2Te3)0.1(GeTe)2.7,450,0.0000087338,,0.75183,0.0018248,0.00011741,1.6426,0.58755,114497.6985962582,0.0011109217
4605,10.1039/c4cp01294a,25686,2(a),32005,(In2Te3)x(GeTe)3-3x_ x=0.10,(In2Te3)0.1(GeTe)2.7,500,0.0000088817,,0.74132,0.0020389,0.00012805,1.7121,0.66876,112591.0580181722,0.0011908767
4605,10.1039/c4cp01294a,25686,2(a),32005,(In2Te3)x(GeTe)3-3x_ x=0.10,(In2Te3)0.1(GeTe)2.7,550,0.00000901,,0.73081,0.002253,0.0001387,1.7816,0.74997,110987.7913429523,0.0012645936
4605,10.1039/c4cp01294a,25686,2(a),32005,(In2Te3)x(GeTe)3-3x_ x=0.10,(In2Te3)0.1(GeTe)2.7,600,0.0000091186,,0.7203,0.002467,0.00014934,1.8511,0.83118,109665.9574934749,0.0013327211
4605,10.1039/c4cp01294a,25686,2(a),32005,(In2Te3)x(GeTe)3-3x_ x=0.10,(In2Te3)0.1(GeTe)2.7,650,0.0000092076,,0.70979,0.0026811,0.00015999,1.9206,0.91239,108605.9342282462,0.00139597
4605,10.1039/c4cp01294a,25686,2(a),32005,(In2Te3)x(GeTe)3-3x_ x=0.10,(In2Te3)0.1(GeTe)2.7,700,0.0000092769,,0.69928,0.0028952,0.00017063,1.9902,0.9936,107794.6296715498,0.0014547282
4605,10.1039/c4cp01294a,25686,2(a),32005,(In2Te3)x(GeTe)3-3x_ x=0.10,(In2Te3)0.1(GeTe)2.7,750,0.0000093266,,0.68877,0.0031093,0.00018128,2.0597,1.0748,107220.2088649669,0.0015095888
4605,10.1039/c4cp01294a,25686,2(a),32005,(In2Te3)x(GeTe)3-3x_ x=0.10,(In2Te3)0.1(GeTe)2.7,800,0.0000093567,,0.67826,0.0033234,0.00019193,2.1292,1.156,106875.2872273344,0.0015608679
4605,10.1039/c4cp01294a,25686,2(a),32006,(In2Te3)x(GeTe)3-3x_ x=0.15,(In2Te3)0.15(GeTe)2.55,50,0.000018585,0.0004619,,0.00038621,0.000064706,,,53806.8334678504,
4605,10.1039/c4cp01294a,25686,2(a),32006,(In2Te3)x(GeTe)3-3x_ x=0.15,(In2Te3)0.15(GeTe)2.55,100,0.000018074,0.00044569,,0.00054279,0.000073783,,,55328.0956069492,
4605,10.1039/c4cp01294a,25686,2(a),32006,(In2Te3)x(GeTe)3-3x_ x=0.15,(In2Te3)0.15(GeTe)2.55,150,0.000017564,0.00042949,,0.00069938,0.00008286,,,56934.6390343885,
4605,10.1039/c4cp01294a,25686,2(a),32006,(In2Te3)x(GeTe)3-3x_ x=0.15,(In2Te3)0.15(GeTe)2.55,200,0.000017053,0.00041329,,0.00085596,0.000091938,,,58640.7083797572,
4605,10.1039/c4cp01294a,25686,2(a),32006,(In2Te3)x(GeTe)3-3x_ x=0.15,(In2Te3)0.15(GeTe)2.55,250,0.000016543,0.00039709,,0.0010125,0.00010102,,,60448.5280783413,
4605,10.1039/c4cp01294a,25686,2(a),32006,(In2Te3)x(GeTe)3-3x_ x=0.15,(In2Te3)0.15(GeTe)2.55,300,0.000016032,,,0.0011691,0.00011009,,,62375.249500998,
4605,10.1039/c4cp01294a,25686,2(a),32006,(In2Te3)x(GeTe)3-3x_ x=0.15,(In2Te3)0.15(GeTe)2.55,350,0.000015521,,0.7619,0.0013257,0.00011917,1.0868,0.60044,64428.8383480446,0.0012198197
4605,10.1039/c4cp01294a,25686,2(a),32006,(In2Te3)x(GeTe)3-3x_ x=0.15,(In2Te3)0.15(GeTe)2.55,400,0.000015011,,0.7983,0.0014823,0.00012825,1.2207,0.62607,66617.8136033575,0.0012143033
4605,10.1039/c4cp01294a,25686,2(a),32006,(In2Te3)x(GeTe)3-3x_ x=0.15,(In2Te3)0.15(GeTe)2.55,450,0.0000145,,0.83471,0.0016389,0.00013732,1.3547,0.6517,68965.5172413793,0.0012097881
4605,10.1039/c4cp01294a,25686,2(a),32006,(In2Te3)x(GeTe)3-3x_ x=0.15,(In2Te3)0.15(GeTe)2.55,500,0.00001399,,0.87111,0.0017955,0.0001464,1.4887,0.67733,71479.6283059328,0.0012060858
4605,10.1039/c4cp01294a,25686,2(a),32006,(In2Te3)x(GeTe)3-3x_ x=0.15,(In2Te3)0.15(GeTe)2.55,550,0.000013479,,0.90752,0.001952,0.00015548,1.6227,0.70295,74189.4799317457,0.0012029334
4605,10.1039/c4cp01294a,25686,2(a),32006,(In2Te3)x(GeTe)3-3x_ x=0.15,(In2Te3)0.15(GeTe)2.55,600,0.000012968,,0.94392,0.0021086,0.00016456,1.7567,0.72858,77112.8932757557,0.0012003188
4605,10.1039/c4cp01294a,25686,2(a),32006,(In2Te3)x(GeTe)3-3x_ x=0.15,(In2Te3)0.15(GeTe)2.55,650,0.000012458,,0.98033,0.0022652,0.00017363,1.8907,0.75421,80269.7062128753,0.0011980748
4605,10.1039/c4cp01294a,25686,2(a),32006,(In2Te3)x(GeTe)3-3x_ x=0.15,(In2Te3)0.15(GeTe)2.55,700,0.000011947,,1.0167,0.0024218,0.00018271,2.0246,0.77983,83703.0216790826,0.0011961869
4605,10.1039/c4cp01294a,25686,2(a),32006,(In2Te3)x(GeTe)3-3x_ x=0.15,(In2Te3)0.15(GeTe)2.55,750,0.000011436,,1.0531,0.0025784,0.00019179,2.1586,0.80546,87443.1619447359,0.0011944779
4605,10.1039/c4cp01294a,25686,2(a),32006,(In2Te3)x(GeTe)3-3x_ x=0.15,(In2Te3)0.15(GeTe)2.55,800,0.000010926,,1.0895,0.002735,0.00020087,2.2926,0.83109,91524.8032216731,0.0011929687
4605,10.1039/c4cp01294a,25686,2(a),32007,(In2Te3)x(GeTe)3-3x_ x=0.20,(In2Te3)0.2(GeTe)2.4,50,0.00002475,0.00022886,,0.00038672,0.000075048,,,40404.0404040404,
4605,10.1039/c4cp01294a,25686,2(a),32007,(In2Te3)x(GeTe)3-3x_ x=0.20,(In2Te3)0.2(GeTe)2.4,100,0.000024018,0.000215,,0.00044421,0.00008035,,,41635.4400866017,
4605,10.1039/c4cp01294a,25686,2(a),32007,(In2Te3)x(GeTe)3-3x_ x=0.20,(In2Te3)0.2(GeTe)2.4,150,0.000023286,0.00020115,,0.0005017,0.000085653,,,42944.2583526582,
4605,10.1039/c4cp01294a,25686,2(a),32007,(In2Te3)x(GeTe)3-3x_ x=0.20,(In2Te3)0.2(GeTe)2.4,200,0.000022553,,,0.00055919,0.000090956,,,44339.9991132,
4605,10.1039/c4cp01294a,25686,2(a),32007,(In2Te3)x(GeTe)3-3x_ x=0.20,(In2Te3)0.2(GeTe)2.4,250,0.000021821,,,0.00061668,0.000096258,,,45827.4139590303,
4605,10.1039/c4cp01294a,25686,2(a),32007,(In2Te3)x(GeTe)3-3x_ x=0.20,(In2Te3)0.2(GeTe)2.4,300,0.000021088,,,0.00067417,0.00010156,,,47420.3338391502,
4605,10.1039/c4cp01294a,25686,2(a),32007,(In2Te3)x(GeTe)3-3x_ x=0.20,(In2Te3)0.2(GeTe)2.4,350,0.000020356,,0.82622,0.00073166,0.00010686,0.98935,0.41618,49125.5649439969,0.0007395361
4605,10.1039/c4cp01294a,25686,2(a),32007,(In2Te3)x(GeTe)3-3x_ x=0.20,(In2Te3)0.2(GeTe)2.4,400,0.000019624,,0.88401,0.00078915,0.00011217,1.1626,0.40273,50958.0105992662,0.0006787803
4605,10.1039/c4cp01294a,25686,2(a),32007,(In2Te3)x(GeTe)3-3x_ x=0.20,(In2Te3)0.2(GeTe)2.4,450,0.000018891,,0.94179,0.00084664,0.00011747,1.3359,0.38927,52935.2601768038,0.00063376
4605,10.1039/c4cp01294a,25686,2(a),32007,(In2Te3)x(GeTe)3-3x_ x=0.20,(In2Te3)0.2(GeTe)2.4,500,0.000018159,,0.99957,0.00090413,0.00012277,1.5092,0.37582,55069.1117352277,0.000599079
4605,10.1039/c4cp01294a,25686,2(a),32007,(In2Te3)x(GeTe)3-3x_ x=0.20,(In2Te3)0.2(GeTe)2.4,550,0.000017427,,1.0573,0.00096162,0.00012807,1.6825,0.36237,57382.2229873185,0.0005715423
4605,10.1039/c4cp01294a,25686,2(a),32007,(In2Te3)x(GeTe)3-3x_ x=0.20,(In2Te3)0.2(GeTe)2.4,600,0.000016694,,1.1151,0.0010191,0.00013338,1.8557,0.34892,59901.7611117767,0.0005491728
4605,10.1039/c4cp01294a,25686,2(a),32007,(In2Te3)x(GeTe)3-3x_ x=0.20,(In2Te3)0.2(GeTe)2.4,650,0.000015962,,1.1729,0.0010766,0.00013868,2.029,0.33547,62648.790878336,0.0005306062
4605,10.1039/c4cp01294a,25686,2(a),32007,(In2Te3)x(GeTe)3-3x_ x=0.20,(In2Te3)0.2(GeTe)2.4,700,0.000015229,,1.2307,0.0011341,0.00014398,2.2023,0.32202,65664.1933153851,0.0005149616
4605,10.1039/c4cp01294a,25686,2(a),32007,(In2Te3)x(GeTe)3-3x_ x=0.20,(In2Te3)0.2(GeTe)2.4,750,0.000014497,,1.2885,0.0011916,0.00014928,2.3756,0.30857,68979.7889218459,0.0005015996
4605,10.1039/c4cp01294a,25686,2(a),32007,(In2Te3)x(GeTe)3-3x_ x=0.20,(In2Te3)0.2(GeTe)2.4,800,0.000013765,,1.3463,0.0012491,0.00015459,2.5489,0.29512,72648.0203414457,0.0004900545