sid,DOI,figureid,fignum,sampleid,samplename,composition,Temperature,Electrical conductivity,Power factor,Seebeck coefficient,Thermal conductivity,ZT,Electrical resistivity,Figure of merit Z
3503,10.1021/ja400069s,4875,7(a),311,Pb0.99Na0.01Se1,Pb0.99Na0.01Se1,924.5,,0.0014921,,,,,
3503,10.1021/ja400069s,4875,7(a),311,Pb0.99Na0.01Se1,Pb0.99Na0.01Se1,925,,0.001493,,,,,
3503,10.1021/ja400069s,4875,7(a),311,Pb0.99Na0.01Se1,Pb0.99Na0.01Se1,925.5,,0.001494,,,,,
3503,10.1021/ja400069s,105,6(a),286,Pb0.98Sr0.01Na0.01Se1,Pb0.98Sr0.01Na0.01Se1,301.5,,,0.000030152,,,,
3503,10.1021/ja400069s,105,6(a),286,Pb0.98Sr0.01Na0.01Se1,Pb0.98Sr0.01Na0.01Se1,302,,,0.000030205,,,,
3503,10.1021/ja400069s,105,6(a),286,Pb0.98Sr0.01Na0.01Se1,Pb0.98Sr0.01Na0.01Se1,302.5,,,0.000030258,,,,
3503,10.1021/ja400069s,105,6(a),286,Pb0.98Sr0.01Na0.01Se1,Pb0.98Sr0.01Na0.01Se1,303,285290,0.00026211,0.000030311,3.7312,0.021285,0.0000035052,0.0000702482
3503,10.1021/ja400069s,105,6(a),286,Pb0.98Sr0.01Na0.01Se1,Pb0.98Sr0.01Na0.01Se1,303.5,284850,0.00026262,0.000030364,3.7272,0.021385,0.0000035106,0.0000704604
3503,10.1021/ja400069s,105,6(a),286,Pb0.98Sr0.01Na0.01Se1,Pb0.98Sr0.01Na0.01Se1,304,284420,0.00026314,0.000030417,3.7231,0.021486,0.0000035159,0.0000706777
3503,10.1021/ja400069s,105,6(a),286,Pb0.98Sr0.01Na0.01Se1,Pb0.98Sr0.01Na0.01Se1,304.5,283990,0.00029057,0.000030471,3.7191,0.02379,0.0000035213,0.0000781291
3503,10.1021/ja400069s,105,6(a),286,Pb0.98Sr0.01Na0.01Se1,Pb0.98Sr0.01Na0.01Se1,305,283550,0.00029158,0.000030524,3.715,0.023939,0.0000035267,0.0000784872
3503,10.1021/ja400069s,105,6(a),286,Pb0.98Sr0.01Na0.01Se1,Pb0.98Sr0.01Na0.01Se1,305.5,283120,0.0002926,0.000030578,3.711,0.024088,0.0000035321,0.0000788467
3503,10.1021/ja400069s,105,6(a),286,Pb0.98Sr0.01Na0.01Se1,Pb0.98Sr0.01Na0.01Se1,306,282690,0.00029361,0.000030632,3.7069,0.024237,0.0000035374,0.0000792063
3503,10.1021/ja400069s,105,6(a),286,Pb0.98Sr0.01Na0.01Se1,Pb0.98Sr0.01Na0.01Se1,306.5,282260,0.00029463,0.000030686,3.7029,0.024387,0.0000035428,0.0000795674
3503,10.1021/ja400069s,105,6(a),286,Pb0.98Sr0.01Na0.01Se1,Pb0.98Sr0.01Na0.01Se1,307,281830,0.00029564,0.000030741,3.6988,0.024538,0.0000035482,0.0000799286
3503,10.1021/ja400069s,105,6(a),286,Pb0.98Sr0.01Na0.01Se1,Pb0.98Sr0.01Na0.01Se1,307.5,281400,0.00029666,0.000030795,3.6948,0.02469,0.0000035537,0.0000802912
3503,10.1021/ja400069s,105,6(a),286,Pb0.98Sr0.01Na0.01Se1,Pb0.98Sr0.01Na0.01Se1,308,280960,0.00029767,0.00003085,3.6907,0.024841,0.0000035592,0.0000806541
3503,10.1021/ja400069s,105,6(a),286,Pb0.98Sr0.01Na0.01Se1,Pb0.98Sr0.01Na0.01Se1,308.5,280530,0.00029869,0.000030905,3.6867,0.024994,0.0000035647,0.0000810183
3503,10.1021/ja400069s,105,6(a),286,Pb0.98Sr0.01Na0.01Se1,Pb0.98Sr0.01Na0.01Se1,309,280100,0.0002997,0.000030959,3.6827,0.025147,0.0000035702,0.0000813805
3503,10.1021/ja400069s,105,6(a),286,Pb0.98Sr0.01Na0.01Se1,Pb0.98Sr0.01Na0.01Se1,309.5,279670,0.00030072,0.000031015,3.6787,0.0253,0.0000035756,0.0000817463
3503,10.1021/ja400069s,105,6(a),286,Pb0.98Sr0.01Na0.01Se1,Pb0.98Sr0.01Na0.01Se1,310,279240,0.00030174,0.00003107,3.6746,0.025456,0.0000035811,0.0000821151
3503,10.1021/ja400069s,105,6(a),286,Pb0.98Sr0.01Na0.01Se1,Pb0.98Sr0.01Na0.01Se1,310.5,278810,0.00030275,0.000031125,3.6706,0.02561,0.0000035867,0.0000824797
3503,10.1021/ja400069s,105,6(a),286,Pb0.98Sr0.01Na0.01Se1,Pb0.98Sr0.01Na0.01Se1,311,278390,0.00030377,0.000031181,3.6666,0.025766,0.0000035921,0.0000828479
3503,10.1021/ja400069s,105,6(a),286,Pb0.98Sr0.01Na0.01Se1,Pb0.98Sr0.01Na0.01Se1,311.5,277960,0.00030478,0.000031237,3.6626,0.025921,0.0000035976,0.0000832141
3503,10.1021/ja400069s,105,6(a),286,Pb0.98Sr0.01Na0.01Se1,Pb0.98Sr0.01Na0.01Se1,312,277530,0.0003058,0.000031293,3.6586,0.026078,0.0000036032,0.0000835839
3503,10.1021/ja400069s,105,6(a),286,Pb0.98Sr0.01Na0.01Se1,Pb0.98Sr0.01Na0.01Se1,312.5,277100,0.00030681,0.000031349,3.6546,0.026235,0.0000036088,0.0000839517
3503,10.1021/ja400069s,105,6(a),286,Pb0.98Sr0.01Na0.01Se1,Pb0.98Sr0.01Na0.01Se1,313,276670,0.00030783,0.000031405,3.6506,0.026393,0.0000036144,0.0000843231
3503,10.1021/ja400069s,105,6(a),286,Pb0.98Sr0.01Na0.01Se1,Pb0.98Sr0.01Na0.01Se1,313.5,276240,0.00030884,0.000031461,3.6466,0.026551,0.00000362,0.0000846926
3503,10.1021/ja400069s,105,6(a),286,Pb0.98Sr0.01Na0.01Se1,Pb0.98Sr0.01Na0.01Se1,314,275820,0.00030986,0.000031518,3.6426,0.026711,0.0000036256,0.0000850656
3503,10.1021/ja400069s,105,6(a),286,Pb0.98Sr0.01Na0.01Se1,Pb0.98Sr0.01Na0.01Se1,314.5,275390,0.00031087,0.000031575,3.6386,0.02687,0.0000036312,0.0000854367
3503,10.1021/ja400069s,105,6(a),286,Pb0.98Sr0.01Na0.01Se1,Pb0.98Sr0.01Na0.01Se1,315,274960,0.00031189,0.000031632,3.6346,0.027031,0.0000036369,0.0000858114
3503,10.1021/ja400069s,105,6(a),286,Pb0.98Sr0.01Na0.01Se1,Pb0.98Sr0.01Na0.01Se1,315.5,274540,0.0003129,0.000031689,3.6307,0.02719,0.0000036425,0.0000861817
3503,10.1021/ja400069s,105,6(a),286,Pb0.98Sr0.01Na0.01Se1,Pb0.98Sr0.01Na0.01Se1,316,274110,0.00031392,0.000031746,3.6267,0.027352,0.0000036482,0.000086558
3503,10.1021/ja400069s,105,6(a),286,Pb0.98Sr0.01Na0.01Se1,Pb0.98Sr0.01Na0.01Se1,316.5,273690,0.00031493,0.000031804,3.6227,0.027514,0.0000036538,0.0000869324
3503,10.1021/ja400069s,105,6(a),286,Pb0.98Sr0.01Na0.01Se1,Pb0.98Sr0.01Na0.01Se1,317,273260,0.00031595,0.000031861,3.6187,0.027677,0.0000036595,0.0000873104
3503,10.1021/ja400069s,105,6(a),286,Pb0.98Sr0.01Na0.01Se1,Pb0.98Sr0.01Na0.01Se1,317.5,272830,0.00031697,0.000031919,3.6148,0.027841,0.0000036653,0.0000876867
3503,10.1021/ja400069s,105,6(a),286,Pb0.98Sr0.01Na0.01Se1,Pb0.98Sr0.01Na0.01Se1,318,272410,0.00031798,0.000031977,3.6108,0.028004,0.0000036709,0.0000880636
3503,10.1021/ja400069s,105,6(a),286,Pb0.98Sr0.01Na0.01Se1,Pb0.98Sr0.01Na0.01Se1,318.5,271990,0.000319,0.000032036,3.6068,0.028169,0.0000036766,0.0000884441
3503,10.1021/ja400069s,105,6(a),286,Pb0.98Sr0.01Na0.01Se1,Pb0.98Sr0.01Na0.01Se1,319,271560,0.00032001,0.000032094,3.6029,0.028334,0.0000036824,0.0000888201
3503,10.1021/ja400069s,105,6(a),286,Pb0.98Sr0.01Na0.01Se1,Pb0.98Sr0.01Na0.01Se1,319.5,271140,0.00032103,0.000032153,3.5989,0.0285,0.0000036881,0.0000892023
3503,10.1021/ja400069s,105,6(a),286,Pb0.98Sr0.01Na0.01Se1,Pb0.98Sr0.01Na0.01Se1,320,270710,0.00032204,0.000032211,3.595,0.028666,0.000003694,0.00008958
3503,10.1021/ja400069s,105,6(a),286,Pb0.98Sr0.01Na0.01Se1,Pb0.98Sr0.01Na0.01Se1,320.5,270290,0.00032306,0.00003227,3.591,0.028833,0.0000036997,0.0000899638
3503,10.1021/ja400069s,105,6(a),286,Pb0.98Sr0.01Na0.01Se1,Pb0.98Sr0.01Na0.01Se1,321,269870,0.00032407,0.000032329,3.5871,0.029,0.0000037055,0.0000903432
3503,10.1021/ja400069s,105,6(a),286,Pb0.98Sr0.01Na0.01Se1,Pb0.98Sr0.01Na0.01Se1,321.5,269440,0.00032509,0.000032389,3.5831,0.029169,0.0000037114,0.0000907287
3503,10.1021/ja400069s,105,6(a),286,Pb0.98Sr0.01Na0.01Se1,Pb0.98Sr0.01Na0.01Se1,322,269020,0.0003261,0.000032448,3.5792,0.029337,0.0000037172,0.0000911097
3503,10.1021/ja400069s,105,6(a),286,Pb0.98Sr0.01Na0.01Se1,Pb0.98Sr0.01Na0.01Se1,322.5,268600,0.00032712,0.000032508,3.5753,0.029507,0.000003723,0.0000914944
3503,10.1021/ja400069s,105,6(a),286,Pb0.98Sr0.01Na0.01Se1,Pb0.98Sr0.01Na0.01Se1,323,268180,0.00032813,0.000032568,3.5713,0.029677,0.0000037288,0.0000918797
3503,10.1021/ja400069s,105,6(a),286,Pb0.98Sr0.01Na0.01Se1,Pb0.98Sr0.01Na0.01Se1,323.5,267760,0.00032915,0.000032628,3.5674,0.029848,0.0000037347,0.0000922661
3503,10.1021/ja400069s,105,6(a),286,Pb0.98Sr0.01Na0.01Se1,Pb0.98Sr0.01Na0.01Se1,324,267340,0.00033016,0.000032688,3.5635,0.030019,0.0000037406,0.0000926505
3503,10.1021/ja400069s,105,6(a),286,Pb0.98Sr0.01Na0.01Se1,Pb0.98Sr0.01Na0.01Se1,324.5,266920,0.00033118,0.000032749,3.5596,0.030191,0.0000037464,0.0000930385
3503,10.1021/ja400069s,105,6(a),286,Pb0.98Sr0.01Na0.01Se1,Pb0.98Sr0.01Na0.01Se1,325,266500,0.00033219,0.00003281,3.5557,0.030363,0.0000037523,0.0000934246
3503,10.1021/ja400069s,105,6(a),286,Pb0.98Sr0.01Na0.01Se1,Pb0.98Sr0.01Na0.01Se1,325.5,266080,0.00033321,0.00003287,3.5518,0.030537,0.0000037583,0.0000938144
3503,10.1021/ja400069s,105,6(a),286,Pb0.98Sr0.01Na0.01Se1,Pb0.98Sr0.01Na0.01Se1,326,265660,0.00033423,0.000032932,3.5478,0.030712,0.0000037642,0.0000942077
3503,10.1021/ja400069s,105,6(a),286,Pb0.98Sr0.01Na0.01Se1,Pb0.98Sr0.01Na0.01Se1,326.5,265240,0.00033524,0.000032993,3.5439,0.030886,0.0000037702,0.0000945963
3503,10.1021/ja400069s,105,6(a),286,Pb0.98Sr0.01Na0.01Se1,Pb0.98Sr0.01Na0.01Se1,327,264820,0.00033626,0.000033054,3.54,0.031061,0.0000037761,0.0000949887
3503,10.1021/ja400069s,105,6(a),286,Pb0.98Sr0.01Na0.01Se1,Pb0.98Sr0.01Na0.01Se1,327.5,264400,0.00033727,0.000033116,3.5361,0.031237,0.0000037821,0.0000953791
3503,10.1021/ja400069s,105,6(a),286,Pb0.98Sr0.01Na0.01Se1,Pb0.98Sr0.01Na0.01Se1,328,263980,0.00033829,0.000033178,3.5322,0.031414,0.0000037882,0.0000957732
3503,10.1021/ja400069s,105,6(a),286,Pb0.98Sr0.01Na0.01Se1,Pb0.98Sr0.01Na0.01Se1,328.5,263560,0.0003393,0.00003324,3.5284,0.031589,0.0000037942,0.0000961626
3503,10.1021/ja400069s,105,6(a),286,Pb0.98Sr0.01Na0.01Se1,Pb0.98Sr0.01Na0.01Se1,329,263140,0.00034032,0.000033302,3.5245,0.031768,0.0000038003,0.0000965584
3503,10.1021/ja400069s,105,6(a),286,Pb0.98Sr0.01Na0.01Se1,Pb0.98Sr0.01Na0.01Se1,329.5,262730,0.00034133,0.000033365,3.5206,0.031946,0.0000038062,0.0000969522
3503,10.1021/ja400069s,105,6(a),286,Pb0.98Sr0.01Na0.01Se1,Pb0.98Sr0.01Na0.01Se1,330,262310,0.00034235,0.000033428,3.5167,0.032125,0.0000038123,0.0000973498
3503,10.1021/ja400069s,105,6(a),286,Pb0.98Sr0.01Na0.01Se1,Pb0.98Sr0.01Na0.01Se1,330.5,261890,0.00034336,0.00003349,3.5128,0.032305,0.0000038184,0.0000977454
3503,10.1021/ja400069s,105,6(a),286,Pb0.98Sr0.01Na0.01Se1,Pb0.98Sr0.01Na0.01Se1,331,261480,0.00034438,0.000033554,3.5089,0.032486,0.0000038244,0.0000981447
3503,10.1021/ja400069s,105,6(a),286,Pb0.98Sr0.01Na0.01Se1,Pb0.98Sr0.01Na0.01Se1,331.5,261060,0.00034539,0.000033617,3.5051,0.032666,0.0000038305,0.0000985393
3503,10.1021/ja400069s,105,6(a),286,Pb0.98Sr0.01Na0.01Se1,Pb0.98Sr0.01Na0.01Se1,332,260650,0.00034641,0.00003368,3.5012,0.032848,0.0000038366,0.0000989404
3503,10.1021/ja400069s,105,6(a),286,Pb0.98Sr0.01Na0.01Se1,Pb0.98Sr0.01Na0.01Se1,332.5,260230,0.00034742,0.000033744,3.4973,0.03303,0.0000038428,0.0000993395
3503,10.1021/ja400069s,105,6(a),286,Pb0.98Sr0.01Na0.01Se1,Pb0.98Sr0.01Na0.01Se1,333,259820,0.00034844,0.000033808,3.4935,0.033213,0.0000038488,0.0000997395
3503,10.1021/ja400069s,105,6(a),286,Pb0.98Sr0.01Na0.01Se1,Pb0.98Sr0.01Na0.01Se1,333.5,259400,0.00034945,0.000033872,3.4896,0.033397,0.0000038551,0.0001001404
3503,10.1021/ja400069s,105,6(a),286,Pb0.98Sr0.01Na0.01Se1,Pb0.98Sr0.01Na0.01Se1,334,258990,0.00035047,0.000033937,3.4858,0.033581,0.0000038612,0.0001005422
3503,10.1021/ja400069s,105,6(a),286,Pb0.98Sr0.01Na0.01Se1,Pb0.98Sr0.01Na0.01Se1,334.5,258570,0.00035149,0.000034001,3.4819,0.033767,0.0000038674,0.0001009478
3503,10.1021/ja400069s,105,6(a),286,Pb0.98Sr0.01Na0.01Se1,Pb0.98Sr0.01Na0.01Se1,335,258160,0.0003525,0.000034066,3.4781,0.033952,0.0000038736,0.0001013484
3503,10.1021/ja400069s,105,6(a),286,Pb0.98Sr0.01Na0.01Se1,Pb0.98Sr0.01Na0.01Se1,335.5,257750,0.00035352,0.000034131,3.4742,0.034139,0.0000038797,0.0001017558
3503,10.1021/ja400069s,105,6(a),286,Pb0.98Sr0.01Na0.01Se1,Pb0.98Sr0.01Na0.01Se1,336,257330,0.00035453,0.000034196,3.4704,0.034325,0.0000038861,0.0001021583
3503,10.1021/ja400069s,105,6(a),286,Pb0.98Sr0.01Na0.01Se1,Pb0.98Sr0.01Na0.01Se1,336.5,256920,0.00035555,0.000034262,3.4666,0.034513,0.0000038923,0.0001025645
3503,10.1021/ja400069s,105,6(a),286,Pb0.98Sr0.01Na0.01Se1,Pb0.98Sr0.01Na0.01Se1,337,256510,0.00035656,0.000034328,3.4627,0.034701,0.0000038985,0.0001029717
3503,10.1021/ja400069s,105,6(a),286,Pb0.98Sr0.01Na0.01Se1,Pb0.98Sr0.01Na0.01Se1,337.5,256100,0.00035758,0.000034393,3.4589,0.034891,0.0000039047,0.0001033797
3503,10.1021/ja400069s,105,6(a),286,Pb0.98Sr0.01Na0.01Se1,Pb0.98Sr0.01Na0.01Se1,338,255680,0.00035859,0.00003446,3.4551,0.03508,0.0000039111,0.0001037857
3503,10.1021/ja400069s,105,6(a),286,Pb0.98Sr0.01Na0.01Se1,Pb0.98Sr0.01Na0.01Se1,338.5,255270,0.00035961,0.000034526,3.4513,0.03527,0.0000039174,0.0001041955
3503,10.1021/ja400069s,105,6(a),286,Pb0.98Sr0.01Na0.01Se1,Pb0.98Sr0.01Na0.01Se1,339,254860,0.00036062,0.000034592,3.4474,-0.10464,0.0000039237,0.0001046064
3503,10.1021/ja400069s,105,6(a),286,Pb0.98Sr0.01Na0.01Se1,Pb0.98Sr0.01Na0.01Se1,339.5,254450,0.00036164,0.000034659,3.4436,-0.10366,0.00000393,0.000105018
3503,10.1021/ja400069s,105,6(a),286,Pb0.98Sr0.01Na0.01Se1,Pb0.98Sr0.01Na0.01Se1,340,254040,0.00036265,0.000034726,3.4398,-0.10269,0.0000039364,0.0001054276
3503,10.1021/ja400069s,105,6(a),286,Pb0.98Sr0.01Na0.01Se1,Pb0.98Sr0.01Na0.01Se1,340.5,253630,0.00036367,0.000034793,3.436,-0.10171,0.0000039428,0.0001058411
3503,10.1021/ja400069s,105,6(a),286,Pb0.98Sr0.01Na0.01Se1,Pb0.98Sr0.01Na0.01Se1,341,253220,0.00036468,0.000034861,3.4322,-0.10074,0.0000039491,0.0001062525
3503,10.1021/ja400069s,105,6(a),286,Pb0.98Sr0.01Na0.01Se1,Pb0.98Sr0.01Na0.01Se1,341.5,252810,0.0003657,0.000034929,3.4284,-0.099764,0.0000039555,0.0001066678
3503,10.1021/ja400069s,105,6(a),286,Pb0.98Sr0.01Na0.01Se1,Pb0.98Sr0.01Na0.01Se1,342,252400,0.00036672,0.000034996,3.4246,-0.098789,0.000003962,0.000107084
3503,10.1021/ja400069s,105,6(a),286,Pb0.98Sr0.01Na0.01Se1,Pb0.98Sr0.01Na0.01Se1,342.5,252000,0.00036773,0.000035065,3.4208,-0.097814,0.0000039683,0.0001074982
3503,10.1021/ja400069s,105,6(a),286,Pb0.98Sr0.01Na0.01Se1,Pb0.98Sr0.01Na0.01Se1,343,251590,0.00036875,0.000035133,3.417,-0.096839,0.0000039747,0.0001079163
3503,10.1021/ja400069s,105,6(a),286,Pb0.98Sr0.01Na0.01Se1,Pb0.98Sr0.01Na0.01Se1,343.5,251180,0.00036976,0.000035202,3.4132,-0.095864,0.0000039812,0.0001083324
3503,10.1021/ja400069s,105,6(a),286,Pb0.98Sr0.01Na0.01Se1,Pb0.98Sr0.01Na0.01Se1,344,250770,0.00037078,0.00003527,3.4094,-0.09489,0.0000039877,0.0001087523
3503,10.1021/ja400069s,105,6(a),286,Pb0.98Sr0.01Na0.01Se1,Pb0.98Sr0.01Na0.01Se1,344.5,250370,0.00037179,0.000035339,3.4056,-0.093915,0.0000039941,0.0001091702
3503,10.1021/ja400069s,105,6(a),286,Pb0.98Sr0.01Na0.01Se1,Pb0.98Sr0.01Na0.01Se1,345,249960,0.00037281,0.000035409,3.4019,-0.09294,0.0000040006,0.0001095888
3503,10.1021/ja400069s,105,6(a),286,Pb0.98Sr0.01Na0.01Se1,Pb0.98Sr0.01Na0.01Se1,345.5,249550,0.00037382,0.000035478,3.3981,-0.091965,0.0000040072,0.0001100085
3503,10.1021/ja400069s,105,6(a),286,Pb0.98Sr0.01Na0.01Se1,Pb0.98Sr0.01Na0.01Se1,346,249150,0.00037484,0.000035548,3.3943,-0.09099,0.0000040136,0.0001104322
3503,10.1021/ja400069s,105,6(a),286,Pb0.98Sr0.01Na0.01Se1,Pb0.98Sr0.01Na0.01Se1,346.5,248740,0.00037585,0.000035618,3.3905,-0.090015,0.0000040203,0.0001108539
3503,10.1021/ja400069s,105,6(a),286,Pb0.98Sr0.01Na0.01Se1,Pb0.98Sr0.01Na0.01Se1,347,248340,0.00037687,0.000035688,3.3868,-0.089041,0.0000040267,0.0001112761
3503,10.1021/ja400069s,105,6(a),286,Pb0.98Sr0.01Na0.01Se1,Pb0.98Sr0.01Na0.01Se1,347.5,247930,0.00037788,0.000035759,3.383,-0.088066,0.0000040334,0.0001116997
3503,10.1021/ja400069s,105,6(a),286,Pb0.98Sr0.01Na0.01Se1,Pb0.98Sr0.01Na0.01Se1,348,247530,0.0003789,0.000035829,3.3793,-0.087091,0.0000040399,0.0001121238
3503,10.1021/ja400069s,105,6(a),286,Pb0.98Sr0.01Na0.01Se1,Pb0.98Sr0.01Na0.01Se1,348.5,247120,0.00037991,0.0000359,3.3755,-0.086116,0.0000040466,0.0001125493
3503,10.1021/ja400069s,105,6(a),286,Pb0.98Sr0.01Na0.01Se1,Pb0.98Sr0.01Na0.01Se1,349,246720,0.00038093,0.000035971,3.3718,-0.085141,0.0000040532,0.0001129753
3503,10.1021/ja400069s,105,6(a),286,Pb0.98Sr0.01Na0.01Se1,Pb0.98Sr0.01Na0.01Se1,349.5,246310,0.00038194,0.000036043,3.368,-0.084166,0.0000040599,0.0001134026
3503,10.1021/ja400069s,105,6(a),286,Pb0.98Sr0.01Na0.01Se1,Pb0.98Sr0.01Na0.01Se1,350,245910,0.00038296,0.000036114,3.3643,-0.083192,0.0000040665,0.0001138305
3503,10.1021/ja400069s,105,6(a),286,Pb0.98Sr0.01Na0.01Se1,Pb0.98Sr0.01Na0.01Se1,350.5,245510,0.00038398,0.000036186,3.3605,-0.082217,0.0000040732,0.0001142628
3503,10.1021/ja400069s,105,6(a),286,Pb0.98Sr0.01Na0.01Se1,Pb0.98Sr0.01Na0.01Se1,351,245110,0.00038499,0.000036258,3.3568,-0.081242,0.0000040798,0.0001146896
3503,10.1021/ja400069s,105,6(a),286,Pb0.98Sr0.01Na0.01Se1,Pb0.98Sr0.01Na0.01Se1,351.5,244700,0.00038601,0.000036331,3.353,-0.080267,0.0000040866,0.0001151238
3503,10.1021/ja400069s,105,6(a),286,Pb0.98Sr0.01Na0.01Se1,Pb0.98Sr0.01Na0.01Se1,352,244300,0.00038702,0.000036403,3.3493,-0.079292,0.0000040933,0.0001155525
3503,10.1021/ja400069s,105,6(a),286,Pb0.98Sr0.01Na0.01Se1,Pb0.98Sr0.01Na0.01Se1,352.5,243900,0.00038804,0.000036476,3.3456,-0.078317,0.0000041,0.0001159852
3503,10.1021/ja400069s,105,6(a),286,Pb0.98Sr0.01Na0.01Se1,Pb0.98Sr0.01Na0.01Se1,353,243500,0.00038905,0.000036549,3.3419,-0.077343,0.0000041068,0.0001164158
3503,10.1021/ja400069s,105,6(a),286,Pb0.98Sr0.01Na0.01Se1,Pb0.98Sr0.01Na0.01Se1,353.5,243100,0.00039007,0.000036622,3.3381,-0.076368,0.0000041135,0.0001168539
3503,10.1021/ja400069s,105,6(a),286,Pb0.98Sr0.01Na0.01Se1,Pb0.98Sr0.01Na0.01Se1,354,242700,0.00039108,0.000036696,3.3344,-0.075393,0.0000041203,0.0001172865
3503,10.1021/ja400069s,105,6(a),286,Pb0.98Sr0.01Na0.01Se1,Pb0.98Sr0.01Na0.01Se1,354.5,242300,0.0003921,0.00003677,3.3307,-0.074418,0.0000041271,0.000117723
3503,10.1021/ja400069s,105,6(a),286,Pb0.98Sr0.01Na0.01Se1,Pb0.98Sr0.01Na0.01Se1,355,241900,0.00039311,0.000036844,3.327,-0.073443,0.0000041339,0.0001181575
3503,10.1021/ja400069s,105,6(a),286,Pb0.98Sr0.01Na0.01Se1,Pb0.98Sr0.01Na0.01Se1,355.5,241500,0.00039413,0.000036918,3.3233,-0.072468,0.0000041408,0.000118596
3503,10.1021/ja400069s,105,6(a),286,Pb0.98Sr0.01Na0.01Se1,Pb0.98Sr0.01Na0.01Se1,356,241100,0.00039514,0.000036993,3.3196,-0.071494,0.0000041477,0.0001190324
3503,10.1021/ja400069s,105,6(a),286,Pb0.98Sr0.01Na0.01Se1,Pb0.98Sr0.01Na0.01Se1,356.5,240700,0.00039616,0.000037067,3.3159,-0.070519,0.0000041545,0.0001194728
3503,10.1021/ja400069s,105,6(a),286,Pb0.98Sr0.01Na0.01Se1,Pb0.98Sr0.01Na0.01Se1,357,240310,0.00039717,0.000037142,3.3122,-0.069544,0.0000041613,0.0001199112
3503,10.1021/ja400069s,105,6(a),286,Pb0.98Sr0.01Na0.01Se1,Pb0.98Sr0.01Na0.01Se1,357.5,239910,0.00039819,0.000037218,3.3085,-0.068569,0.0000041682,0.0001203536
3503,10.1021/ja400069s,105,6(a),286,Pb0.98Sr0.01Na0.01Se1,Pb0.98Sr0.01Na0.01Se1,358,239510,0.0003992,0.000037293,3.3048,-0.067594,0.0000041752,0.000120794
3503,10.1021/ja400069s,105,6(a),286,Pb0.98Sr0.01Na0.01Se1,Pb0.98Sr0.01Na0.01Se1,358.5,239110,0.00040022,0.000037369,3.3011,-0.066619,0.0000041822,0.0001212384
3503,10.1021/ja400069s,105,6(a),286,Pb0.98Sr0.01Na0.01Se1,Pb0.98Sr0.01Na0.01Se1,359,238720,0.00040124,0.000037445,3.2974,-0.065645,0.000004189,0.0001216838
3503,10.1021/ja400069s,105,6(a),286,Pb0.98Sr0.01Na0.01Se1,Pb0.98Sr0.01Na0.01Se1,359.5,238320,0.00040225,0.000037521,3.2937,-0.06467,0.000004196,0.0001221271
3503,10.1021/ja400069s,105,6(a),286,Pb0.98Sr0.01Na0.01Se1,Pb0.98Sr0.01Na0.01Se1,360,237930,0.00040327,0.000037598,3.2901,-0.063695,0.0000042029,0.0001225707
3503,10.1021/ja400069s,105,6(a),286,Pb0.98Sr0.01Na0.01Se1,Pb0.98Sr0.01Na0.01Se1,360.5,237530,0.00040428,0.000037674,3.2864,-0.06272,0.00000421,0.0001230161
3503,10.1021/ja400069s,105,6(a),286,Pb0.98Sr0.01Na0.01Se1,Pb0.98Sr0.01Na0.01Se1,361,237140,0.0004053,0.000037751,3.2827,-0.061745,0.0000042169,0.0001234654
3503,10.1021/ja400069s,105,6(a),286,Pb0.98Sr0.01Na0.01Se1,Pb0.98Sr0.01Na0.01Se1,361.5,236740,0.00040631,0.000037829,3.2791,-0.06077,0.000004224,0.000123909
3503,10.1021/ja400069s,105,6(a),286,Pb0.98Sr0.01Na0.01Se1,Pb0.98Sr0.01Na0.01Se1,362,236350,0.00040733,0.000037906,3.2754,-0.059796,0.000004231,0.0001243604
3503,10.1021/ja400069s,105,6(a),286,Pb0.98Sr0.01Na0.01Se1,Pb0.98Sr0.01Na0.01Se1,362.5,235950,0.00040834,0.000037984,3.2717,-0.058821,0.0000042382,0.0001248097
3503,10.1021/ja400069s,105,6(a),286,Pb0.98Sr0.01Na0.01Se1,Pb0.98Sr0.01Na0.01Se1,363,235560,0.00040936,0.000038062,3.2681,-0.057846,0.0000042452,0.0001252593
3503,10.1021/ja400069s,105,6(a),286,Pb0.98Sr0.01Na0.01Se1,Pb0.98Sr0.01Na0.01Se1,363.5,235170,0.00041037,0.00003814,3.2644,-0.056871,0.0000042522,0.0001257107