sid,DOI,figureid,fignum,sampleid,samplename,composition,Temperature,Electrical conductivity,Power factor,Seebeck coefficient,Thermal conductivity,ZT,Electrical resistivity,Figure of merit Z
3503,10.1021/ja400069s,105,6(a),393,Pb0.95Ba0.04Na0.01Se1,Pb0.95Ba0.04Na0.01Se1,430.5,123980,0.00055192,0.000062178,1.9794,0.16546,0.0000080658,0.000278832
3503,10.1021/ja400069s,105,6(a),393,Pb0.95Ba0.04Na0.01Se1,Pb0.95Ba0.04Na0.01Se1,431,123760,0.0005527,0.000062313,1.9773,0.1664,0.0000080802,0.0002795226
3503,10.1021/ja400069s,105,6(a),393,Pb0.95Ba0.04Na0.01Se1,Pb0.95Ba0.04Na0.01Se1,431.5,123550,0.00055347,0.000062448,1.9752,0.16733,0.0000080939,0.0002802096
3503,10.1021/ja400069s,105,6(a),393,Pb0.95Ba0.04Na0.01Se1,Pb0.95Ba0.04Na0.01Se1,432,123330,0.00055425,0.000062583,1.9732,0.16826,0.0000081083,0.0002808889
3503,10.1021/ja400069s,105,6(a),393,Pb0.95Ba0.04Na0.01Se1,Pb0.95Ba0.04Na0.01Se1,432.5,123110,0.00055502,0.000062718,1.9711,0.1692,0.0000081228,0.0002815788
3503,10.1021/ja400069s,105,6(a),393,Pb0.95Ba0.04Na0.01Se1,Pb0.95Ba0.04Na0.01Se1,433,122900,0.0005558,0.000062853,1.969,0.17013,0.0000081367,0.0002822753
3503,10.1021/ja400069s,105,6(a),393,Pb0.95Ba0.04Na0.01Se1,Pb0.95Ba0.04Na0.01Se1,433.5,122680,0.00055657,0.000062989,1.9669,0.17106,0.0000081513,0.0002829681
3503,10.1021/ja400069s,105,6(a),393,Pb0.95Ba0.04Na0.01Se1,Pb0.95Ba0.04Na0.01Se1,434,122470,0.00055735,0.000063125,1.9649,0.172,0.0000081653,0.0002836531
3503,10.1021/ja400069s,105,6(a),393,Pb0.95Ba0.04Na0.01Se1,Pb0.95Ba0.04Na0.01Se1,434.5,122250,0.00055812,0.000063261,1.9628,0.17293,0.00000818,0.0002843489
3503,10.1021/ja400069s,105,6(a),393,Pb0.95Ba0.04Na0.01Se1,Pb0.95Ba0.04Na0.01Se1,435,122040,0.0005589,0.000063398,1.9607,0.17387,0.000008194,0.0002850513
3503,10.1021/ja400069s,105,6(a),393,Pb0.95Ba0.04Na0.01Se1,Pb0.95Ba0.04Na0.01Se1,435.5,121820,0.00055967,0.000063534,1.9587,0.1748,0.0000082088,0.0002857354
3503,10.1021/ja400069s,105,6(a),393,Pb0.95Ba0.04Na0.01Se1,Pb0.95Ba0.04Na0.01Se1,436,121610,0.00056045,0.000063671,1.9566,0.17573,0.000008223,0.0002864408
3503,10.1021/ja400069s,105,6(a),393,Pb0.95Ba0.04Na0.01Se1,Pb0.95Ba0.04Na0.01Se1,436.5,121390,0.00056122,0.000063808,1.9546,0.17667,0.0000082379,0.0002871278
3503,10.1021/ja400069s,105,6(a),393,Pb0.95Ba0.04Na0.01Se1,Pb0.95Ba0.04Na0.01Se1,437,121180,0.000562,0.000063946,1.9525,0.1776,0.0000082522,0.0002878361
3503,10.1021/ja400069s,105,6(a),393,Pb0.95Ba0.04Na0.01Se1,Pb0.95Ba0.04Na0.01Se1,437.5,120960,0.00056277,0.000064083,1.9505,0.17854,0.0000082672,0.000288526
3503,10.1021/ja400069s,105,6(a),393,Pb0.95Ba0.04Na0.01Se1,Pb0.95Ba0.04Na0.01Se1,438,120750,0.00056355,0.000064221,1.9484,0.17947,0.0000082816,0.0002892373
3503,10.1021/ja400069s,105,6(a),393,Pb0.95Ba0.04Na0.01Se1,Pb0.95Ba0.04Na0.01Se1,438.5,120540,0.00056432,0.000064359,1.9464,0.1804,0.000008296,0.0002899301
3503,10.1021/ja400069s,105,6(a),393,Pb0.95Ba0.04Na0.01Se1,Pb0.95Ba0.04Na0.01Se1,439,120330,0.0005651,0.000064498,1.9443,0.18134,0.0000083105,0.0002906444
3503,10.1021/ja400069s,105,6(a),393,Pb0.95Ba0.04Na0.01Se1,Pb0.95Ba0.04Na0.01Se1,439.5,120110,0.00056587,0.000064636,1.9423,0.18227,0.0000083257,0.0002913402
3503,10.1021/ja400069s,105,6(a),393,Pb0.95Ba0.04Na0.01Se1,Pb0.95Ba0.04Na0.01Se1,440,119900,0.00056665,0.000064775,1.9403,0.1832,0.0000083403,0.0002920425
3503,10.1021/ja400069s,105,6(a),393,Pb0.95Ba0.04Na0.01Se1,Pb0.95Ba0.04Na0.01Se1,440.5,119690,0.00056742,0.000064914,1.9382,0.18414,0.0000083549,0.0002927562
3503,10.1021/ja400069s,105,6(a),393,Pb0.95Ba0.04Na0.01Se1,Pb0.95Ba0.04Na0.01Se1,441,119480,0.0005682,0.000065054,1.9362,0.18507,0.0000083696,0.0002934614
3503,10.1021/ja400069s,105,6(a),393,Pb0.95Ba0.04Na0.01Se1,Pb0.95Ba0.04Na0.01Se1,441.5,119270,0.00056898,0.000065193,1.9342,0.18601,0.0000083843,0.0002941681
3503,10.1021/ja400069s,105,6(a),393,Pb0.95Ba0.04Na0.01Se1,Pb0.95Ba0.04Na0.01Se1,442,119050,0.00056975,0.000065333,1.9322,0.18694,0.0000083998,0.0002948711
3503,10.1021/ja400069s,105,6(a),393,Pb0.95Ba0.04Na0.01Se1,Pb0.95Ba0.04Na0.01Se1,442.5,118840,0.00057053,0.000065473,1.9301,0.18787,0.0000084147,0.0002955961
3503,10.1021/ja400069s,105,6(a),393,Pb0.95Ba0.04Na0.01Se1,Pb0.95Ba0.04Na0.01Se1,443,118630,0.0005713,0.000065613,1.9281,0.18881,0.0000084296,0.0002963021
3503,10.1021/ja400069s,105,6(a),393,Pb0.95Ba0.04Na0.01Se1,Pb0.95Ba0.04Na0.01Se1,443.5,118420,0.00057208,0.000065754,1.9261,0.18974,0.0000084445,0.0002970147
3503,10.1021/ja400069s,105,6(a),393,Pb0.95Ba0.04Na0.01Se1,Pb0.95Ba0.04Na0.01Se1,444,118210,0.00057285,0.000065895,1.9241,0.19068,0.0000084595,0.0002977236
3503,10.1021/ja400069s,105,6(a),393,Pb0.95Ba0.04Na0.01Se1,Pb0.95Ba0.04Na0.01Se1,444.5,118000,0.00057363,0.000066036,1.9221,0.19161,0.0000084746,0.0002984392
3503,10.1021/ja400069s,105,6(a),393,Pb0.95Ba0.04Na0.01Se1,Pb0.95Ba0.04Na0.01Se1,445,117790,0.0005744,0.000066177,1.9201,0.19254,0.0000084897,0.0002991511
3503,10.1021/ja400069s,105,6(a),393,Pb0.95Ba0.04Na0.01Se1,Pb0.95Ba0.04Na0.01Se1,445.5,117580,0.00057518,0.000066319,1.9181,0.19348,0.0000085048,0.0002998697
3503,10.1021/ja400069s,105,6(a),393,Pb0.95Ba0.04Na0.01Se1,Pb0.95Ba0.04Na0.01Se1,446,117380,0.00057595,0.000066461,1.9161,0.19441,0.0000085193,0.0003005845
3503,10.1021/ja400069s,105,6(a),393,Pb0.95Ba0.04Na0.01Se1,Pb0.95Ba0.04Na0.01Se1,446.5,117170,0.00057673,0.000066603,1.9141,0.19534,0.0000085346,0.0003013061
3503,10.1021/ja400069s,105,6(a),393,Pb0.95Ba0.04Na0.01Se1,Pb0.95Ba0.04Na0.01Se1,447,116960,0.0005775,0.000066745,1.9121,0.19628,0.0000085499,0.000302024
3503,10.1021/ja400069s,105,6(a),393,Pb0.95Ba0.04Na0.01Se1,Pb0.95Ba0.04Na0.01Se1,447.5,116750,0.00057828,0.000066888,1.9101,0.19721,0.0000085653,0.0003027485
3503,10.1021/ja400069s,105,6(a),393,Pb0.95Ba0.04Na0.01Se1,Pb0.95Ba0.04Na0.01Se1,448,116540,0.00057905,0.000067031,1.9081,0.19815,0.0000085807,0.0003034694
3503,10.1021/ja400069s,105,6(a),393,Pb0.95Ba0.04Na0.01Se1,Pb0.95Ba0.04Na0.01Se1,448.5,116340,0.00057983,0.000067174,1.9062,0.19908,0.0000085955,0.0003041811
3503,10.1021/ja400069s,105,6(a),393,Pb0.95Ba0.04Na0.01Se1,Pb0.95Ba0.04Na0.01Se1,449,116130,0.0005806,0.000067317,1.9042,0.20001,0.000008611,0.0003049049
3503,10.1021/ja400069s,105,6(a),393,Pb0.95Ba0.04Na0.01Se1,Pb0.95Ba0.04Na0.01Se1,449.5,115920,0.00058138,0.000067461,1.9022,0.20095,0.0000086266,0.0003056356
3503,10.1021/ja400069s,105,6(a),393,Pb0.95Ba0.04Na0.01Se1,Pb0.95Ba0.04Na0.01Se1,450,115710,0.00058215,0.000067605,1.9002,0.20188,0.0000086423,0.0003063625
3503,10.1021/ja400069s,105,6(a),393,Pb0.95Ba0.04Na0.01Se1,Pb0.95Ba0.04Na0.01Se1,450.5,115510,0.00058293,0.000067749,1.8983,0.20282,0.0000086573,0.00030708
3503,10.1021/ja400069s,105,6(a),393,Pb0.95Ba0.04Na0.01Se1,Pb0.95Ba0.04Na0.01Se1,451,115300,0.0005837,0.000067893,1.8963,0.20375,0.000008673,0.0003078099
3503,10.1021/ja400069s,105,6(a),393,Pb0.95Ba0.04Na0.01Se1,Pb0.95Ba0.04Na0.01Se1,451.5,115100,0.00058448,0.000068038,1.8943,0.20468,0.0000086881,0.0003085467
3503,10.1021/ja400069s,105,6(a),393,Pb0.95Ba0.04Na0.01Se1,Pb0.95Ba0.04Na0.01Se1,452,114890,0.00058525,0.000068183,1.8924,0.20562,0.000008704,0.0003092634
3503,10.1021/ja400069s,105,6(a),393,Pb0.95Ba0.04Na0.01Se1,Pb0.95Ba0.04Na0.01Se1,452.5,114690,0.00058603,0.000068328,1.8904,0.20655,0.0000087192,0.0003100032
3503,10.1021/ja400069s,105,6(a),393,Pb0.95Ba0.04Na0.01Se1,Pb0.95Ba0.04Na0.01Se1,453,114480,0.00058681,0.000068474,1.8884,0.20748,0.0000087352,0.0003107445
3503,10.1021/ja400069s,105,6(a),393,Pb0.95Ba0.04Na0.01Se1,Pb0.95Ba0.04Na0.01Se1,453.5,114280,0.00058758,0.000068619,1.8865,0.20842,0.0000087504,0.0003114657
3503,10.1021/ja400069s,105,6(a),393,Pb0.95Ba0.04Na0.01Se1,Pb0.95Ba0.04Na0.01Se1,454,114070,0.00058836,0.000068765,1.8845,0.20935,0.0000087665,0.0003122101
3503,10.1021/ja400069s,105,6(a),393,Pb0.95Ba0.04Na0.01Se1,Pb0.95Ba0.04Na0.01Se1,454.5,113870,0.00058913,0.000068912,1.8826,0.21029,0.0000087819,0.0003129342
3503,10.1021/ja400069s,105,6(a),393,Pb0.95Ba0.04Na0.01Se1,Pb0.95Ba0.04Na0.01Se1,455,113660,0.00058991,0.000069058,1.8806,0.21122,0.0000087982,0.0003136818
3503,10.1021/ja400069s,105,6(a),393,Pb0.95Ba0.04Na0.01Se1,Pb0.95Ba0.04Na0.01Se1,455.5,113460,0.00059068,0.000069205,1.8787,0.21215,0.0000088137,0.0003144089
3503,10.1021/ja400069s,105,6(a),393,Pb0.95Ba0.04Na0.01Se1,Pb0.95Ba0.04Na0.01Se1,456,113250,0.00059146,0.000069352,1.8768,0.21309,0.00000883,0.0003151428
3503,10.1021/ja400069s,105,6(a),393,Pb0.95Ba0.04Na0.01Se1,Pb0.95Ba0.04Na0.01Se1,456.5,113050,0.00059223,0.000069499,1.8748,0.21402,0.0000088456,0.0003158897
3503,10.1021/ja400069s,105,6(a),393,Pb0.95Ba0.04Na0.01Se1,Pb0.95Ba0.04Na0.01Se1,457,112850,0.00059301,0.000069647,1.8729,0.21496,0.0000088613,0.0003166266
3503,10.1021/ja400069s,105,6(a),393,Pb0.95Ba0.04Na0.01Se1,Pb0.95Ba0.04Na0.01Se1,457.5,112650,0.00059378,0.000069795,1.871,0.21589,0.0000088771,0.0003173597
3503,10.1021/ja400069s,105,6(a),393,Pb0.95Ba0.04Na0.01Se1,Pb0.95Ba0.04Na0.01Se1,458,112440,0.00059456,0.000069943,1.869,0.21682,0.0000088936,0.0003181166
3503,10.1021/ja400069s,105,6(a),393,Pb0.95Ba0.04Na0.01Se1,Pb0.95Ba0.04Na0.01Se1,458.5,112240,0.00059533,0.000070091,1.8671,0.21776,0.0000089095,0.0003188528
3503,10.1021/ja400069s,105,6(a),393,Pb0.95Ba0.04Na0.01Se1,Pb0.95Ba0.04Na0.01Se1,459,112040,0.00059611,0.00007024,1.8652,0.21869,0.0000089254,0.0003195958
3503,10.1021/ja400069s,105,6(a),393,Pb0.95Ba0.04Na0.01Se1,Pb0.95Ba0.04Na0.01Se1,459.5,111840,0.00059688,0.000070389,1.8633,0.21962,0.0000089413,0.0003203349
3503,10.1021/ja400069s,105,6(a),393,Pb0.95Ba0.04Na0.01Se1,Pb0.95Ba0.04Na0.01Se1,460,111640,0.00059766,0.000070538,1.8613,0.22056,0.0000089574,0.0003210982
3503,10.1021/ja400069s,105,6(a),393,Pb0.95Ba0.04Na0.01Se1,Pb0.95Ba0.04Na0.01Se1,460.5,111440,0.00059843,0.000070688,1.8594,0.22149,0.0000089734,0.0003218404
3503,10.1021/ja400069s,105,6(a),393,Pb0.95Ba0.04Na0.01Se1,Pb0.95Ba0.04Na0.01Se1,461,111230,0.00059921,0.000070837,1.8575,0.22243,0.0000089904,0.0003225895
3503,10.1021/ja400069s,105,6(a),393,Pb0.95Ba0.04Na0.01Se1,Pb0.95Ba0.04Na0.01Se1,461.5,111030,0.00059998,0.000070987,1.8556,0.22336,0.0000090066,0.0003233348
3503,10.1021/ja400069s,105,6(a),393,Pb0.95Ba0.04Na0.01Se1,Pb0.95Ba0.04Na0.01Se1,462,110830,0.00060076,0.000071138,1.8537,0.22429,0.0000090228,0.000324087
3503,10.1021/ja400069s,105,6(a),393,Pb0.95Ba0.04Na0.01Se1,Pb0.95Ba0.04Na0.01Se1,462.5,110630,0.00060153,0.000071288,1.8518,0.22523,0.0000090391,0.0003248353
3503,10.1021/ja400069s,105,6(a),393,Pb0.95Ba0.04Na0.01Se1,Pb0.95Ba0.04Na0.01Se1,463,110430,0.00060231,0.000071439,1.8499,0.22616,0.0000090555,0.0003255906
3503,10.1021/ja400069s,105,6(a),393,Pb0.95Ba0.04Na0.01Se1,Pb0.95Ba0.04Na0.01Se1,463.5,110230,0.00060309,0.00007159,1.848,0.2271,0.0000090719,0.0003263474
3503,10.1021/ja400069s,105,6(a),393,Pb0.95Ba0.04Na0.01Se1,Pb0.95Ba0.04Na0.01Se1,464,110030,0.00060386,0.000071742,1.8461,0.22803,0.0000090884,0.0003271004
3503,10.1021/ja400069s,105,6(a),393,Pb0.95Ba0.04Na0.01Se1,Pb0.95Ba0.04Na0.01Se1,464.5,109840,0.00060464,0.000071893,1.8442,0.22896,0.0000091042,0.0003278603
3503,10.1021/ja400069s,105,6(a),393,Pb0.95Ba0.04Na0.01Se1,Pb0.95Ba0.04Na0.01Se1,465,109640,0.00060541,0.000072045,1.8423,0.2299,0.0000091208,0.0003286164
3503,10.1021/ja400069s,105,6(a),393,Pb0.95Ba0.04Na0.01Se1,Pb0.95Ba0.04Na0.01Se1,465.5,109440,0.00060619,0.000072197,1.8404,0.23083,0.0000091374,0.0003293795
3503,10.1021/ja400069s,105,6(a),393,Pb0.95Ba0.04Na0.01Se1,Pb0.95Ba0.04Na0.01Se1,466,109240,0.00060696,0.00007235,1.8386,0.23176,0.0000091542,0.0003301207
3503,10.1021/ja400069s,105,6(a),393,Pb0.95Ba0.04Na0.01Se1,Pb0.95Ba0.04Na0.01Se1,466.5,109040,0.00060774,0.000072503,1.8367,0.2327,0.0000091709,0.0003308869
3503,10.1021/ja400069s,105,6(a),393,Pb0.95Ba0.04Na0.01Se1,Pb0.95Ba0.04Na0.01Se1,467,108840,0.00060851,0.000072656,1.8348,0.23363,0.0000091878,0.0003316492
3503,10.1021/ja400069s,105,6(a),393,Pb0.95Ba0.04Na0.01Se1,Pb0.95Ba0.04Na0.01Se1,467.5,108650,0.00060929,0.000072809,1.8329,0.23457,0.0000092039,0.0003324186
3503,10.1021/ja400069s,105,6(a),393,Pb0.95Ba0.04Na0.01Se1,Pb0.95Ba0.04Na0.01Se1,468,108450,0.00061006,0.000072963,1.831,0.2355,0.0000092208,0.0003331841
3503,10.1021/ja400069s,105,6(a),393,Pb0.95Ba0.04Na0.01Se1,Pb0.95Ba0.04Na0.01Se1,468.5,108250,0.00061084,0.000073117,1.8292,0.23643,0.0000092379,0.0003339383
3503,10.1021/ja400069s,105,6(a),393,Pb0.95Ba0.04Na0.01Se1,Pb0.95Ba0.04Na0.01Se1,469,108060,0.00061161,0.000073271,1.8273,0.23737,0.0000092541,0.0003347069
3503,10.1021/ja400069s,105,6(a),393,Pb0.95Ba0.04Na0.01Se1,Pb0.95Ba0.04Na0.01Se1,469.5,107860,0.00061239,0.000073425,1.8254,0.2383,0.0000092713,0.0003354826
3503,10.1021/ja400069s,105,6(a),393,Pb0.95Ba0.04Na0.01Se1,Pb0.95Ba0.04Na0.01Se1,470,107660,0.00061316,0.00007358,1.8236,0.23924,0.0000092885,0.000336236
3503,10.1021/ja400069s,105,6(a),393,Pb0.95Ba0.04Na0.01Se1,Pb0.95Ba0.04Na0.01Se1,470.5,107470,0.00061394,0.000073735,1.8217,0.24017,0.0000093049,0.0003370149
3503,10.1021/ja400069s,105,6(a),393,Pb0.95Ba0.04Na0.01Se1,Pb0.95Ba0.04Na0.01Se1,471,107270,0.00061471,0.00007389,1.8199,0.2411,0.0000093223,0.0003377713
3503,10.1021/ja400069s,105,6(a),393,Pb0.95Ba0.04Na0.01Se1,Pb0.95Ba0.04Na0.01Se1,471.5,107080,0.00061549,0.000074046,1.818,0.24204,0.0000093388,0.0003385534
3503,10.1021/ja400069s,105,6(a),393,Pb0.95Ba0.04Na0.01Se1,Pb0.95Ba0.04Na0.01Se1,472,106880,0.00061626,0.000074202,1.8162,0.24297,0.0000093563,0.0003393129
3503,10.1021/ja400069s,105,6(a),393,Pb0.95Ba0.04Na0.01Se1,Pb0.95Ba0.04Na0.01Se1,472.5,106690,0.00061704,0.000074358,1.8143,0.2439,0.0000093729,0.0003400981
3503,10.1021/ja400069s,105,6(a),393,Pb0.95Ba0.04Na0.01Se1,Pb0.95Ba0.04Na0.01Se1,473,106490,0.00061781,0.000074514,1.8125,0.24484,0.0000093906,0.0003408607
3503,10.1021/ja400069s,105,6(a),393,Pb0.95Ba0.04Na0.01Se1,Pb0.95Ba0.04Na0.01Se1,473.5,106300,0.00061859,0.000074671,1.8106,0.24577,0.0000094073,0.0003416492
3503,10.1021/ja400069s,105,6(a),393,Pb0.95Ba0.04Na0.01Se1,Pb0.95Ba0.04Na0.01Se1,474,106100,0.00061936,0.000074828,1.8088,0.24671,0.0000094251,0.0003424149
3503,10.1021/ja400069s,105,6(a),393,Pb0.95Ba0.04Na0.01Se1,Pb0.95Ba0.04Na0.01Se1,474.5,105910,0.00062014,0.000074985,1.807,0.24764,0.000009442,0.0003431876
3503,10.1021/ja400069s,105,6(a),393,Pb0.95Ba0.04Na0.01Se1,Pb0.95Ba0.04Na0.01Se1,475,105710,0.00062092,0.000075143,1.8051,0.24857,0.0000094598,0.0003439809
3503,10.1021/ja400069s,105,6(a),393,Pb0.95Ba0.04Na0.01Se1,Pb0.95Ba0.04Na0.01Se1,475.5,105520,0.00062169,0.0000753,1.8033,0.24951,0.0000094769,0.0003447513
3503,10.1021/ja400069s,105,6(a),393,Pb0.95Ba0.04Na0.01Se1,Pb0.95Ba0.04Na0.01Se1,476,105330,0.00062247,0.000075458,1.8015,0.25044,0.000009494,0.0003455287
3503,10.1021/ja400069s,105,6(a),393,Pb0.95Ba0.04Na0.01Se1,Pb0.95Ba0.04Na0.01Se1,476.5,105140,0.00062324,0.000075617,1.7996,0.25138,0.0000095111,0.0003463214
3503,10.1021/ja400069s,105,6(a),393,Pb0.95Ba0.04Na0.01Se1,Pb0.95Ba0.04Na0.01Se1,477,104940,0.00062402,0.000075776,1.7978,0.25231,0.0000095293,0.000347102
3503,10.1021/ja400069s,105,6(a),393,Pb0.95Ba0.04Na0.01Se1,Pb0.95Ba0.04Na0.01Se1,477.5,104750,0.00062479,0.000075934,1.796,0.25324,0.0000095465,0.0003478786
3503,10.1021/ja400069s,105,6(a),393,Pb0.95Ba0.04Na0.01Se1,Pb0.95Ba0.04Na0.01Se1,478,104560,0.00062557,0.000076094,1.7942,0.25418,0.0000095639,0.0003486624
3503,10.1021/ja400069s,105,6(a),393,Pb0.95Ba0.04Na0.01Se1,Pb0.95Ba0.04Na0.01Se1,478.5,104370,0.00062634,0.000076253,1.7924,0.25511,0.0000095813,0.0003494421
3503,10.1021/ja400069s,105,6(a),393,Pb0.95Ba0.04Na0.01Se1,Pb0.95Ba0.04Na0.01Se1,479,104170,0.00062712,0.000076413,1.7905,0.25604,0.0000095997,0.0003502485
3503,10.1021/ja400069s,105,6(a),393,Pb0.95Ba0.04Na0.01Se1,Pb0.95Ba0.04Na0.01Se1,479.5,103980,0.00062789,0.000076573,1.7887,0.25698,0.0000096172,0.0003510315
3503,10.1021/ja400069s,105,6(a),393,Pb0.95Ba0.04Na0.01Se1,Pb0.95Ba0.04Na0.01Se1,480,103790,0.00062867,0.000076733,1.7869,0.25791,0.0000096348,0.0003518216
3503,10.1021/ja400069s,105,6(a),393,Pb0.95Ba0.04Na0.01Se1,Pb0.95Ba0.04Na0.01Se1,480.5,103600,0.00062944,0.000076894,1.7851,0.25885,0.0000096525,0.0003526077
3503,10.1021/ja400069s,105,6(a),393,Pb0.95Ba0.04Na0.01Se1,Pb0.95Ba0.04Na0.01Se1,481,103410,0.00063022,0.000077055,1.7833,0.25978,0.0000096702,0.000353401
3503,10.1021/ja400069s,105,6(a),393,Pb0.95Ba0.04Na0.01Se1,Pb0.95Ba0.04Na0.01Se1,481.5,103220,0.00063099,0.000077216,1.7815,0.26071,0.000009688,0.0003541903
3503,10.1021/ja400069s,105,6(a),393,Pb0.95Ba0.04Na0.01Se1,Pb0.95Ba0.04Na0.01Se1,482,103030,0.00063177,0.000077378,1.7797,0.26165,0.0000097059,0.0003549868
3503,10.1021/ja400069s,105,6(a),393,Pb0.95Ba0.04Na0.01Se1,Pb0.95Ba0.04Na0.01Se1,482.5,102840,0.00063254,0.00007754,1.7779,0.26258,0.0000097238,0.0003557793
3503,10.1021/ja400069s,105,6(a),393,Pb0.95Ba0.04Na0.01Se1,Pb0.95Ba0.04Na0.01Se1,483,102650,0.00063332,0.000077702,1.7761,0.26352,0.0000097418,0.000356579
3503,10.1021/ja400069s,105,6(a),393,Pb0.95Ba0.04Na0.01Se1,Pb0.95Ba0.04Na0.01Se1,483.5,102460,0.00063409,0.000077864,1.7744,0.26445,0.0000097599,0.0003573546
3503,10.1021/ja400069s,105,6(a),393,Pb0.95Ba0.04Na0.01Se1,Pb0.95Ba0.04Na0.01Se1,484,102270,0.00063487,0.000078027,1.7726,0.26538,0.000009778,0.0003581575
3503,10.1021/ja400069s,105,6(a),393,Pb0.95Ba0.04Na0.01Se1,Pb0.95Ba0.04Na0.01Se1,484.5,102080,0.00063564,0.00007819,1.7708,0.26632,0.0000097962,0.0003589564
3503,10.1021/ja400069s,105,6(a),393,Pb0.95Ba0.04Na0.01Se1,Pb0.95Ba0.04Na0.01Se1,485,101890,0.00063642,0.000078353,1.769,0.26725,0.0000098145,0.0003597626
3503,10.1021/ja400069s,105,6(a),393,Pb0.95Ba0.04Na0.01Se1,Pb0.95Ba0.04Na0.01Se1,485.5,101700,0.00063719,0.000078516,1.7672,0.26818,0.0000098328,0.0003605647
3503,10.1021/ja400069s,105,6(a),393,Pb0.95Ba0.04Na0.01Se1,Pb0.95Ba0.04Na0.01Se1,486,101520,0.00063797,0.00007868,1.7654,0.26912,0.0000098503,0.0003613742
3503,10.1021/ja400069s,105,6(a),393,Pb0.95Ba0.04Na0.01Se1,Pb0.95Ba0.04Na0.01Se1,486.5,101330,0.00063875,0.000078844,1.7637,0.27005,0.0000098687,0.0003621648
3503,10.1021/ja400069s,105,6(a),393,Pb0.95Ba0.04Na0.01Se1,Pb0.95Ba0.04Na0.01Se1,487,101140,0.00063952,0.000079009,1.7619,0.27099,0.0000098873,0.0003629718
3503,10.1021/ja400069s,105,6(a),393,Pb0.95Ba0.04Na0.01Se1,Pb0.95Ba0.04Na0.01Se1,487.5,100950,0.0006403,0.000079173,1.7601,0.27192,0.0000099059,0.0003637861
3503,10.1021/ja400069s,105,6(a),393,Pb0.95Ba0.04Na0.01Se1,Pb0.95Ba0.04Na0.01Se1,488,100770,0.00064107,0.000079338,1.7584,0.27285,0.0000099236,0.0003645758
3503,10.1021/ja400069s,105,6(a),393,Pb0.95Ba0.04Na0.01Se1,Pb0.95Ba0.04Na0.01Se1,488.5,100580,0.00064185,0.000079504,1.7566,0.27379,0.0000099423,0.0003653934
3503,10.1021/ja400069s,105,6(a),393,Pb0.95Ba0.04Na0.01Se1,Pb0.95Ba0.04Na0.01Se1,489,100390,0.00064262,0.000079669,1.7548,0.27472,0.0000099612,0.000366207
3503,10.1021/ja400069s,105,6(a),393,Pb0.95Ba0.04Na0.01Se1,Pb0.95Ba0.04Na0.01Se1,489.5,100210,0.0006434,0.000079835,1.7531,0.27566,0.000009979,0.000367007
3503,10.1021/ja400069s,105,6(a),393,Pb0.95Ba0.04Na0.01Se1,Pb0.95Ba0.04Na0.01Se1,490,100020,0.00064417,0.000080001,1.7513,0.27659,0.000009998,0.0003678239
3503,10.1021/ja400069s,105,6(a),393,Pb0.95Ba0.04Na0.01Se1,Pb0.95Ba0.04Na0.01Se1,490.5,99833,0.00064495,0.000080167,1.7496,0.27752,0.0000100167,0.0003686271
3503,10.1021/ja400069s,105,6(a),393,Pb0.95Ba0.04Na0.01Se1,Pb0.95Ba0.04Na0.01Se1,491,99647,0.00064572,0.000080334,1.7478,0.27846,0.0000100354,0.0003694473
3503,10.1021/ja400069s,105,6(a),393,Pb0.95Ba0.04Na0.01Se1,Pb0.95Ba0.04Na0.01Se1,491.5,99462,0.0006465,0.000080501,1.7461,0.27939,0.0000100541,0.0003702537
3503,10.1021/ja400069s,105,6(a),393,Pb0.95Ba0.04Na0.01Se1,Pb0.95Ba0.04Na0.01Se1,492,99276,0.00064727,0.000080668,1.7443,0.28032,0.0000100729,0.0003710772
3503,10.1021/ja400069s,105,6(a),393,Pb0.95Ba0.04Na0.01Se1,Pb0.95Ba0.04Na0.01Se1,492.5,99091,0.00064805,0.000080836,1.7426,0.28126,0.0000100917,0.0003718868
3503,10.1021/ja400069s,105,6(a),393,Pb0.95Ba0.04Na0.01Se1,Pb0.95Ba0.04Na0.01Se1,493,98906,0.00064882,0.000081004,1.7409,0.28219,0.0000101106,0.0003726923
3503,10.1021/ja400069s,105,6(a),393,Pb0.95Ba0.04Na0.01Se1,Pb0.95Ba0.04Na0.01Se1,493.5,98722,0.0006496,0.000081172,1.7391,0.28313,0.0000101295,0.0003735265