sid,DOI,figureid,fignum,sampleid,samplename,composition,Temperature,Electrical conductivity,Power factor,Seebeck coefficient,Thermal conductivity,ZT,Electrical resistivity,Figure of merit Z
3503,10.1021/ja400069s,105,6(a),286,Pb0.98Sr0.01Na0.01Se1,Pb0.98Sr0.01Na0.01Se1,818.5,,0.0013343,0.00020143,1.2112,0.83023,,0.0011016347
3503,10.1021/ja400069s,105,6(a),286,Pb0.98Sr0.01Na0.01Se1,Pb0.98Sr0.01Na0.01Se1,819,,0.0013353,0.00020167,1.2103,0.8312,,0.0011032802
3503,10.1021/ja400069s,105,6(a),286,Pb0.98Sr0.01Na0.01Se1,Pb0.98Sr0.01Na0.01Se1,819.5,,0.0013363,0.00020191,1.2094,0.83218,,0.0011049281
3503,10.1021/ja400069s,105,6(a),286,Pb0.98Sr0.01Na0.01Se1,Pb0.98Sr0.01Na0.01Se1,820,,0.0013373,0.00020215,1.2086,0.83315,,0.0011064868
3503,10.1021/ja400069s,105,6(a),286,Pb0.98Sr0.01Na0.01Se1,Pb0.98Sr0.01Na0.01Se1,820.5,,0.0013384,0.00020239,1.2077,0.83413,,0.0011082222
3503,10.1021/ja400069s,105,6(a),286,Pb0.98Sr0.01Na0.01Se1,Pb0.98Sr0.01Na0.01Se1,821,,0.0013394,0.00020263,1.2068,0.8351,,0.0011098774
3503,10.1021/ja400069s,105,6(a),286,Pb0.98Sr0.01Na0.01Se1,Pb0.98Sr0.01Na0.01Se1,821.5,,0.0013404,0.00020287,1.206,0.83608,,0.0011114428
3503,10.1021/ja400069s,105,6(a),286,Pb0.98Sr0.01Na0.01Se1,Pb0.98Sr0.01Na0.01Se1,822,,0.0013414,0.00020311,1.2051,0.83705,,0.0011131026
3503,10.1021/ja400069s,105,6(a),286,Pb0.98Sr0.01Na0.01Se1,Pb0.98Sr0.01Na0.01Se1,822.5,,0.0013424,0.00020335,1.2043,0.83803,,0.0011146724
3503,10.1021/ja400069s,105,6(a),286,Pb0.98Sr0.01Na0.01Se1,Pb0.98Sr0.01Na0.01Se1,823,,0.0013434,0.00020359,1.2034,0.839,,0.001116337
3503,10.1021/ja400069s,105,6(a),286,Pb0.98Sr0.01Na0.01Se1,Pb0.98Sr0.01Na0.01Se1,823.5,,0.0013445,0.00020383,1.2026,0.83998,,0.0011179943
3503,10.1021/ja400069s,105,6(a),286,Pb0.98Sr0.01Na0.01Se1,Pb0.98Sr0.01Na0.01Se1,824,,0.0013455,0.00020407,1.2017,0.84095,,0.0011196638
3503,10.1021/ja400069s,105,6(a),286,Pb0.98Sr0.01Na0.01Se1,Pb0.98Sr0.01Na0.01Se1,824.5,,0.0013465,0.00020431,1.2009,0.84192,,0.0011212424
3503,10.1021/ja400069s,105,6(a),286,Pb0.98Sr0.01Na0.01Se1,Pb0.98Sr0.01Na0.01Se1,825,,0.0013475,0.00020455,1.2,0.8429,,0.0011229167
3503,10.1021/ja400069s,105,6(a),286,Pb0.98Sr0.01Na0.01Se1,Pb0.98Sr0.01Na0.01Se1,825.5,,0.0013485,0.00020479,1.1992,0.84387,,0.0011244997
3503,10.1021/ja400069s,105,6(a),286,Pb0.98Sr0.01Na0.01Se1,Pb0.98Sr0.01Na0.01Se1,826,,0.0013495,0.00020503,1.1984,0.84485,,0.0011260848
3503,10.1021/ja400069s,105,6(a),286,Pb0.98Sr0.01Na0.01Se1,Pb0.98Sr0.01Na0.01Se1,826.5,,0.0013505,0.00020527,1.1975,0.84582,,0.0011277662
3503,10.1021/ja400069s,105,6(a),286,Pb0.98Sr0.01Na0.01Se1,Pb0.98Sr0.01Na0.01Se1,827,,0.0013516,0.00020551,1.1967,0.8468,,0.0011294393
3503,10.1021/ja400069s,105,6(a),286,Pb0.98Sr0.01Na0.01Se1,Pb0.98Sr0.01Na0.01Se1,827.5,,0.0013526,0.00020576,1.1959,0.84777,,0.001131031
3503,10.1021/ja400069s,105,6(a),286,Pb0.98Sr0.01Na0.01Se1,Pb0.98Sr0.01Na0.01Se1,828,,0.0013536,0.000206,1.1951,0.84875,,0.0011326249
3503,10.1021/ja400069s,105,6(a),286,Pb0.98Sr0.01Na0.01Se1,Pb0.98Sr0.01Na0.01Se1,828.5,,0.0013546,0.00020624,1.1943,0.84972,,0.0011342209
3503,10.1021/ja400069s,105,6(a),286,Pb0.98Sr0.01Na0.01Se1,Pb0.98Sr0.01Na0.01Se1,829,,0.0013556,0.00020648,1.1934,0.8507,,0.0011359142
3503,10.1021/ja400069s,105,6(a),286,Pb0.98Sr0.01Na0.01Se1,Pb0.98Sr0.01Na0.01Se1,829.5,,0.0013566,0.00020672,1.1926,0.85167,,0.0011375147
3503,10.1021/ja400069s,105,6(a),286,Pb0.98Sr0.01Na0.01Se1,Pb0.98Sr0.01Na0.01Se1,830,,0.0013577,0.00020697,1.1918,0.85265,,0.0011392012
3503,10.1021/ja400069s,105,6(a),286,Pb0.98Sr0.01Na0.01Se1,Pb0.98Sr0.01Na0.01Se1,830.5,,0.0013587,0.00020721,1.191,0.85362,,0.001140806
3503,10.1021/ja400069s,105,6(a),286,Pb0.98Sr0.01Na0.01Se1,Pb0.98Sr0.01Na0.01Se1,831,,0.0013597,0.00020745,1.1902,0.8546,,0.001142413
3503,10.1021/ja400069s,105,6(a),286,Pb0.98Sr0.01Na0.01Se1,Pb0.98Sr0.01Na0.01Se1,831.5,,0.0013607,0.00020769,1.1894,0.85557,,0.0011440222
3503,10.1021/ja400069s,105,6(a),286,Pb0.98Sr0.01Na0.01Se1,Pb0.98Sr0.01Na0.01Se1,832,,0.0013617,0.00020794,1.1886,0.85655,,0.0011456335
3503,10.1021/ja400069s,105,6(a),286,Pb0.98Sr0.01Na0.01Se1,Pb0.98Sr0.01Na0.01Se1,832.5,,0.0013627,0.00020818,1.1878,0.85752,,0.001147247
3503,10.1021/ja400069s,105,6(a),286,Pb0.98Sr0.01Na0.01Se1,Pb0.98Sr0.01Na0.01Se1,833,,0.0013637,0.00020842,1.187,0.8585,,0.0011488627
3503,10.1021/ja400069s,105,6(a),286,Pb0.98Sr0.01Na0.01Se1,Pb0.98Sr0.01Na0.01Se1,833.5,,0.0013648,0.00020867,1.1863,0.85947,,0.0011504678
3503,10.1021/ja400069s,105,6(a),286,Pb0.98Sr0.01Na0.01Se1,Pb0.98Sr0.01Na0.01Se1,834,,0.0013658,0.00020891,1.1855,0.86045,,0.0011520877
3503,10.1021/ja400069s,105,6(a),286,Pb0.98Sr0.01Na0.01Se1,Pb0.98Sr0.01Na0.01Se1,834.5,,0.0013668,0.00020915,1.1847,0.86142,,0.0011537098
3503,10.1021/ja400069s,105,6(a),286,Pb0.98Sr0.01Na0.01Se1,Pb0.98Sr0.01Na0.01Se1,835,,0.0013678,0.0002094,1.1839,0.8624,,0.0011553341
3503,10.1021/ja400069s,105,6(a),286,Pb0.98Sr0.01Na0.01Se1,Pb0.98Sr0.01Na0.01Se1,835.5,,0.0013688,0.00020964,1.1831,0.86337,,0.0011569605
3503,10.1021/ja400069s,105,6(a),286,Pb0.98Sr0.01Na0.01Se1,Pb0.98Sr0.01Na0.01Se1,836,,0.0013698,0.00020988,1.1824,0.86435,,0.0011584912
3503,10.1021/ja400069s,105,6(a),286,Pb0.98Sr0.01Na0.01Se1,Pb0.98Sr0.01Na0.01Se1,836.5,,0.0013709,0.00021013,1.1816,0.86532,,0.0011602065
3503,10.1021/ja400069s,105,6(a),286,Pb0.98Sr0.01Na0.01Se1,Pb0.98Sr0.01Na0.01Se1,837,,0.0013719,0.00021037,1.1808,0.8663,,0.0011618394
3503,10.1021/ja400069s,105,6(a),286,Pb0.98Sr0.01Na0.01Se1,Pb0.98Sr0.01Na0.01Se1,837.5,,0.0013729,0.00021062,1.1801,0.86727,,0.001163376
3503,10.1021/ja400069s,105,6(a),286,Pb0.98Sr0.01Na0.01Se1,Pb0.98Sr0.01Na0.01Se1,838,,0.0013739,0.00021086,1.1793,0.86825,,0.0011650131
3503,10.1021/ja400069s,105,6(a),286,Pb0.98Sr0.01Na0.01Se1,Pb0.98Sr0.01Na0.01Se1,838.5,,0.0013749,0.00021111,1.1786,0.86922,,0.0011665535
3503,10.1021/ja400069s,105,6(a),286,Pb0.98Sr0.01Na0.01Se1,Pb0.98Sr0.01Na0.01Se1,839,,0.0013759,0.00021135,1.1778,0.87019,,0.0011681949
3503,10.1021/ja400069s,105,6(a),286,Pb0.98Sr0.01Na0.01Se1,Pb0.98Sr0.01Na0.01Se1,839.5,,0.0013769,0.0002116,1.1771,0.87117,,0.0011697392
3503,10.1021/ja400069s,105,6(a),286,Pb0.98Sr0.01Na0.01Se1,Pb0.98Sr0.01Na0.01Se1,840,,0.001378,0.00021184,1.1763,0.87214,,0.0011714699
3503,10.1021/ja400069s,105,6(a),286,Pb0.98Sr0.01Na0.01Se1,Pb0.98Sr0.01Na0.01Se1,840.5,,0.001379,0.00021209,1.1756,0.87312,,0.001173018
3503,10.1021/ja400069s,105,6(a),286,Pb0.98Sr0.01Na0.01Se1,Pb0.98Sr0.01Na0.01Se1,841,,0.00138,0.00021233,1.1748,0.87409,,0.001174668
3503,10.1021/ja400069s,105,6(a),286,Pb0.98Sr0.01Na0.01Se1,Pb0.98Sr0.01Na0.01Se1,841.5,,0.001381,0.00021258,1.1741,0.87507,,0.0011762201
3503,10.1021/ja400069s,105,6(a),286,Pb0.98Sr0.01Na0.01Se1,Pb0.98Sr0.01Na0.01Se1,842,,0.001382,0.00021283,1.1734,0.87604,,0.001177774
3503,10.1021/ja400069s,105,6(a),286,Pb0.98Sr0.01Na0.01Se1,Pb0.98Sr0.01Na0.01Se1,842.5,,0.001383,0.00021307,1.1726,0.87702,,0.0011794303
3503,10.1021/ja400069s,105,6(a),286,Pb0.98Sr0.01Na0.01Se1,Pb0.98Sr0.01Na0.01Se1,843,,0.0013841,0.00021332,1.1719,0.87799,,0.0011810735
3503,10.1021/ja400069s,105,6(a),286,Pb0.98Sr0.01Na0.01Se1,Pb0.98Sr0.01Na0.01Se1,843.5,,0.0013851,0.00021357,1.1712,0.87897,,0.0011826332
3503,10.1021/ja400069s,105,6(a),286,Pb0.98Sr0.01Na0.01Se1,Pb0.98Sr0.01Na0.01Se1,844,,0.0013861,0.00021381,1.1705,0.87994,,0.0011841948
3503,10.1021/ja400069s,105,6(a),286,Pb0.98Sr0.01Na0.01Se1,Pb0.98Sr0.01Na0.01Se1,844.5,,0.0013871,0.00021406,1.1698,0.88092,,0.0011857582
3503,10.1021/ja400069s,105,6(a),286,Pb0.98Sr0.01Na0.01Se1,Pb0.98Sr0.01Na0.01Se1,845,,0.0013881,0.00021431,1.169,0.88189,,0.0011874251
3503,10.1021/ja400069s,105,6(a),286,Pb0.98Sr0.01Na0.01Se1,Pb0.98Sr0.01Na0.01Se1,845.5,,0.0013891,0.00021455,1.1683,0.88287,,0.0011889926
3503,10.1021/ja400069s,105,6(a),286,Pb0.98Sr0.01Na0.01Se1,Pb0.98Sr0.01Na0.01Se1,846,,0.0013901,0.0002148,1.1676,0.88384,,0.0011905618
3503,10.1021/ja400069s,105,6(a),286,Pb0.98Sr0.01Na0.01Se1,Pb0.98Sr0.01Na0.01Se1,846.5,,0.0013912,0.00021505,1.1669,0.88482,,0.0011922187
3503,10.1021/ja400069s,105,6(a),286,Pb0.98Sr0.01Na0.01Se1,Pb0.98Sr0.01Na0.01Se1,847,,0.0013922,0.0002153,1.1662,0.88579,,0.0011937918
3503,10.1021/ja400069s,105,6(a),286,Pb0.98Sr0.01Na0.01Se1,Pb0.98Sr0.01Na0.01Se1,847.5,,0.0013932,0.00021554,1.1655,0.88677,,0.0011953668
3503,10.1021/ja400069s,105,6(a),286,Pb0.98Sr0.01Na0.01Se1,Pb0.98Sr0.01Na0.01Se1,848,,0.0013942,0.00021579,1.1648,0.88774,,0.0011969437
3503,10.1021/ja400069s,105,6(a),286,Pb0.98Sr0.01Na0.01Se1,Pb0.98Sr0.01Na0.01Se1,848.5,,0.0013952,0.00021604,1.1641,0.88872,,0.0011985225
3503,10.1021/ja400069s,105,6(a),286,Pb0.98Sr0.01Na0.01Se1,Pb0.98Sr0.01Na0.01Se1,849,,0.0013962,0.00021629,1.1634,0.88969,,0.0012001031
3503,10.1021/ja400069s,105,6(a),286,Pb0.98Sr0.01Na0.01Se1,Pb0.98Sr0.01Na0.01Se1,849.5,,0.0013973,0.00021654,1.1628,0.89067,,0.0012016684
3503,10.1021/ja400069s,105,6(a),286,Pb0.98Sr0.01Na0.01Se1,Pb0.98Sr0.01Na0.01Se1,850,,0.0013983,0.00021679,1.1621,0.89164,,0.0012032527
3503,10.1021/ja400069s,105,6(a),286,Pb0.98Sr0.01Na0.01Se1,Pb0.98Sr0.01Na0.01Se1,850.5,,0.0013993,0.00021704,1.1614,0.89262,,0.001204839
3503,10.1021/ja400069s,105,6(a),286,Pb0.98Sr0.01Na0.01Se1,Pb0.98Sr0.01Na0.01Se1,851,,0.0014003,0.00021729,1.1607,0.89359,,0.0012064272
3503,10.1021/ja400069s,105,6(a),286,Pb0.98Sr0.01Na0.01Se1,Pb0.98Sr0.01Na0.01Se1,851.5,,0.0014013,0.00021753,1.16,0.89457,,0.0012080172
3503,10.1021/ja400069s,105,6(a),286,Pb0.98Sr0.01Na0.01Se1,Pb0.98Sr0.01Na0.01Se1,852,,0.0014023,0.00021778,1.1594,0.89554,,0.0012095049
3503,10.1021/ja400069s,105,6(a),286,Pb0.98Sr0.01Na0.01Se1,Pb0.98Sr0.01Na0.01Se1,852.5,,0.0014033,0.00021803,1.1587,0.89652,,0.0012110986
3503,10.1021/ja400069s,105,6(a),286,Pb0.98Sr0.01Na0.01Se1,Pb0.98Sr0.01Na0.01Se1,853,,0.0014044,0.00021828,1.158,0.89749,,0.0012127807
3503,10.1021/ja400069s,105,6(a),286,Pb0.98Sr0.01Na0.01Se1,Pb0.98Sr0.01Na0.01Se1,853.5,,0.0014054,0.00021853,1.1574,0.89847,,0.0012142734
3503,10.1021/ja400069s,105,6(a),286,Pb0.98Sr0.01Na0.01Se1,Pb0.98Sr0.01Na0.01Se1,854,,0.0014064,0.00021878,1.1567,0.89944,,0.0012158727
3503,10.1021/ja400069s,105,6(a),286,Pb0.98Sr0.01Na0.01Se1,Pb0.98Sr0.01Na0.01Se1,854.5,,0.0014074,0.00021904,1.1561,0.90041,,0.0012173687
3503,10.1021/ja400069s,105,6(a),286,Pb0.98Sr0.01Na0.01Se1,Pb0.98Sr0.01Na0.01Se1,855,,0.0014084,0.00021929,1.1554,0.90139,,0.0012189718
3503,10.1021/ja400069s,105,6(a),286,Pb0.98Sr0.01Na0.01Se1,Pb0.98Sr0.01Na0.01Se1,855.5,,0.0014094,0.00021954,1.1548,0.90236,,0.0012204711
3503,10.1021/ja400069s,105,6(a),286,Pb0.98Sr0.01Na0.01Se1,Pb0.98Sr0.01Na0.01Se1,856,,0.0014105,0.00021979,1.1541,0.90334,,0.0012221645
3503,10.1021/ja400069s,105,6(a),286,Pb0.98Sr0.01Na0.01Se1,Pb0.98Sr0.01Na0.01Se1,856.5,,0.0014115,0.00022004,1.1535,0.90431,,0.0012236671
3503,10.1021/ja400069s,105,6(a),286,Pb0.98Sr0.01Na0.01Se1,Pb0.98Sr0.01Na0.01Se1,857,,0.0014125,0.00022029,1.1528,0.90529,,0.0012252776
3503,10.1021/ja400069s,105,6(a),286,Pb0.98Sr0.01Na0.01Se1,Pb0.98Sr0.01Na0.01Se1,857.5,,0.0014135,0.00022054,1.1522,0.90626,,0.0012267835
3503,10.1021/ja400069s,105,6(a),286,Pb0.98Sr0.01Na0.01Se1,Pb0.98Sr0.01Na0.01Se1,858,,0.0014145,0.00022079,1.1516,0.90724,,0.0012282911
3503,10.1021/ja400069s,105,6(a),286,Pb0.98Sr0.01Na0.01Se1,Pb0.98Sr0.01Na0.01Se1,858.5,,0.0014155,0.00022105,1.1509,0.90821,,0.001229907
3503,10.1021/ja400069s,105,6(a),286,Pb0.98Sr0.01Na0.01Se1,Pb0.98Sr0.01Na0.01Se1,859,,0.0014165,0.0002213,1.1503,0.90919,,0.0012314179
3503,10.1021/ja400069s,105,6(a),286,Pb0.98Sr0.01Na0.01Se1,Pb0.98Sr0.01Na0.01Se1,859.5,,0.0014176,0.00022155,1.1497,0.91016,,0.0012330173
3503,10.1021/ja400069s,105,6(a),286,Pb0.98Sr0.01Na0.01Se1,Pb0.98Sr0.01Na0.01Se1,860,,0.0014186,0.0002218,1.1491,0.91114,,0.0012345314
3503,10.1021/ja400069s,105,6(a),286,Pb0.98Sr0.01Na0.01Se1,Pb0.98Sr0.01Na0.01Se1,860.5,,0.0014196,0.00022206,1.1484,0.91211,,0.0012361546
3503,10.1021/ja400069s,105,6(a),286,Pb0.98Sr0.01Na0.01Se1,Pb0.98Sr0.01Na0.01Se1,861,,0.0014206,0.00022231,1.1478,0.91309,,0.0012376721
3503,10.1021/ja400069s,105,6(a),286,Pb0.98Sr0.01Na0.01Se1,Pb0.98Sr0.01Na0.01Se1,861.5,,0.0014216,0.00022256,1.1472,0.91406,,0.0012391911
3503,10.1021/ja400069s,105,6(a),286,Pb0.98Sr0.01Na0.01Se1,Pb0.98Sr0.01Na0.01Se1,862,,0.0014226,0.00022282,1.1466,0.91504,,0.0012407117
3503,10.1021/ja400069s,105,6(a),286,Pb0.98Sr0.01Na0.01Se1,Pb0.98Sr0.01Na0.01Se1,862.5,,0.0014236,0.00022307,1.146,0.91601,,0.0012422339
3503,10.1021/ja400069s,105,6(a),286,Pb0.98Sr0.01Na0.01Se1,Pb0.98Sr0.01Na0.01Se1,863,,0.0014247,0.00022333,1.1454,0.91699,,0.0012438449
3503,10.1021/ja400069s,105,6(a),286,Pb0.98Sr0.01Na0.01Se1,Pb0.98Sr0.01Na0.01Se1,863.5,,0.0014257,0.00022358,1.1448,0.91796,,0.0012453704
3503,10.1021/ja400069s,105,6(a),286,Pb0.98Sr0.01Na0.01Se1,Pb0.98Sr0.01Na0.01Se1,864,,0.0014267,0.00022384,1.1442,0.91894,,0.0012468974
3503,10.1021/ja400069s,105,6(a),286,Pb0.98Sr0.01Na0.01Se1,Pb0.98Sr0.01Na0.01Se1,864.5,,0.0014277,0.00022409,1.1436,0.91991,,0.001248426
3503,10.1021/ja400069s,105,6(a),286,Pb0.98Sr0.01Na0.01Se1,Pb0.98Sr0.01Na0.01Se1,865,,0.0014287,0.00022434,1.143,0.92089,,0.0012499563
3503,10.1021/ja400069s,105,6(a),286,Pb0.98Sr0.01Na0.01Se1,Pb0.98Sr0.01Na0.01Se1,865.5,,0.0014297,0.0002246,1.1424,0.92186,,0.0012514881
3503,10.1021/ja400069s,105,6(a),286,Pb0.98Sr0.01Na0.01Se1,Pb0.98Sr0.01Na0.01Se1,866,,0.0014308,0.00022486,1.1418,0.92284,,0.0012531091
3503,10.1021/ja400069s,105,6(a),286,Pb0.98Sr0.01Na0.01Se1,Pb0.98Sr0.01Na0.01Se1,866.5,,0.0014318,0.00022511,1.1413,0.92381,,0.0012545343
3503,10.1021/ja400069s,105,6(a),286,Pb0.98Sr0.01Na0.01Se1,Pb0.98Sr0.01Na0.01Se1,867,,0.0014328,0.00022537,1.1407,0.92479,,0.0012560708
3503,10.1021/ja400069s,105,6(a),286,Pb0.98Sr0.01Na0.01Se1,Pb0.98Sr0.01Na0.01Se1,867.5,,0.0014338,0.00022562,1.1401,0.92576,,0.001257609
3503,10.1021/ja400069s,105,6(a),286,Pb0.98Sr0.01Na0.01Se1,Pb0.98Sr0.01Na0.01Se1,868,,0.0014348,0.00022588,1.1395,0.92674,,0.0012591487
3503,10.1021/ja400069s,105,6(a),286,Pb0.98Sr0.01Na0.01Se1,Pb0.98Sr0.01Na0.01Se1,868.5,,0.0014358,0.00022614,1.139,0.92771,,0.0012605795
3503,10.1021/ja400069s,105,6(a),286,Pb0.98Sr0.01Na0.01Se1,Pb0.98Sr0.01Na0.01Se1,869,,0.0014368,0.00022639,1.1384,0.92868,,0.0012621223
3503,10.1021/ja400069s,105,6(a),286,Pb0.98Sr0.01Na0.01Se1,Pb0.98Sr0.01Na0.01Se1,869.5,,0.0014379,0.00022665,1.1378,0.92966,,0.0012637546
3503,10.1021/ja400069s,105,6(a),286,Pb0.98Sr0.01Na0.01Se1,Pb0.98Sr0.01Na0.01Se1,870,,0.0014389,0.00022691,1.1373,0.93063,,0.0012651895
3503,10.1021/ja400069s,105,6(a),286,Pb0.98Sr0.01Na0.01Se1,Pb0.98Sr0.01Na0.01Se1,870.5,,0.0014399,0.00022716,1.1367,0.93161,,0.001266737
3503,10.1021/ja400069s,105,6(a),286,Pb0.98Sr0.01Na0.01Se1,Pb0.98Sr0.01Na0.01Se1,871,,0.0014409,0.00022742,1.1362,0.93258,,0.0012681746
3503,10.1021/ja400069s,105,6(a),286,Pb0.98Sr0.01Na0.01Se1,Pb0.98Sr0.01Na0.01Se1,871.5,,0.0014419,0.00022768,1.1356,0.93356,,0.0012697253
3503,10.1021/ja400069s,105,6(a),286,Pb0.98Sr0.01Na0.01Se1,Pb0.98Sr0.01Na0.01Se1,872,,0.0014429,0.00022794,1.1351,0.93453,,0.0012711655
3503,10.1021/ja400069s,105,6(a),286,Pb0.98Sr0.01Na0.01Se1,Pb0.98Sr0.01Na0.01Se1,872.5,,0.001444,0.0002282,1.1345,0.93551,,0.0012728074
3503,10.1021/ja400069s,105,6(a),286,Pb0.98Sr0.01Na0.01Se1,Pb0.98Sr0.01Na0.01Se1,873,,0.001445,0.00022846,1.134,0.93648,,0.0012742504
3503,10.1021/ja400069s,105,6(a),286,Pb0.98Sr0.01Na0.01Se1,Pb0.98Sr0.01Na0.01Se1,873.5,,0.001446,0.00022871,1.1334,0.93746,,0.0012758073
3503,10.1021/ja400069s,105,6(a),286,Pb0.98Sr0.01Na0.01Se1,Pb0.98Sr0.01Na0.01Se1,874,,0.001447,0.00022897,1.1329,0.93843,,0.0012772531
3503,10.1021/ja400069s,105,6(a),286,Pb0.98Sr0.01Na0.01Se1,Pb0.98Sr0.01Na0.01Se1,874.5,,0.001448,0.00022923,1.1324,0.93941,,0.0012787001
3503,10.1021/ja400069s,105,6(a),286,Pb0.98Sr0.01Na0.01Se1,Pb0.98Sr0.01Na0.01Se1,875,,0.001449,0.00022949,1.1318,0.94038,,0.0012802615
3503,10.1021/ja400069s,105,6(a),286,Pb0.98Sr0.01Na0.01Se1,Pb0.98Sr0.01Na0.01Se1,875.5,,0.00145,0.00022975,1.1313,0.94136,,0.0012817113
3503,10.1021/ja400069s,105,6(a),286,Pb0.98Sr0.01Na0.01Se1,Pb0.98Sr0.01Na0.01Se1,876,,0.0014511,0.00023001,1.1308,0.94233,,0.0012832508
3503,10.1021/ja400069s,105,6(a),286,Pb0.98Sr0.01Na0.01Se1,Pb0.98Sr0.01Na0.01Se1,876.5,,0.0014521,0.00023027,1.1303,0.94331,,0.0012847032
3503,10.1021/ja400069s,105,6(a),286,Pb0.98Sr0.01Na0.01Se1,Pb0.98Sr0.01Na0.01Se1,877,,0.0014531,0.00023053,1.1298,0.94428,,0.0012861568
3503,10.1021/ja400069s,105,6(a),286,Pb0.98Sr0.01Na0.01Se1,Pb0.98Sr0.01Na0.01Se1,877.5,,0.0014541,0.0002308,1.1292,0.94526,,0.0012877258
3503,10.1021/ja400069s,105,6(a),286,Pb0.98Sr0.01Na0.01Se1,Pb0.98Sr0.01Na0.01Se1,878,,0.0014551,0.00023106,1.1287,0.94623,,0.0012891822
3503,10.1021/ja400069s,105,6(a),286,Pb0.98Sr0.01Na0.01Se1,Pb0.98Sr0.01Na0.01Se1,878.5,,0.0014561,0.00023132,1.1282,0.94721,,0.00129064
3503,10.1021/ja400069s,105,6(a),286,Pb0.98Sr0.01Na0.01Se1,Pb0.98Sr0.01Na0.01Se1,879,,0.0014572,0.00023158,1.1277,0.94818,,0.0012921876
3503,10.1021/ja400069s,105,6(a),286,Pb0.98Sr0.01Na0.01Se1,Pb0.98Sr0.01Na0.01Se1,879.5,,0.0014582,0.00023184,1.1272,0.94916,,0.001293648
3503,10.1021/ja400069s,105,6(a),286,Pb0.98Sr0.01Na0.01Se1,Pb0.98Sr0.01Na0.01Se1,880,,0.0014592,0.0002321,1.1267,0.95013,,0.0012951096
3503,10.1021/ja400069s,105,6(a),286,Pb0.98Sr0.01Na0.01Se1,Pb0.98Sr0.01Na0.01Se1,880.5,,0.0014602,0.00023237,1.1262,0.95111,,0.0012965725
3503,10.1021/ja400069s,105,6(a),286,Pb0.98Sr0.01Na0.01Se1,Pb0.98Sr0.01Na0.01Se1,881,,0.0014612,0.00023263,1.1257,0.95208,,0.0012980368
3503,10.1021/ja400069s,105,6(a),286,Pb0.98Sr0.01Na0.01Se1,Pb0.98Sr0.01Na0.01Se1,881.5,,0.0014622,0.00023289,1.1253,0.95306,,0.0012993868
3503,10.1021/ja400069s,105,6(a),286,Pb0.98Sr0.01Na0.01Se1,Pb0.98Sr0.01Na0.01Se1,882,,0.0014632,0.00023316,1.1248,0.95403,,0.0013008535
3503,10.1021/ja400069s,105,6(a),286,Pb0.98Sr0.01Na0.01Se1,Pb0.98Sr0.01Na0.01Se1,882.5,,0.0014643,0.00023342,1.1243,0.95501,,0.0013024104
3503,10.1021/ja400069s,105,6(a),286,Pb0.98Sr0.01Na0.01Se1,Pb0.98Sr0.01Na0.01Se1,883,,0.0014653,0.00023368,1.1238,0.95598,,0.0013038797
3503,10.1021/ja400069s,105,6(a),286,Pb0.98Sr0.01Na0.01Se1,Pb0.98Sr0.01Na0.01Se1,883.5,,0.0014663,0.00023395,1.1233,0.95696,,0.0013053503
3503,10.1021/ja400069s,105,6(a),286,Pb0.98Sr0.01Na0.01Se1,Pb0.98Sr0.01Na0.01Se1,884,,0.0014673,0.00023421,1.1229,0.95793,,0.0013067059
3503,10.1021/ja400069s,105,6(a),286,Pb0.98Sr0.01Na0.01Se1,Pb0.98Sr0.01Na0.01Se1,884.5,,0.0014683,0.00023448,1.1224,0.9589,,0.0013081789
3503,10.1021/ja400069s,105,6(a),286,Pb0.98Sr0.01Na0.01Se1,Pb0.98Sr0.01Na0.01Se1,885,,0.0014693,0.00023474,1.1219,0.95988,,0.0013096533
3503,10.1021/ja400069s,105,6(a),286,Pb0.98Sr0.01Na0.01Se1,Pb0.98Sr0.01Na0.01Se1,885.5,,0.0014704,0.00023501,1.1215,0.96085,,0.0013111012
3503,10.1021/ja400069s,105,6(a),286,Pb0.98Sr0.01Na0.01Se1,Pb0.98Sr0.01Na0.01Se1,886,,0.0014714,0.00023527,1.121,0.96183,,0.0013125781
3503,10.1021/ja400069s,105,6(a),286,Pb0.98Sr0.01Na0.01Se1,Pb0.98Sr0.01Na0.01Se1,886.5,,0.0014724,0.00023554,1.1205,0.9628,,0.0013140562
3503,10.1021/ja400069s,105,6(a),286,Pb0.98Sr0.01Na0.01Se1,Pb0.98Sr0.01Na0.01Se1,887,,0.0014734,0.0002358,1.1201,0.96378,,0.0013154183
3503,10.1021/ja400069s,105,6(a),286,Pb0.98Sr0.01Na0.01Se1,Pb0.98Sr0.01Na0.01Se1,887.5,,0.0014744,0.00023607,1.1196,0.96475,,0.0013168989
3503,10.1021/ja400069s,105,6(a),286,Pb0.98Sr0.01Na0.01Se1,Pb0.98Sr0.01Na0.01Se1,888,,0.0014754,0.00023634,1.1192,0.96573,,0.001318263
3503,10.1021/ja400069s,105,6(a),286,Pb0.98Sr0.01Na0.01Se1,Pb0.98Sr0.01Na0.01Se1,888.5,,0.0014764,0.0002366,1.1187,0.9667,,0.0013197461
3503,10.1021/ja400069s,105,6(a),286,Pb0.98Sr0.01Na0.01Se1,Pb0.98Sr0.01Na0.01Se1,889,,0.0014775,0.00023687,1.1183,0.96768,,0.0013212018
3503,10.1021/ja400069s,105,6(a),286,Pb0.98Sr0.01Na0.01Se1,Pb0.98Sr0.01Na0.01Se1,889.5,,0.0014785,0.00023714,1.1179,0.96865,,0.0013225691
3503,10.1021/ja400069s,105,6(a),286,Pb0.98Sr0.01Na0.01Se1,Pb0.98Sr0.01Na0.01Se1,890,,0.0014795,0.00023741,1.1174,0.96963,,0.0013240558
3503,10.1021/ja400069s,105,6(a),286,Pb0.98Sr0.01Na0.01Se1,Pb0.98Sr0.01Na0.01Se1,890.5,,0.0014805,0.00023768,1.117,0.9706,,0.0013254252
3503,10.1021/ja400069s,105,6(a),286,Pb0.98Sr0.01Na0.01Se1,Pb0.98Sr0.01Na0.01Se1,891,,0.0014815,0.00023794,1.1166,0.97158,,0.0013267956