sid,DOI,figureid,fignum,sampleid,samplename,composition,Temperature,Electrical conductivity,Power factor,Seebeck coefficient,Thermal conductivity,ZT,Electrical resistivity,Figure of merit Z
3503,10.1021/ja400069s,105,6(a),286,Pb0.98Sr0.01Na0.01Se1,Pb0.98Sr0.01Na0.01Se1,682.5,63817,0.0010581,0.00013968,1.5631,0.56507,0.0000156698,0.0006769241
3503,10.1021/ja400069s,105,6(a),286,Pb0.98Sr0.01Na0.01Se1,Pb0.98Sr0.01Na0.01Se1,683,63667,0.0010592,0.00013989,1.5614,0.56605,0.0000157067,0.0006783656
3503,10.1021/ja400069s,105,6(a),286,Pb0.98Sr0.01Na0.01Se1,Pb0.98Sr0.01Na0.01Se1,683.5,63517,0.0010602,0.00014011,1.5597,0.56702,0.0000157438,0.0006797461
3503,10.1021/ja400069s,105,6(a),286,Pb0.98Sr0.01Na0.01Se1,Pb0.98Sr0.01Na0.01Se1,684,63367,0.0010612,0.00014033,1.558,0.568,0.0000157811,0.0006811297
3503,10.1021/ja400069s,105,6(a),286,Pb0.98Sr0.01Na0.01Se1,Pb0.98Sr0.01Na0.01Se1,684.5,63217,0.0010622,0.00014054,1.5563,0.56897,0.0000158185,0.0006825162
3503,10.1021/ja400069s,105,6(a),286,Pb0.98Sr0.01Na0.01Se1,Pb0.98Sr0.01Na0.01Se1,685,63068,0.0010632,0.00014076,1.5546,0.56995,0.0000158559,0.0006839058
3503,10.1021/ja400069s,105,6(a),286,Pb0.98Sr0.01Na0.01Se1,Pb0.98Sr0.01Na0.01Se1,685.5,62919,0.0010642,0.00014098,1.5529,0.57092,0.0000158935,0.0006852985
3503,10.1021/ja400069s,105,6(a),286,Pb0.98Sr0.01Na0.01Se1,Pb0.98Sr0.01Na0.01Se1,686,62771,0.0010652,0.0001412,1.5512,0.5719,0.0000159309,0.0006866942
3503,10.1021/ja400069s,105,6(a),286,Pb0.98Sr0.01Na0.01Se1,Pb0.98Sr0.01Na0.01Se1,686.5,62623,0.0010663,0.00014141,1.5496,0.57287,0.0000159686,0.0006881131
3503,10.1021/ja400069s,105,6(a),286,Pb0.98Sr0.01Na0.01Se1,Pb0.98Sr0.01Na0.01Se1,687,62475,0.0010673,0.00014163,1.5479,0.57385,0.0000160064,0.0006895148
3503,10.1021/ja400069s,105,6(a),286,Pb0.98Sr0.01Na0.01Se1,Pb0.98Sr0.01Na0.01Se1,687.5,62327,0.0010683,0.00014185,1.5462,0.57482,0.0000160444,0.0006909197
3503,10.1021/ja400069s,105,6(a),286,Pb0.98Sr0.01Na0.01Se1,Pb0.98Sr0.01Na0.01Se1,688,62180,0.0010693,0.00014206,1.5445,0.5758,0.0000160823,0.0006923276
3503,10.1021/ja400069s,105,6(a),286,Pb0.98Sr0.01Na0.01Se1,Pb0.98Sr0.01Na0.01Se1,688.5,62034,0.0010703,0.00014228,1.5429,0.57677,0.0000161202,0.0006936937
3503,10.1021/ja400069s,105,6(a),286,Pb0.98Sr0.01Na0.01Se1,Pb0.98Sr0.01Na0.01Se1,689,61888,0.0010713,0.0001425,1.5412,0.57775,0.0000161582,0.0006951077
3503,10.1021/ja400069s,105,6(a),286,Pb0.98Sr0.01Na0.01Se1,Pb0.98Sr0.01Na0.01Se1,689.5,61742,0.0010724,0.00014272,1.5395,0.57872,0.0000161964,0.0006965898
3503,10.1021/ja400069s,105,6(a),286,Pb0.98Sr0.01Na0.01Se1,Pb0.98Sr0.01Na0.01Se1,690,61596,0.0010734,0.00014294,1.5379,0.57969,0.0000162348,0.0006979648
3503,10.1021/ja400069s,105,6(a),286,Pb0.98Sr0.01Na0.01Se1,Pb0.98Sr0.01Na0.01Se1,690.5,61451,0.0010744,0.00014315,1.5362,0.58067,0.0000162731,0.0006993881
3503,10.1021/ja400069s,105,6(a),286,Pb0.98Sr0.01Na0.01Se1,Pb0.98Sr0.01Na0.01Se1,691,61306,0.0010754,0.00014337,1.5345,0.58164,0.0000163116,0.0007008146
3503,10.1021/ja400069s,105,6(a),286,Pb0.98Sr0.01Na0.01Se1,Pb0.98Sr0.01Na0.01Se1,691.5,61162,0.0010764,0.00014359,1.5329,0.58262,0.00001635,0.0007021984
3503,10.1021/ja400069s,105,6(a),286,Pb0.98Sr0.01Na0.01Se1,Pb0.98Sr0.01Na0.01Se1,692,61018,0.0010774,0.00014381,1.5312,0.58359,0.0000163886,0.0007036311
3503,10.1021/ja400069s,105,6(a),286,Pb0.98Sr0.01Na0.01Se1,Pb0.98Sr0.01Na0.01Se1,692.5,60874,0.0010784,0.00014403,1.5296,0.58457,0.0000164274,0.0007050209
3503,10.1021/ja400069s,105,6(a),286,Pb0.98Sr0.01Na0.01Se1,Pb0.98Sr0.01Na0.01Se1,693,60731,0.0010795,0.00014424,1.5279,0.58554,0.0000164661,0.0007065253
3503,10.1021/ja400069s,105,6(a),286,Pb0.98Sr0.01Na0.01Se1,Pb0.98Sr0.01Na0.01Se1,693.5,60588,0.0010805,0.00014446,1.5263,0.58652,0.0000165049,0.0007079211
3503,10.1021/ja400069s,105,6(a),286,Pb0.98Sr0.01Na0.01Se1,Pb0.98Sr0.01Na0.01Se1,694,60445,0.0010815,0.00014468,1.5247,0.58749,0.000016544,0.0007093199
3503,10.1021/ja400069s,105,6(a),286,Pb0.98Sr0.01Na0.01Se1,Pb0.98Sr0.01Na0.01Se1,694.5,60303,0.0010825,0.0001449,1.523,0.58847,0.0000165829,0.0007107682
3503,10.1021/ja400069s,105,6(a),286,Pb0.98Sr0.01Na0.01Se1,Pb0.98Sr0.01Na0.01Se1,695,60161,0.0010835,0.00014512,1.5214,0.58944,0.0000166221,0.000712173
3503,10.1021/ja400069s,105,6(a),286,Pb0.98Sr0.01Na0.01Se1,Pb0.98Sr0.01Na0.01Se1,695.5,60020,0.0010845,0.00014534,1.5198,0.59042,0.0000166611,0.0007135807
3503,10.1021/ja400069s,105,6(a),286,Pb0.98Sr0.01Na0.01Se1,Pb0.98Sr0.01Na0.01Se1,696,59879,0.0010856,0.00014556,1.5181,0.59139,0.0000167003,0.0007151044
3503,10.1021/ja400069s,105,6(a),286,Pb0.98Sr0.01Na0.01Se1,Pb0.98Sr0.01Na0.01Se1,696.5,59738,0.0010866,0.00014577,1.5165,0.59237,0.0000167398,0.0007165183
3503,10.1021/ja400069s,105,6(a),286,Pb0.98Sr0.01Na0.01Se1,Pb0.98Sr0.01Na0.01Se1,697,59597,0.0010876,0.00014599,1.5149,0.59334,0.0000167794,0.0007179352
3503,10.1021/ja400069s,105,6(a),286,Pb0.98Sr0.01Na0.01Se1,Pb0.98Sr0.01Na0.01Se1,697.5,59457,0.0010886,0.00014621,1.5133,0.59432,0.0000168189,0.0007193551
3503,10.1021/ja400069s,105,6(a),286,Pb0.98Sr0.01Na0.01Se1,Pb0.98Sr0.01Na0.01Se1,698,59318,0.0010896,0.00014643,1.5116,0.59529,0.0000168583,0.0007208256
3503,10.1021/ja400069s,105,6(a),286,Pb0.98Sr0.01Na0.01Se1,Pb0.98Sr0.01Na0.01Se1,698.5,59179,0.0010906,0.00014665,1.51,0.59627,0.0000168979,0.0007222517
3503,10.1021/ja400069s,105,6(a),286,Pb0.98Sr0.01Na0.01Se1,Pb0.98Sr0.01Na0.01Se1,699,59040,0.0010916,0.00014687,1.5084,0.59724,0.0000169377,0.0007236807
3503,10.1021/ja400069s,105,6(a),286,Pb0.98Sr0.01Na0.01Se1,Pb0.98Sr0.01Na0.01Se1,699.5,58901,0.0010927,0.00014709,1.5068,0.59822,0.0000169776,0.0007251792
3503,10.1021/ja400069s,105,6(a),286,Pb0.98Sr0.01Na0.01Se1,Pb0.98Sr0.01Na0.01Se1,700,58763,0.0010937,0.00014731,1.5052,0.59919,0.0000170175,0.0007266144
3503,10.1021/ja400069s,105,6(a),286,Pb0.98Sr0.01Na0.01Se1,Pb0.98Sr0.01Na0.01Se1,700.5,58625,0.0010947,0.00014753,1.5036,0.60017,0.0000170576,0.0007280527
3503,10.1021/ja400069s,105,6(a),286,Pb0.98Sr0.01Na0.01Se1,Pb0.98Sr0.01Na0.01Se1,701,58488,0.0010957,0.00014775,1.502,0.60114,0.0000170975,0.000729494
3503,10.1021/ja400069s,105,6(a),286,Pb0.98Sr0.01Na0.01Se1,Pb0.98Sr0.01Na0.01Se1,701.5,58351,0.0010967,0.00014797,1.5004,0.60212,0.0000171377,0.0007309384
3503,10.1021/ja400069s,105,6(a),286,Pb0.98Sr0.01Na0.01Se1,Pb0.98Sr0.01Na0.01Se1,702,58214,0.0010977,0.00014819,1.4988,0.60309,0.000017178,0.0007323859
3503,10.1021/ja400069s,105,6(a),286,Pb0.98Sr0.01Na0.01Se1,Pb0.98Sr0.01Na0.01Se1,702.5,58078,0.0010988,0.00014841,1.4972,0.60407,0.0000172182,0.0007339033
3503,10.1021/ja400069s,105,6(a),286,Pb0.98Sr0.01Na0.01Se1,Pb0.98Sr0.01Na0.01Se1,703,57942,0.0010998,0.00014863,1.4957,0.60504,0.0000172586,0.0007353079
3503,10.1021/ja400069s,105,6(a),286,Pb0.98Sr0.01Na0.01Se1,Pb0.98Sr0.01Na0.01Se1,703.5,57807,0.0011008,0.00014885,1.4941,0.60602,0.0000172989,0.0007367646
3503,10.1021/ja400069s,105,6(a),286,Pb0.98Sr0.01Na0.01Se1,Pb0.98Sr0.01Na0.01Se1,704,57671,0.0011018,0.00014907,1.4925,0.60699,0.0000173397,0.0007382245
3503,10.1021/ja400069s,105,6(a),286,Pb0.98Sr0.01Na0.01Se1,Pb0.98Sr0.01Na0.01Se1,704.5,57537,0.0011028,0.00014929,1.4909,0.60796,0.0000173801,0.0007396874
3503,10.1021/ja400069s,105,6(a),286,Pb0.98Sr0.01Na0.01Se1,Pb0.98Sr0.01Na0.01Se1,705,57402,0.0011038,0.00014951,1.4893,0.60894,0.000017421,0.0007411536
3503,10.1021/ja400069s,105,6(a),286,Pb0.98Sr0.01Na0.01Se1,Pb0.98Sr0.01Na0.01Se1,705.5,57268,0.0011048,0.00014973,1.4878,0.60991,0.0000174618,0.0007425729
3503,10.1021/ja400069s,105,6(a),286,Pb0.98Sr0.01Na0.01Se1,Pb0.98Sr0.01Na0.01Se1,706,57135,0.0011059,0.00014995,1.4862,0.61089,0.0000175024,0.0007441125
3503,10.1021/ja400069s,105,6(a),286,Pb0.98Sr0.01Na0.01Se1,Pb0.98Sr0.01Na0.01Se1,706.5,57001,0.0011069,0.00015017,1.4846,0.61186,0.0000175436,0.000745588
3503,10.1021/ja400069s,105,6(a),286,Pb0.98Sr0.01Na0.01Se1,Pb0.98Sr0.01Na0.01Se1,707,56869,0.0011079,0.00015039,1.4831,0.61284,0.0000175843,0.0007470164
3503,10.1021/ja400069s,105,6(a),286,Pb0.98Sr0.01Na0.01Se1,Pb0.98Sr0.01Na0.01Se1,707.5,56736,0.0011089,0.00015061,1.4815,0.61381,0.0000176255,0.0007484981
3503,10.1021/ja400069s,105,6(a),286,Pb0.98Sr0.01Na0.01Se1,Pb0.98Sr0.01Na0.01Se1,708,56604,0.0011099,0.00015083,1.48,0.61479,0.0000176666,0.0007499324
3503,10.1021/ja400069s,105,6(a),286,Pb0.98Sr0.01Na0.01Se1,Pb0.98Sr0.01Na0.01Se1,708.5,56472,0.0011109,0.00015105,1.4784,0.61576,0.0000177079,0.0007514205
3503,10.1021/ja400069s,105,6(a),286,Pb0.98Sr0.01Na0.01Se1,Pb0.98Sr0.01Na0.01Se1,709,56341,0.001112,0.00015127,1.4769,0.61674,0.0000177491,0.0007529284
3503,10.1021/ja400069s,105,6(a),286,Pb0.98Sr0.01Na0.01Se1,Pb0.98Sr0.01Na0.01Se1,709.5,56210,0.001113,0.00015149,1.4753,0.61771,0.0000177904,0.0007544228
3503,10.1021/ja400069s,105,6(a),286,Pb0.98Sr0.01Na0.01Se1,Pb0.98Sr0.01Na0.01Se1,710,56079,0.001114,0.00015171,1.4738,0.61869,0.000017832,0.0007558692
3503,10.1021/ja400069s,105,6(a),286,Pb0.98Sr0.01Na0.01Se1,Pb0.98Sr0.01Na0.01Se1,710.5,55949,0.001115,0.00015193,1.4722,0.61966,0.0000178734,0.0007573699
3503,10.1021/ja400069s,105,6(a),286,Pb0.98Sr0.01Na0.01Se1,Pb0.98Sr0.01Na0.01Se1,711,55819,0.001116,0.00015215,1.4707,0.62064,0.000017915,0.0007588223
3503,10.1021/ja400069s,105,6(a),286,Pb0.98Sr0.01Na0.01Se1,Pb0.98Sr0.01Na0.01Se1,711.5,55690,0.001117,0.00015238,1.4692,0.62161,0.0000179565,0.0007602777
3503,10.1021/ja400069s,105,6(a),286,Pb0.98Sr0.01Na0.01Se1,Pb0.98Sr0.01Na0.01Se1,712,55561,0.001118,0.0001526,1.4676,0.62259,0.0000179982,0.000761788
3503,10.1021/ja400069s,105,6(a),286,Pb0.98Sr0.01Na0.01Se1,Pb0.98Sr0.01Na0.01Se1,712.5,55432,0.0011191,0.00015282,1.4661,0.62356,0.0000180401,0.0007633176
3503,10.1021/ja400069s,105,6(a),286,Pb0.98Sr0.01Na0.01Se1,Pb0.98Sr0.01Na0.01Se1,713,55304,0.0011201,0.00015304,1.4646,0.62454,0.0000180819,0.0007647822
3503,10.1021/ja400069s,105,6(a),286,Pb0.98Sr0.01Na0.01Se1,Pb0.98Sr0.01Na0.01Se1,713.5,55176,0.0011211,0.00015326,1.4631,0.62551,0.0000181238,0.0007662497
3503,10.1021/ja400069s,105,6(a),286,Pb0.98Sr0.01Na0.01Se1,Pb0.98Sr0.01Na0.01Se1,714,55048,0.0011221,0.00015348,1.4616,0.62649,0.000018166,0.0007677203
3503,10.1021/ja400069s,105,6(a),286,Pb0.98Sr0.01Na0.01Se1,Pb0.98Sr0.01Na0.01Se1,714.5,54921,0.0011231,0.0001537,1.46,0.62746,0.000018208,0.0007692466
3503,10.1021/ja400069s,105,6(a),286,Pb0.98Sr0.01Na0.01Se1,Pb0.98Sr0.01Na0.01Se1,715,54795,0.0011241,0.00015393,1.4585,0.62844,0.0000182498,0.0007707233
3503,10.1021/ja400069s,105,6(a),286,Pb0.98Sr0.01Na0.01Se1,Pb0.98Sr0.01Na0.01Se1,715.5,54668,0.0011251,0.00015415,1.457,0.62941,0.0000182922,0.0007722032
3503,10.1021/ja400069s,105,6(a),286,Pb0.98Sr0.01Na0.01Se1,Pb0.98Sr0.01Na0.01Se1,716,54542,0.0011262,0.00015437,1.4555,0.63039,0.0000183345,0.0007737547
3503,10.1021/ja400069s,105,6(a),286,Pb0.98Sr0.01Na0.01Se1,Pb0.98Sr0.01Na0.01Se1,716.5,54417,0.0011272,0.00015459,1.454,0.63136,0.0000183766,0.0007752407
3503,10.1021/ja400069s,105,6(a),286,Pb0.98Sr0.01Na0.01Se1,Pb0.98Sr0.01Na0.01Se1,717,54291,0.0011282,0.00015481,1.4525,0.63234,0.0000184193,0.0007767298
3503,10.1021/ja400069s,105,6(a),286,Pb0.98Sr0.01Na0.01Se1,Pb0.98Sr0.01Na0.01Se1,717.5,54167,0.0011292,0.00015503,1.451,0.63331,0.0000184614,0.0007782219
3503,10.1021/ja400069s,105,6(a),286,Pb0.98Sr0.01Na0.01Se1,Pb0.98Sr0.01Na0.01Se1,718,54042,0.0011302,0.00015526,1.4495,0.63429,0.0000185041,0.0007797171
3503,10.1021/ja400069s,105,6(a),286,Pb0.98Sr0.01Na0.01Se1,Pb0.98Sr0.01Na0.01Se1,718.5,53918,0.0011312,0.00015548,1.448,0.63526,0.0000185467,0.0007812155
3503,10.1021/ja400069s,105,6(a),286,Pb0.98Sr0.01Na0.01Se1,Pb0.98Sr0.01Na0.01Se1,719,53795,0.0011323,0.0001557,1.4465,0.63624,0.0000185891,0.000782786
3503,10.1021/ja400069s,105,6(a),286,Pb0.98Sr0.01Na0.01Se1,Pb0.98Sr0.01Na0.01Se1,719.5,53671,0.0011333,0.00015592,1.445,0.63721,0.000018632,0.0007842907
3503,10.1021/ja400069s,105,6(a),286,Pb0.98Sr0.01Na0.01Se1,Pb0.98Sr0.01Na0.01Se1,720,53548,0.0011343,0.00015615,1.4436,0.63818,0.0000186748,0.000785744
3503,10.1021/ja400069s,105,6(a),286,Pb0.98Sr0.01Na0.01Se1,Pb0.98Sr0.01Na0.01Se1,720.5,53426,0.0011353,0.00015637,1.4421,0.63916,0.0000187175,0.0007872547
3503,10.1021/ja400069s,105,6(a),286,Pb0.98Sr0.01Na0.01Se1,Pb0.98Sr0.01Na0.01Se1,721,53304,0.0011363,0.00015659,1.4406,0.64013,0.0000187603,0.0007887686
3503,10.1021/ja400069s,105,6(a),286,Pb0.98Sr0.01Na0.01Se1,Pb0.98Sr0.01Na0.01Se1,721.5,53182,0.0011373,0.00015681,1.4391,0.64111,0.0000188034,0.0007902856
3503,10.1021/ja400069s,105,6(a),286,Pb0.98Sr0.01Na0.01Se1,Pb0.98Sr0.01Na0.01Se1,722,53061,0.0011383,0.00015704,1.4377,0.64208,0.0000188462,0.0007917507
3503,10.1021/ja400069s,105,6(a),286,Pb0.98Sr0.01Na0.01Se1,Pb0.98Sr0.01Na0.01Se1,722.5,52940,0.0011394,0.00015726,1.4362,0.64306,0.0000188893,0.0007933435
3503,10.1021/ja400069s,105,6(a),286,Pb0.98Sr0.01Na0.01Se1,Pb0.98Sr0.01Na0.01Se1,723,52820,0.0011404,0.00015748,1.4347,0.64403,0.0000189322,0.00079487
3503,10.1021/ja400069s,105,6(a),286,Pb0.98Sr0.01Na0.01Se1,Pb0.98Sr0.01Na0.01Se1,723.5,52699,0.0011414,0.0001577,1.4333,0.64501,0.0000189757,0.0007963441
3503,10.1021/ja400069s,105,6(a),286,Pb0.98Sr0.01Na0.01Se1,Pb0.98Sr0.01Na0.01Se1,724,52580,0.0011424,0.00015793,1.4318,0.64598,0.0000190186,0.0007978768
3503,10.1021/ja400069s,105,6(a),286,Pb0.98Sr0.01Na0.01Se1,Pb0.98Sr0.01Na0.01Se1,724.5,52460,0.0011434,0.00015815,1.4304,0.64696,0.0000190621,0.0007993568
3503,10.1021/ja400069s,105,6(a),286,Pb0.98Sr0.01Na0.01Se1,Pb0.98Sr0.01Na0.01Se1,725,52342,0.0011444,0.00015837,1.4289,0.64793,0.0000191051,0.0008008958
3503,10.1021/ja400069s,105,6(a),286,Pb0.98Sr0.01Na0.01Se1,Pb0.98Sr0.01Na0.01Se1,725.5,52223,0.0011455,0.0001586,1.4275,0.64891,0.0000191487,0.0008024518
3503,10.1021/ja400069s,105,6(a),286,Pb0.98Sr0.01Na0.01Se1,Pb0.98Sr0.01Na0.01Se1,726,52105,0.0011465,0.00015882,1.426,0.64988,0.000019192,0.0008039972
3503,10.1021/ja400069s,105,6(a),286,Pb0.98Sr0.01Na0.01Se1,Pb0.98Sr0.01Na0.01Se1,726.5,51987,0.0011475,0.00015904,1.4246,0.65086,0.0000192356,0.0008054893
3503,10.1021/ja400069s,105,6(a),286,Pb0.98Sr0.01Na0.01Se1,Pb0.98Sr0.01Na0.01Se1,727,51870,0.0011485,0.00015927,1.4231,0.65183,0.000019279,0.000807041
3503,10.1021/ja400069s,105,6(a),286,Pb0.98Sr0.01Na0.01Se1,Pb0.98Sr0.01Na0.01Se1,727.5,51753,0.0011495,0.00015949,1.4217,0.65281,0.0000193226,0.0008085391
3503,10.1021/ja400069s,105,6(a),286,Pb0.98Sr0.01Na0.01Se1,Pb0.98Sr0.01Na0.01Se1,728,51636,0.0011505,0.00015971,1.4203,0.65378,0.0000193663,0.0008100401
3503,10.1021/ja400069s,105,6(a),286,Pb0.98Sr0.01Na0.01Se1,Pb0.98Sr0.01Na0.01Se1,728.5,51520,0.0011515,0.00015994,1.4188,0.65476,0.0000194099,0.0008116014
3503,10.1021/ja400069s,105,6(a),286,Pb0.98Sr0.01Na0.01Se1,Pb0.98Sr0.01Na0.01Se1,729,51405,0.0011526,0.00016016,1.4174,0.65573,0.0000194534,0.0008131791
3503,10.1021/ja400069s,105,6(a),286,Pb0.98Sr0.01Na0.01Se1,Pb0.98Sr0.01Na0.01Se1,729.5,51289,0.0011536,0.00016038,1.416,0.65671,0.0000194974,0.0008146893
3503,10.1021/ja400069s,105,6(a),286,Pb0.98Sr0.01Na0.01Se1,Pb0.98Sr0.01Na0.01Se1,730,51174,0.0011546,0.00016061,1.4146,0.65768,0.0000195412,0.0008162025
3503,10.1021/ja400069s,105,6(a),286,Pb0.98Sr0.01Na0.01Se1,Pb0.98Sr0.01Na0.01Se1,730.5,51060,0.0011556,0.00016083,1.4131,0.65866,0.0000195848,0.0008177765
3503,10.1021/ja400069s,105,6(a),286,Pb0.98Sr0.01Na0.01Se1,Pb0.98Sr0.01Na0.01Se1,731,50946,0.0011566,0.00016105,1.4117,0.65963,0.0000196286,0.0008192959
3503,10.1021/ja400069s,105,6(a),286,Pb0.98Sr0.01Na0.01Se1,Pb0.98Sr0.01Na0.01Se1,731.5,50832,0.0011576,0.00016128,1.4103,0.66061,0.0000196726,0.0008208183
3503,10.1021/ja400069s,105,6(a),286,Pb0.98Sr0.01Na0.01Se1,Pb0.98Sr0.01Na0.01Se1,732,50719,0.0011587,0.0001615,1.4089,0.66158,0.0000197165,0.0008224146
3503,10.1021/ja400069s,105,6(a),286,Pb0.98Sr0.01Na0.01Se1,Pb0.98Sr0.01Na0.01Se1,732.5,50606,0.0011597,0.00016173,1.4075,0.66256,0.0000197605,0.0008239432
3503,10.1021/ja400069s,105,6(a),286,Pb0.98Sr0.01Na0.01Se1,Pb0.98Sr0.01Na0.01Se1,733,50493,0.0011607,0.00016195,1.4061,0.66353,0.0000198047,0.0008254747
3503,10.1021/ja400069s,105,6(a),286,Pb0.98Sr0.01Na0.01Se1,Pb0.98Sr0.01Na0.01Se1,733.5,50381,0.0011617,0.00016218,1.4047,0.66451,0.0000198488,0.0008270093
3503,10.1021/ja400069s,105,6(a),286,Pb0.98Sr0.01Na0.01Se1,Pb0.98Sr0.01Na0.01Se1,734,50270,0.0011627,0.0001624,1.4033,0.66548,0.0000198926,0.000828547
3503,10.1021/ja400069s,105,6(a),286,Pb0.98Sr0.01Na0.01Se1,Pb0.98Sr0.01Na0.01Se1,734.5,50158,0.0011637,0.00016262,1.4019,0.66645,0.000019937,0.0008300877
3503,10.1021/ja400069s,105,6(a),286,Pb0.98Sr0.01Na0.01Se1,Pb0.98Sr0.01Na0.01Se1,735,50048,0.0011647,0.00016285,1.4005,0.66743,0.0000199808,0.0008316316
3503,10.1021/ja400069s,105,6(a),286,Pb0.98Sr0.01Na0.01Se1,Pb0.98Sr0.01Na0.01Se1,735.5,49937,0.0011658,0.00016307,1.3991,0.6684,0.0000200252,0.0008332499
3503,10.1021/ja400069s,105,6(a),286,Pb0.98Sr0.01Na0.01Se1,Pb0.98Sr0.01Na0.01Se1,736,49827,0.0011668,0.0001633,1.3977,0.66938,0.0000200694,0.0008348
3503,10.1021/ja400069s,105,6(a),286,Pb0.98Sr0.01Na0.01Se1,Pb0.98Sr0.01Na0.01Se1,736.5,49718,0.0011678,0.00016352,1.3964,0.67035,0.0000201134,0.0008362933
3503,10.1021/ja400069s,105,6(a),286,Pb0.98Sr0.01Na0.01Se1,Pb0.98Sr0.01Na0.01Se1,737,49608,0.0011688,0.00016375,1.395,0.67133,0.000020158,0.0008378495
3503,10.1021/ja400069s,105,6(a),286,Pb0.98Sr0.01Na0.01Se1,Pb0.98Sr0.01Na0.01Se1,737.5,49500,0.0011698,0.00016397,1.3936,0.6723,0.000020202,0.0008394087
3503,10.1021/ja400069s,105,6(a),286,Pb0.98Sr0.01Na0.01Se1,Pb0.98Sr0.01Na0.01Se1,738,49391,0.0011708,0.0001642,1.3922,0.67328,0.0000202466,0.0008409711
3503,10.1021/ja400069s,105,6(a),286,Pb0.98Sr0.01Na0.01Se1,Pb0.98Sr0.01Na0.01Se1,738.5,49283,0.0011719,0.00016442,1.3909,0.67425,0.000020291,0.000842548
3503,10.1021/ja400069s,105,6(a),286,Pb0.98Sr0.01Na0.01Se1,Pb0.98Sr0.01Na0.01Se1,739,49176,0.0011729,0.00016465,1.3895,0.67523,0.0000203351,0.0008441166
3503,10.1021/ja400069s,105,6(a),286,Pb0.98Sr0.01Na0.01Se1,Pb0.98Sr0.01Na0.01Se1,739.5,49069,0.0011739,0.00016487,1.3881,0.6762,0.0000203795,0.0008456884
3503,10.1021/ja400069s,105,6(a),286,Pb0.98Sr0.01Na0.01Se1,Pb0.98Sr0.01Na0.01Se1,740,48962,0.0011749,0.0001651,1.3868,0.67718,0.000020424,0.0008472022
3503,10.1021/ja400069s,105,6(a),286,Pb0.98Sr0.01Na0.01Se1,Pb0.98Sr0.01Na0.01Se1,740.5,48856,0.0011759,0.00016532,1.3854,0.67815,0.0000204683,0.0008487801
3503,10.1021/ja400069s,105,6(a),286,Pb0.98Sr0.01Na0.01Se1,Pb0.98Sr0.01Na0.01Se1,741,48750,0.0011769,0.00016555,1.3841,0.67913,0.0000205128,0.0008502998
3503,10.1021/ja400069s,105,6(a),286,Pb0.98Sr0.01Na0.01Se1,Pb0.98Sr0.01Na0.01Se1,741.5,48644,0.0011779,0.00016577,1.3827,0.6801,0.0000205575,0.000851884
3503,10.1021/ja400069s,105,6(a),286,Pb0.98Sr0.01Na0.01Se1,Pb0.98Sr0.01Na0.01Se1,742,48539,0.001179,0.000166,1.3814,0.68108,0.000020602,0.000853482
3503,10.1021/ja400069s,105,6(a),286,Pb0.98Sr0.01Na0.01Se1,Pb0.98Sr0.01Na0.01Se1,742.5,48435,0.00118,0.00016622,1.38,0.68205,0.0000206462,0.0008550725
3503,10.1021/ja400069s,105,6(a),286,Pb0.98Sr0.01Na0.01Se1,Pb0.98Sr0.01Na0.01Se1,743,48330,0.001181,0.00016645,1.3787,0.68303,0.0000206911,0.000856604
3503,10.1021/ja400069s,105,6(a),286,Pb0.98Sr0.01Na0.01Se1,Pb0.98Sr0.01Na0.01Se1,743.5,48227,0.001182,0.00016667,1.3773,0.684,0.0000207353,0.0008582008
3503,10.1021/ja400069s,105,6(a),286,Pb0.98Sr0.01Na0.01Se1,Pb0.98Sr0.01Na0.01Se1,744,48123,0.001183,0.0001669,1.376,0.68498,0.0000207801,0.0008597384
3503,10.1021/ja400069s,105,6(a),286,Pb0.98Sr0.01Na0.01Se1,Pb0.98Sr0.01Na0.01Se1,744.5,48020,0.001184,0.00016713,1.3747,0.68595,0.0000208247,0.0008612788
3503,10.1021/ja400069s,105,6(a),286,Pb0.98Sr0.01Na0.01Se1,Pb0.98Sr0.01Na0.01Se1,745,47918,0.0011851,0.00016735,1.3733,0.68693,0.000020869,0.0008629578
3503,10.1021/ja400069s,105,6(a),286,Pb0.98Sr0.01Na0.01Se1,Pb0.98Sr0.01Na0.01Se1,745.5,47816,0.0011861,0.00016758,1.372,0.6879,0.0000209135,0.0008645044
3503,10.1021/ja400069s,105,6(a),286,Pb0.98Sr0.01Na0.01Se1,Pb0.98Sr0.01Na0.01Se1,746,47714,0.0011871,0.0001678,1.3707,0.68888,0.0000209582,0.0008660538
3503,10.1021/ja400069s,105,6(a),286,Pb0.98Sr0.01Na0.01Se1,Pb0.98Sr0.01Na0.01Se1,746.5,47613,0.0011881,0.00016803,1.3694,0.68985,0.0000210027,0.0008676063
3503,10.1021/ja400069s,105,6(a),286,Pb0.98Sr0.01Na0.01Se1,Pb0.98Sr0.01Na0.01Se1,747,47512,0.0011891,0.00016826,1.368,0.69083,0.0000210473,0.0008692251