sid,DOI,figureid,fignum,sampleid,samplename,composition,Temperature,Electrical conductivity,Power factor,Seebeck coefficient,Thermal conductivity,ZT,Electrical resistivity,Figure of merit Z
3503,10.1021/ja400069s,105,6(a),393,Pb0.95Ba0.04Na0.01Se1,Pb0.95Ba0.04Na0.01Se1,816,25624,0.0011496,0.00021771,0.99403,0.88545,0.0000390259,0.0011565043
3503,10.1021/ja400069s,105,6(a),393,Pb0.95Ba0.04Na0.01Se1,Pb0.95Ba0.04Na0.01Se1,816.5,25578,0.0011504,0.00021787,0.99337,0.88639,0.0000390961,0.0011580781
3503,10.1021/ja400069s,105,6(a),393,Pb0.95Ba0.04Na0.01Se1,Pb0.95Ba0.04Na0.01Se1,817,25532,0.0011512,0.00021803,0.9927,0.88732,0.0000391665,0.0011596656
3503,10.1021/ja400069s,105,6(a),393,Pb0.95Ba0.04Na0.01Se1,Pb0.95Ba0.04Na0.01Se1,817.5,25486,0.0011519,0.00021819,0.99205,0.88826,0.0000392372,0.001161131
3503,10.1021/ja400069s,105,6(a),393,Pb0.95Ba0.04Na0.01Se1,Pb0.95Ba0.04Na0.01Se1,818,25440,0.0011527,0.00021835,0.99139,0.88919,0.0000393082,0.0011627109
3503,10.1021/ja400069s,105,6(a),393,Pb0.95Ba0.04Na0.01Se1,Pb0.95Ba0.04Na0.01Se1,818.5,25394,0.0011535,0.00021851,0.99073,0.89012,0.0000393794,0.001164293
3503,10.1021/ja400069s,105,6(a),393,Pb0.95Ba0.04Na0.01Se1,Pb0.95Ba0.04Na0.01Se1,819,25348,0.0011543,0.00021866,0.99008,0.89106,0.0000394508,0.0011658654
3503,10.1021/ja400069s,105,6(a),393,Pb0.95Ba0.04Na0.01Se1,Pb0.95Ba0.04Na0.01Se1,819.5,25303,0.001155,0.00021882,0.98943,0.89199,0.000039521,0.0011673388
3503,10.1021/ja400069s,105,6(a),393,Pb0.95Ba0.04Na0.01Se1,Pb0.95Ba0.04Na0.01Se1,820,25258,0.0011558,0.00021898,0.98878,0.89293,0.0000395914,0.0011689152
3503,10.1021/ja400069s,105,6(a),393,Pb0.95Ba0.04Na0.01Se1,Pb0.95Ba0.04Na0.01Se1,820.5,25213,0.0011566,0.00021914,0.98813,0.89386,0.0000396621,0.0011704938
3503,10.1021/ja400069s,105,6(a),393,Pb0.95Ba0.04Na0.01Se1,Pb0.95Ba0.04Na0.01Se1,821,25168,0.0011574,0.00021929,0.98749,0.89479,0.000039733,0.0011720625
3503,10.1021/ja400069s,105,6(a),393,Pb0.95Ba0.04Na0.01Se1,Pb0.95Ba0.04Na0.01Se1,821.5,25123,0.0011581,0.00021945,0.98685,0.89573,0.0000398042,0.0011735319
3503,10.1021/ja400069s,105,6(a),393,Pb0.95Ba0.04Na0.01Se1,Pb0.95Ba0.04Na0.01Se1,822,25078,0.0011589,0.0002196,0.98621,0.89666,0.0000398756,0.0011751047
3503,10.1021/ja400069s,105,6(a),393,Pb0.95Ba0.04Na0.01Se1,Pb0.95Ba0.04Na0.01Se1,822.5,25034,0.0011597,0.00021976,0.98557,0.89759,0.0000399457,0.0011766795
3503,10.1021/ja400069s,105,6(a),393,Pb0.95Ba0.04Na0.01Se1,Pb0.95Ba0.04Na0.01Se1,823,24990,0.0011605,0.00021991,0.98493,0.89853,0.000040016,0.0011782563
3503,10.1021/ja400069s,105,6(a),393,Pb0.95Ba0.04Na0.01Se1,Pb0.95Ba0.04Na0.01Se1,823.5,24946,0.0011612,0.00022006,0.9843,0.89946,0.0000400866,0.0011797216
3503,10.1021/ja400069s,105,6(a),393,Pb0.95Ba0.04Na0.01Se1,Pb0.95Ba0.04Na0.01Se1,824,24902,0.001162,0.00022021,0.98367,0.9004,0.0000401574,0.0011812905
3503,10.1021/ja400069s,105,6(a),393,Pb0.95Ba0.04Na0.01Se1,Pb0.95Ba0.04Na0.01Se1,824.5,24858,0.0011628,0.00022037,0.98304,0.90133,0.0000402285,0.0011828613
3503,10.1021/ja400069s,105,6(a),393,Pb0.95Ba0.04Na0.01Se1,Pb0.95Ba0.04Na0.01Se1,825,24815,0.0011636,0.00022052,0.98241,0.90226,0.0000402982,0.0011844342
3503,10.1021/ja400069s,105,6(a),393,Pb0.95Ba0.04Na0.01Se1,Pb0.95Ba0.04Na0.01Se1,825.5,24771,0.0011643,0.00022067,0.98178,0.9032,0.0000403698,0.0011859072
3503,10.1021/ja400069s,105,6(a),393,Pb0.95Ba0.04Na0.01Se1,Pb0.95Ba0.04Na0.01Se1,826,24728,0.0011651,0.00022082,0.98116,0.90413,0.00004044,0.001187472
3503,10.1021/ja400069s,105,6(a),393,Pb0.95Ba0.04Na0.01Se1,Pb0.95Ba0.04Na0.01Se1,826.5,24685,0.0011659,0.00022097,0.98054,0.90507,0.0000405104,0.0011890387
3503,10.1021/ja400069s,105,6(a),393,Pb0.95Ba0.04Na0.01Se1,Pb0.95Ba0.04Na0.01Se1,827,24642,0.0011667,0.00022112,0.97992,0.906,0.0000405811,0.0011906074
3503,10.1021/ja400069s,105,6(a),393,Pb0.95Ba0.04Na0.01Se1,Pb0.95Ba0.04Na0.01Se1,827.5,24599,0.0011674,0.00022127,0.9793,0.90693,0.0000406521,0.001192076
3503,10.1021/ja400069s,105,6(a),393,Pb0.95Ba0.04Na0.01Se1,Pb0.95Ba0.04Na0.01Se1,828,24557,0.0011682,0.00022141,0.97869,0.90787,0.0000407216,0.0011936364
3503,10.1021/ja400069s,105,6(a),393,Pb0.95Ba0.04Na0.01Se1,Pb0.95Ba0.04Na0.01Se1,828.5,24514,0.001169,0.00022156,0.97807,0.9088,0.000040793,0.001195211
3503,10.1021/ja400069s,105,6(a),393,Pb0.95Ba0.04Na0.01Se1,Pb0.95Ba0.04Na0.01Se1,829,24472,0.0011698,0.00022171,0.97746,0.90973,0.000040863,0.0011967753
3503,10.1021/ja400069s,105,6(a),393,Pb0.95Ba0.04Na0.01Se1,Pb0.95Ba0.04Na0.01Se1,829.5,24430,0.0011705,0.00022185,0.97686,0.91067,0.0000409333,0.001198227
3503,10.1021/ja400069s,105,6(a),393,Pb0.95Ba0.04Na0.01Se1,Pb0.95Ba0.04Na0.01Se1,830,24388,0.0011713,0.000222,0.97625,0.9116,0.0000410038,0.0011997951
3503,10.1021/ja400069s,105,6(a),393,Pb0.95Ba0.04Na0.01Se1,Pb0.95Ba0.04Na0.01Se1,830.5,24346,0.0011721,0.00022214,0.97565,0.91254,0.0000410745,0.0012013529
3503,10.1021/ja400069s,105,6(a),393,Pb0.95Ba0.04Na0.01Se1,Pb0.95Ba0.04Na0.01Se1,831,24305,0.0011729,0.00022229,0.97504,0.91347,0.0000411438,0.001202925
3503,10.1021/ja400069s,105,6(a),393,Pb0.95Ba0.04Na0.01Se1,Pb0.95Ba0.04Na0.01Se1,831.5,24263,0.0011736,0.00022243,0.97444,0.9144,0.000041215,0.0012043841
3503,10.1021/ja400069s,105,6(a),393,Pb0.95Ba0.04Na0.01Se1,Pb0.95Ba0.04Na0.01Se1,832,24222,0.0011744,0.00022257,0.97385,0.91534,0.0000412848,0.0012059352
3503,10.1021/ja400069s,105,6(a),393,Pb0.95Ba0.04Na0.01Se1,Pb0.95Ba0.04Na0.01Se1,832.5,24181,0.0011752,0.00022272,0.97325,0.91627,0.0000413548,0.0012075006
3503,10.1021/ja400069s,105,6(a),393,Pb0.95Ba0.04Na0.01Se1,Pb0.95Ba0.04Na0.01Se1,833,24140,0.001176,0.00022286,0.97266,0.91721,0.000041425,0.0012090556
3503,10.1021/ja400069s,105,6(a),393,Pb0.95Ba0.04Na0.01Se1,Pb0.95Ba0.04Na0.01Se1,833.5,24099,0.0011767,0.000223,0.97207,0.91814,0.0000414955,0.0012105095
3503,10.1021/ja400069s,105,6(a),393,Pb0.95Ba0.04Na0.01Se1,Pb0.95Ba0.04Na0.01Se1,834,24058,0.0011775,0.00022314,0.97148,0.91907,0.0000415662,0.0012120682
3503,10.1021/ja400069s,105,6(a),393,Pb0.95Ba0.04Na0.01Se1,Pb0.95Ba0.04Na0.01Se1,834.5,24018,0.0011783,0.00022328,0.97089,0.92001,0.0000416354,0.0012136287
3503,10.1021/ja400069s,105,6(a),393,Pb0.95Ba0.04Na0.01Se1,Pb0.95Ba0.04Na0.01Se1,835,23977,0.0011791,0.00022342,0.97031,0.92094,0.0000417066,0.0012151787
3503,10.1021/ja400069s,105,6(a),393,Pb0.95Ba0.04Na0.01Se1,Pb0.95Ba0.04Na0.01Se1,835.5,23937,0.0011798,0.00022356,0.96973,0.92187,0.0000417763,0.0012166273
3503,10.1021/ja400069s,105,6(a),393,Pb0.95Ba0.04Na0.01Se1,Pb0.95Ba0.04Na0.01Se1,836,23897,0.0011806,0.00022369,0.96915,0.92281,0.0000418463,0.0012181809
3503,10.1021/ja400069s,105,6(a),393,Pb0.95Ba0.04Na0.01Se1,Pb0.95Ba0.04Na0.01Se1,836.5,23857,0.0011814,0.00022383,0.96857,0.92374,0.0000419164,0.0012197363
3503,10.1021/ja400069s,105,6(a),393,Pb0.95Ba0.04Na0.01Se1,Pb0.95Ba0.04Na0.01Se1,837,23817,0.0011822,0.00022397,0.968,0.92468,0.0000419868,0.001221281
3503,10.1021/ja400069s,105,6(a),393,Pb0.95Ba0.04Na0.01Se1,Pb0.95Ba0.04Na0.01Se1,837.5,23778,0.0011829,0.0002241,0.96743,0.92561,0.0000420557,0.0012227241
3503,10.1021/ja400069s,105,6(a),393,Pb0.95Ba0.04Na0.01Se1,Pb0.95Ba0.04Na0.01Se1,838,23738,0.0011837,0.00022424,0.96686,0.92654,0.0000421265,0.0012242724
3503,10.1021/ja400069s,105,6(a),393,Pb0.95Ba0.04Na0.01Se1,Pb0.95Ba0.04Na0.01Se1,838.5,23699,0.0011845,0.00022437,0.96629,0.92748,0.0000421959,0.0012258225
3503,10.1021/ja400069s,105,6(a),393,Pb0.95Ba0.04Na0.01Se1,Pb0.95Ba0.04Na0.01Se1,839,23660,0.0011853,0.00022451,0.96572,0.92841,0.0000422654,0.0012273744
3503,10.1021/ja400069s,105,6(a),393,Pb0.95Ba0.04Na0.01Se1,Pb0.95Ba0.04Na0.01Se1,839.5,23621,0.001186,0.00022464,0.96516,0.92935,0.0000423352,0.0012288118
3503,10.1021/ja400069s,105,6(a),393,Pb0.95Ba0.04Na0.01Se1,Pb0.95Ba0.04Na0.01Se1,840,23582,0.0011868,0.00022477,0.9646,0.93028,0.0000424052,0.0012303546
3503,10.1021/ja400069s,105,6(a),393,Pb0.95Ba0.04Na0.01Se1,Pb0.95Ba0.04Na0.01Se1,840.5,23544,0.0011876,0.00022491,0.96404,0.93121,0.0000424737,0.0012318991
3503,10.1021/ja400069s,105,6(a),393,Pb0.95Ba0.04Na0.01Se1,Pb0.95Ba0.04Na0.01Se1,841,23505,0.0011884,0.00022504,0.96349,0.93215,0.0000425441,0.0012334326
3503,10.1021/ja400069s,105,6(a),393,Pb0.95Ba0.04Na0.01Se1,Pb0.95Ba0.04Na0.01Se1,841.5,23467,0.0011891,0.00022517,0.96293,0.93308,0.000042613,0.0012348769
3503,10.1021/ja400069s,105,6(a),393,Pb0.95Ba0.04Na0.01Se1,Pb0.95Ba0.04Na0.01Se1,842,23428,0.0011899,0.0002253,0.96238,0.93401,0.000042684,0.0012364139
3503,10.1021/ja400069s,105,6(a),393,Pb0.95Ba0.04Na0.01Se1,Pb0.95Ba0.04Na0.01Se1,842.5,23390,0.0011907,0.00022543,0.96184,0.93495,0.0000427533,0.0012379398
3503,10.1021/ja400069s,105,6(a),393,Pb0.95Ba0.04Na0.01Se1,Pb0.95Ba0.04Na0.01Se1,843,23352,0.0011915,0.00022556,0.96129,0.93588,0.0000428229,0.0012394803
3503,10.1021/ja400069s,105,6(a),393,Pb0.95Ba0.04Na0.01Se1,Pb0.95Ba0.04Na0.01Se1,843.5,23315,0.0011923,0.00022568,0.96075,0.93682,0.0000428908,0.0012410096
3503,10.1021/ja400069s,105,6(a),393,Pb0.95Ba0.04Na0.01Se1,Pb0.95Ba0.04Na0.01Se1,844,23277,0.001193,0.00022581,0.9602,0.93775,0.0000429609,0.0012424495
3503,10.1021/ja400069s,105,6(a),393,Pb0.95Ba0.04Na0.01Se1,Pb0.95Ba0.04Na0.01Se1,844.5,23240,0.0011938,0.00022594,0.95967,0.93868,0.0000430293,0.0012439693
3503,10.1021/ja400069s,105,6(a),393,Pb0.95Ba0.04Na0.01Se1,Pb0.95Ba0.04Na0.01Se1,845,23202,0.0011946,0.00022606,0.95913,0.93962,0.0000430997,0.0012455037
3503,10.1021/ja400069s,105,6(a),393,Pb0.95Ba0.04Na0.01Se1,Pb0.95Ba0.04Na0.01Se1,845.5,23165,0.0011954,0.00022619,0.9586,0.94055,0.0000431686,0.0012470269
3503,10.1021/ja400069s,105,6(a),393,Pb0.95Ba0.04Na0.01Se1,Pb0.95Ba0.04Na0.01Se1,846,23128,0.0011961,0.00022631,0.95807,0.94148,0.0000432376,0.0012484474
3503,10.1021/ja400069s,105,6(a),393,Pb0.95Ba0.04Na0.01Se1,Pb0.95Ba0.04Na0.01Se1,846.5,23091,0.0011969,0.00022644,0.95754,0.94242,0.0000433069,0.0012499739
3503,10.1021/ja400069s,105,6(a),393,Pb0.95Ba0.04Na0.01Se1,Pb0.95Ba0.04Na0.01Se1,847,23054,0.0011977,0.00022656,0.95701,0.94335,0.0000433764,0.0012515021
3503,10.1021/ja400069s,105,6(a),393,Pb0.95Ba0.04Na0.01Se1,Pb0.95Ba0.04Na0.01Se1,847.5,23018,0.0011985,0.00022668,0.95649,0.94429,0.0000434443,0.0012530189
3503,10.1021/ja400069s,105,6(a),393,Pb0.95Ba0.04Na0.01Se1,Pb0.95Ba0.04Na0.01Se1,848,22981,0.0011992,0.00022681,0.95597,0.94522,0.0000435142,0.0012544327
3503,10.1021/ja400069s,105,6(a),393,Pb0.95Ba0.04Na0.01Se1,Pb0.95Ba0.04Na0.01Se1,848.5,22945,0.0012,0.00022693,0.95545,0.94615,0.0000435825,0.0012559527
3503,10.1021/ja400069s,105,6(a),393,Pb0.95Ba0.04Na0.01Se1,Pb0.95Ba0.04Na0.01Se1,849,22909,0.0012008,0.00022705,0.95493,0.94709,0.000043651,0.0012574744
3503,10.1021/ja400069s,105,6(a),393,Pb0.95Ba0.04Na0.01Se1,Pb0.95Ba0.04Na0.01Se1,849.5,22873,0.0012016,0.00022717,0.95442,0.94802,0.0000437197,0.0012589845
3503,10.1021/ja400069s,105,6(a),393,Pb0.95Ba0.04Na0.01Se1,Pb0.95Ba0.04Na0.01Se1,850,22837,0.0012023,0.00022729,0.95391,0.94896,0.0000437886,0.0012603914
3503,10.1021/ja400069s,105,6(a),393,Pb0.95Ba0.04Na0.01Se1,Pb0.95Ba0.04Na0.01Se1,850.5,22801,0.0012031,0.00022741,0.9534,0.94989,0.0000438577,0.0012619048
3503,10.1021/ja400069s,105,6(a),393,Pb0.95Ba0.04Na0.01Se1,Pb0.95Ba0.04Na0.01Se1,851,22766,0.0012039,0.00022752,0.95289,0.95082,0.0000439252,0.0012634197
3503,10.1021/ja400069s,105,6(a),393,Pb0.95Ba0.04Na0.01Se1,Pb0.95Ba0.04Na0.01Se1,851.5,22730,0.0012047,0.00022764,0.95239,0.95176,0.0000439947,0.001264923
3503,10.1021/ja400069s,105,6(a),393,Pb0.95Ba0.04Na0.01Se1,Pb0.95Ba0.04Na0.01Se1,852,22695,0.0012054,0.00022776,0.95189,0.95269,0.0000440626,0.0012663228
3503,10.1021/ja400069s,105,6(a),393,Pb0.95Ba0.04Na0.01Se1,Pb0.95Ba0.04Na0.01Se1,852.5,22660,0.0012062,0.00022787,0.95139,0.95362,0.0000441306,0.0012678292
3503,10.1021/ja400069s,105,6(a),393,Pb0.95Ba0.04Na0.01Se1,Pb0.95Ba0.04Na0.01Se1,853,22624,0.001207,0.00022799,0.95089,0.95456,0.0000442008,0.0012693371
3503,10.1021/ja400069s,105,6(a),393,Pb0.95Ba0.04Na0.01Se1,Pb0.95Ba0.04Na0.01Se1,853.5,22590,0.0012078,0.0002281,0.9504,0.95549,0.0000442674,0.0012708333
3503,10.1021/ja400069s,105,6(a),393,Pb0.95Ba0.04Na0.01Se1,Pb0.95Ba0.04Na0.01Se1,854,22555,0.0012085,0.00022822,0.94991,0.95643,0.0000443361,0.0012722258
3503,10.1021/ja400069s,105,6(a),393,Pb0.95Ba0.04Na0.01Se1,Pb0.95Ba0.04Na0.01Se1,854.5,22520,0.0012093,0.00022833,0.94942,0.95736,0.000044405,0.001273725
3503,10.1021/ja400069s,105,6(a),393,Pb0.95Ba0.04Na0.01Se1,Pb0.95Ba0.04Na0.01Se1,855,22486,0.0012101,0.00022844,0.94894,0.95829,0.0000444721,0.0012752123
3503,10.1021/ja400069s,105,6(a),393,Pb0.95Ba0.04Na0.01Se1,Pb0.95Ba0.04Na0.01Se1,855.5,22451,0.0012109,0.00022855,0.94846,0.95923,0.0000445414,0.0012767012
3503,10.1021/ja400069s,105,6(a),393,Pb0.95Ba0.04Na0.01Se1,Pb0.95Ba0.04Na0.01Se1,856,22417,0.0012116,0.00022866,0.94798,0.96016,0.000044609,0.001278086
3503,10.1021/ja400069s,105,6(a),393,Pb0.95Ba0.04Na0.01Se1,Pb0.95Ba0.04Na0.01Se1,856.5,22383,0.0012124,0.00022877,0.9475,0.9611,0.0000446768,0.0012795778
3503,10.1021/ja400069s,105,6(a),393,Pb0.95Ba0.04Na0.01Se1,Pb0.95Ba0.04Na0.01Se1,857,22349,0.0012132,0.00022888,0.94703,0.96203,0.0000447447,0.0012810576
3503,10.1021/ja400069s,105,6(a),393,Pb0.95Ba0.04Na0.01Se1,Pb0.95Ba0.04Na0.01Se1,857.5,22315,0.001214,0.00022899,0.94655,0.96296,0.0000448129,0.0012825524
3503,10.1021/ja400069s,105,6(a),393,Pb0.95Ba0.04Na0.01Se1,Pb0.95Ba0.04Na0.01Se1,858,22281,0.0012147,0.0002291,0.94609,0.9639,0.0000448813,0.0012839159
3503,10.1021/ja400069s,105,6(a),393,Pb0.95Ba0.04Na0.01Se1,Pb0.95Ba0.04Na0.01Se1,858.5,22248,0.0012155,0.00022921,0.94562,0.96483,0.0000449479,0.0012854001
3503,10.1021/ja400069s,105,6(a),393,Pb0.95Ba0.04Na0.01Se1,Pb0.95Ba0.04Na0.01Se1,859,22214,0.0012163,0.00022931,0.94516,0.96576,0.0000450167,0.0012868721
3503,10.1021/ja400069s,105,6(a),393,Pb0.95Ba0.04Na0.01Se1,Pb0.95Ba0.04Na0.01Se1,859.5,22181,0.0012171,0.00022942,0.9447,0.9667,0.0000450836,0.0012883455
3503,10.1021/ja400069s,105,6(a),393,Pb0.95Ba0.04Na0.01Se1,Pb0.95Ba0.04Na0.01Se1,860,22148,0.0012178,0.00022952,0.94424,0.96763,0.0000451508,0.0012897145
3503,10.1021/ja400069s,105,6(a),393,Pb0.95Ba0.04Na0.01Se1,Pb0.95Ba0.04Na0.01Se1,860.5,22115,0.0012186,0.00022963,0.94378,0.96857,0.0000452182,0.0012911907
3503,10.1021/ja400069s,105,6(a),393,Pb0.95Ba0.04Na0.01Se1,Pb0.95Ba0.04Na0.01Se1,861,22082,0.0012194,0.00022973,0.94333,0.9695,0.0000452858,0.0012926547
3503,10.1021/ja400069s,105,6(a),393,Pb0.95Ba0.04Na0.01Se1,Pb0.95Ba0.04Na0.01Se1,861.5,22049,0.0012202,0.00022983,0.94288,0.97043,0.0000453535,0.0012941201
3503,10.1021/ja400069s,105,6(a),393,Pb0.95Ba0.04Na0.01Se1,Pb0.95Ba0.04Na0.01Se1,862,22016,0.0012209,0.00022993,0.94244,0.97137,0.0000454215,0.0012954671
3503,10.1021/ja400069s,105,6(a),393,Pb0.95Ba0.04Na0.01Se1,Pb0.95Ba0.04Na0.01Se1,862.5,21984,0.0012217,0.00023004,0.94199,0.9723,0.0000454876,0.0012969352
3503,10.1021/ja400069s,105,6(a),393,Pb0.95Ba0.04Na0.01Se1,Pb0.95Ba0.04Na0.01Se1,863,21951,0.0012225,0.00023014,0.94155,0.97324,0.000045556,0.001298391
3503,10.1021/ja400069s,105,6(a),393,Pb0.95Ba0.04Na0.01Se1,Pb0.95Ba0.04Na0.01Se1,863.5,21919,0.0012233,0.00023024,0.94111,0.97417,0.0000456225,0.0012998481
3503,10.1021/ja400069s,105,6(a),393,Pb0.95Ba0.04Na0.01Se1,Pb0.95Ba0.04Na0.01Se1,864,21887,0.001224,0.00023033,0.94068,0.9751,0.0000456892,0.0013011864
3503,10.1021/ja400069s,105,6(a),393,Pb0.95Ba0.04Na0.01Se1,Pb0.95Ba0.04Na0.01Se1,864.5,21855,0.0012248,0.00023043,0.94024,0.97604,0.0000457561,0.0013026461
3503,10.1021/ja400069s,105,6(a),393,Pb0.95Ba0.04Na0.01Se1,Pb0.95Ba0.04Na0.01Se1,865,21823,0.0012256,0.00023053,0.93982,0.97697,0.0000458232,0.0013040795
3503,10.1021/ja400069s,105,6(a),393,Pb0.95Ba0.04Na0.01Se1,Pb0.95Ba0.04Na0.01Se1,865.5,21791,0.0012264,0.00023063,0.93939,0.9779,0.0000458905,0.0013055281
3503,10.1021/ja400069s,105,6(a),393,Pb0.95Ba0.04Na0.01Se1,Pb0.95Ba0.04Na0.01Se1,866,21759,0.0012271,0.00023072,0.93896,0.97884,0.000045958,0.0013068714
3503,10.1021/ja400069s,105,6(a),393,Pb0.95Ba0.04Na0.01Se1,Pb0.95Ba0.04Na0.01Se1,866.5,21728,0.0012279,0.00023082,0.93854,0.97977,0.0000460236,0.0013083086
3503,10.1021/ja400069s,105,6(a),393,Pb0.95Ba0.04Na0.01Se1,Pb0.95Ba0.04Na0.01Se1,867,21696,0.0012287,0.00023091,0.93813,0.98071,0.0000460914,0.0013097332
3503,10.1021/ja400069s,105,6(a),393,Pb0.95Ba0.04Na0.01Se1,Pb0.95Ba0.04Na0.01Se1,867.5,21665,0.0012295,0.00023101,0.93771,0.98164,0.0000461574,0.001311173
3503,10.1021/ja400069s,105,6(a),393,Pb0.95Ba0.04Na0.01Se1,Pb0.95Ba0.04Na0.01Se1,868,21634,0.0012302,0.0002311,0.9373,0.98257,0.0000462235,0.0013124933
3503,10.1021/ja400069s,105,6(a),393,Pb0.95Ba0.04Na0.01Se1,Pb0.95Ba0.04Na0.01Se1,868.5,21603,0.001231,0.00023119,0.93689,0.98351,0.0000462899,0.0013139216
3503,10.1021/ja400069s,105,6(a),393,Pb0.95Ba0.04Na0.01Se1,Pb0.95Ba0.04Na0.01Se1,869,21572,0.0012318,0.00023128,0.93648,0.98444,0.0000463564,0.0013153511
3503,10.1021/ja400069s,105,6(a),393,Pb0.95Ba0.04Na0.01Se1,Pb0.95Ba0.04Na0.01Se1,869.5,21541,0.0012326,0.00023137,0.93608,0.98538,0.0000464231,0.0013167678
3503,10.1021/ja400069s,105,6(a),393,Pb0.95Ba0.04Na0.01Se1,Pb0.95Ba0.04Na0.01Se1,870,21510,0.0012333,0.00023146,0.93568,0.98631,0.00004649,0.0013180788
3503,10.1021/ja400069s,105,6(a),393,Pb0.95Ba0.04Na0.01Se1,Pb0.95Ba0.04Na0.01Se1,870.5,21479,0.0012341,0.00023155,0.93528,0.98724,0.0000465571,0.0013194979
3503,10.1021/ja400069s,105,6(a),393,Pb0.95Ba0.04Na0.01Se1,Pb0.95Ba0.04Na0.01Se1,871,21449,0.0012349,0.00023164,0.93489,0.98818,0.0000466222,0.0013209041
3503,10.1021/ja400069s,105,6(a),393,Pb0.95Ba0.04Na0.01Se1,Pb0.95Ba0.04Na0.01Se1,871.5,21418,0.0012357,0.00023173,0.9345,0.98911,0.0000466897,0.0013223114
3503,10.1021/ja400069s,105,6(a),393,Pb0.95Ba0.04Na0.01Se1,Pb0.95Ba0.04Na0.01Se1,872,21388,0.0012364,0.00023181,0.93411,0.99004,0.0000467552,0.0013236129
3503,10.1021/ja400069s,105,6(a),393,Pb0.95Ba0.04Na0.01Se1,Pb0.95Ba0.04Na0.01Se1,872.5,21358,0.0012372,0.0002319,0.93372,0.99098,0.0000468209,0.0013250225
3503,10.1021/ja400069s,105,6(a),393,Pb0.95Ba0.04Na0.01Se1,Pb0.95Ba0.04Na0.01Se1,873,21328,0.001238,0.00023198,0.93334,0.99191,0.0000468867,0.0013264191
3503,10.1021/ja400069s,105,6(a),393,Pb0.95Ba0.04Na0.01Se1,Pb0.95Ba0.04Na0.01Se1,873.5,21298,0.0012388,0.00023207,0.93296,0.99285,0.0000469528,0.0013278168
3503,10.1021/ja400069s,105,6(a),393,Pb0.95Ba0.04Na0.01Se1,Pb0.95Ba0.04Na0.01Se1,874,21268,0.0012395,0.00023215,0.93259,0.99378,0.000047019,0.0013290942
3503,10.1021/ja400069s,105,6(a),393,Pb0.95Ba0.04Na0.01Se1,Pb0.95Ba0.04Na0.01Se1,874.5,21238,0.0012403,0.00023223,0.93221,0.99471,0.0000470854,0.0013304942
3503,10.1021/ja400069s,105,6(a),393,Pb0.95Ba0.04Na0.01Se1,Pb0.95Ba0.04Na0.01Se1,875,21209,0.0012411,0.00023231,0.93184,0.99565,0.0000471498,0.001331881
3503,10.1021/ja400069s,105,6(a),393,Pb0.95Ba0.04Na0.01Se1,Pb0.95Ba0.04Na0.01Se1,875.5,21179,0.0012419,0.0002324,0.93148,0.99658,0.0000472166,0.0013332546
3503,10.1021/ja400069s,105,6(a),393,Pb0.95Ba0.04Na0.01Se1,Pb0.95Ba0.04Na0.01Se1,876,21150,0.0012426,0.00023248,0.93111,0.99752,0.0000472813,0.0013345362
3503,10.1021/ja400069s,105,6(a),393,Pb0.95Ba0.04Na0.01Se1,Pb0.95Ba0.04Na0.01Se1,876.5,21121,0.0012434,0.00023255,0.93075,0.99845,0.0000473462,0.0013359119
3503,10.1021/ja400069s,105,6(a),393,Pb0.95Ba0.04Na0.01Se1,Pb0.95Ba0.04Na0.01Se1,877,21091,0.0012442,0.00023263,0.9304,0.99938,0.0000474136,0.0013372743
3503,10.1021/ja400069s,105,6(a),393,Pb0.95Ba0.04Na0.01Se1,Pb0.95Ba0.04Na0.01Se1,877.5,21062,0.001245,0.00023271,0.93004,1.0003,0.0000474789,0.0013386521
3503,10.1021/ja400069s,105,6(a),393,Pb0.95Ba0.04Na0.01Se1,Pb0.95Ba0.04Na0.01Se1,878,21033,0.0012457,0.00023279,0.92969,1.0013,0.0000475443,0.001339909
3503,10.1021/ja400069s,105,6(a),393,Pb0.95Ba0.04Na0.01Se1,Pb0.95Ba0.04Na0.01Se1,878.5,21005,0.0012465,0.00023286,0.92934,1.0022,0.0000476077,0.0013412745
3503,10.1021/ja400069s,105,6(a),393,Pb0.95Ba0.04Na0.01Se1,Pb0.95Ba0.04Na0.01Se1,879,20976,0.0012473,0.00023294,0.929,1.0031,0.0000476735,0.0013426265
3503,10.1021/ja400069s,105,6(a),393,Pb0.95Ba0.04Na0.01Se1,Pb0.95Ba0.04Na0.01Se1,879.5,20947,0.0012481,0.00023301,0.92866,1.0041,0.0000477395,0.0013439795
3503,10.1021/ja400069s,105,6(a),393,Pb0.95Ba0.04Na0.01Se1,Pb0.95Ba0.04Na0.01Se1,880,20919,0.0012488,0.00023309,0.92832,1.005,0.0000478034,0.0013452258