sid,DOI,figureid,fignum,sampleid,samplename,composition,Temperature,Electrical conductivity,Power factor,Seebeck coefficient,Thermal conductivity,ZT,Electrical resistivity,Figure of merit Z
3503,10.1021/ja400069s,105,6(a),381,Pb0.98Ba0.01Na0.01Se1,Pb0.98Ba0.01Na0.01Se1,477.5,134890,0.00061063,0.000065576,2.3471,0.16718,0.0000074134,0.0002601636
3503,10.1021/ja400069s,105,6(a),381,Pb0.98Ba0.01Na0.01Se1,Pb0.98Ba0.01Na0.01Se1,478,134600,0.00061162,0.000065732,2.3443,0.16815,0.0000074294,0.0002608966
3503,10.1021/ja400069s,105,6(a),381,Pb0.98Ba0.01Na0.01Se1,Pb0.98Ba0.01Na0.01Se1,478.5,134320,0.00061261,0.000065889,2.3415,0.16912,0.0000074449,0.0002616314
3503,10.1021/ja400069s,105,6(a),381,Pb0.98Ba0.01Na0.01Se1,Pb0.98Ba0.01Na0.01Se1,479,134030,0.00061361,0.000066046,2.3387,0.17009,0.000007461,0.0002623723
3503,10.1021/ja400069s,105,6(a),381,Pb0.98Ba0.01Na0.01Se1,Pb0.98Ba0.01Na0.01Se1,479.5,133740,0.0006146,0.000066204,2.3359,0.17107,0.0000074772,0.0002631106
3503,10.1021/ja400069s,105,6(a),381,Pb0.98Ba0.01Na0.01Se1,Pb0.98Ba0.01Na0.01Se1,480,133460,0.00061559,0.000066361,2.3331,0.17204,0.0000074929,0.0002638507
3503,10.1021/ja400069s,105,6(a),381,Pb0.98Ba0.01Na0.01Se1,Pb0.98Ba0.01Na0.01Se1,480.5,133180,0.00061658,0.000066519,2.3303,0.17301,0.0000075086,0.0002645925
3503,10.1021/ja400069s,105,6(a),381,Pb0.98Ba0.01Na0.01Se1,Pb0.98Ba0.01Na0.01Se1,481,132890,0.00061757,0.000066677,2.3276,0.17398,0.000007525,0.0002653248
3503,10.1021/ja400069s,105,6(a),381,Pb0.98Ba0.01Na0.01Se1,Pb0.98Ba0.01Na0.01Se1,481.5,132610,0.00061857,0.000066835,2.3248,0.17495,0.0000075409,0.0002660745
3503,10.1021/ja400069s,105,6(a),381,Pb0.98Ba0.01Na0.01Se1,Pb0.98Ba0.01Na0.01Se1,482,132320,0.00061956,0.000066994,2.322,0.17592,0.0000075574,0.0002668217
3503,10.1021/ja400069s,105,6(a),381,Pb0.98Ba0.01Na0.01Se1,Pb0.98Ba0.01Na0.01Se1,482.5,132040,0.00062055,0.000067153,2.3192,0.17689,0.0000075735,0.0002675707
3503,10.1021/ja400069s,105,6(a),381,Pb0.98Ba0.01Na0.01Se1,Pb0.98Ba0.01Na0.01Se1,483,131760,0.00062154,0.000067311,2.3165,0.17786,0.0000075896,0.00026831
3503,10.1021/ja400069s,105,6(a),381,Pb0.98Ba0.01Na0.01Se1,Pb0.98Ba0.01Na0.01Se1,483.5,131480,0.00062253,0.000067471,2.3137,0.17884,0.0000076057,0.0002690625
3503,10.1021/ja400069s,105,6(a),381,Pb0.98Ba0.01Na0.01Se1,Pb0.98Ba0.01Na0.01Se1,484,131200,0.00062352,0.00006763,2.3109,0.17981,0.000007622,0.000269817
3503,10.1021/ja400069s,105,6(a),381,Pb0.98Ba0.01Na0.01Se1,Pb0.98Ba0.01Na0.01Se1,484.5,130920,0.00062452,0.00006779,2.3082,0.18078,0.0000076383,0.0002705658
3503,10.1021/ja400069s,105,6(a),381,Pb0.98Ba0.01Na0.01Se1,Pb0.98Ba0.01Na0.01Se1,485,130640,0.00062551,0.000067949,2.3054,0.18175,0.0000076546,0.0002713238
3503,10.1021/ja400069s,105,6(a),381,Pb0.98Ba0.01Na0.01Se1,Pb0.98Ba0.01Na0.01Se1,485.5,130360,0.0006265,0.00006811,2.3027,0.18272,0.0000076711,0.0002720719
3503,10.1021/ja400069s,105,6(a),381,Pb0.98Ba0.01Na0.01Se1,Pb0.98Ba0.01Na0.01Se1,486,130080,0.00062749,0.00006827,2.2999,0.18369,0.0000076876,0.0002728336
3503,10.1021/ja400069s,105,6(a),381,Pb0.98Ba0.01Na0.01Se1,Pb0.98Ba0.01Na0.01Se1,486.5,129800,0.00062848,0.00006843,2.2972,0.18466,0.0000077042,0.0002735852
3503,10.1021/ja400069s,105,6(a),381,Pb0.98Ba0.01Na0.01Se1,Pb0.98Ba0.01Na0.01Se1,487,129520,0.00062948,0.000068591,2.2944,0.18563,0.0000077208,0.000274355
3503,10.1021/ja400069s,105,6(a),381,Pb0.98Ba0.01Na0.01Se1,Pb0.98Ba0.01Na0.01Se1,487.5,129250,0.00063047,0.000068752,2.2917,0.18661,0.0000077369,0.0002751102
3503,10.1021/ja400069s,105,6(a),381,Pb0.98Ba0.01Na0.01Se1,Pb0.98Ba0.01Na0.01Se1,488,128970,0.00063146,0.000068913,2.289,0.18758,0.0000077537,0.0002758672
3503,10.1021/ja400069s,105,6(a),381,Pb0.98Ba0.01Na0.01Se1,Pb0.98Ba0.01Na0.01Se1,488.5,128690,0.00063245,0.000069075,2.2862,0.18855,0.0000077706,0.0002766381
3503,10.1021/ja400069s,105,6(a),381,Pb0.98Ba0.01Na0.01Se1,Pb0.98Ba0.01Na0.01Se1,489,128420,0.00063344,0.000069236,2.2835,0.18952,0.0000077869,0.0002773987
3503,10.1021/ja400069s,105,6(a),381,Pb0.98Ba0.01Na0.01Se1,Pb0.98Ba0.01Na0.01Se1,489.5,128140,0.00063443,0.000069398,2.2808,0.19049,0.000007804,0.0002781612
3503,10.1021/ja400069s,105,6(a),381,Pb0.98Ba0.01Na0.01Se1,Pb0.98Ba0.01Na0.01Se1,490,127870,0.00063543,0.00006956,2.278,0.19146,0.0000078204,0.0002789421
3503,10.1021/ja400069s,105,6(a),381,Pb0.98Ba0.01Na0.01Se1,Pb0.98Ba0.01Na0.01Se1,490.5,127600,0.00063642,0.000069723,2.2753,0.19243,0.000007837,0.0002797082
3503,10.1021/ja400069s,105,6(a),381,Pb0.98Ba0.01Na0.01Se1,Pb0.98Ba0.01Na0.01Se1,491,127320,0.00063741,0.000069885,2.2726,0.1934,0.0000078542,0.0002804761
3503,10.1021/ja400069s,105,6(a),381,Pb0.98Ba0.01Na0.01Se1,Pb0.98Ba0.01Na0.01Se1,491.5,127050,0.0006384,0.000070048,2.2699,0.19438,0.0000078709,0.0002812459
3503,10.1021/ja400069s,105,6(a),381,Pb0.98Ba0.01Na0.01Se1,Pb0.98Ba0.01Na0.01Se1,492,126780,0.00063939,0.000070211,2.2672,0.19535,0.0000078877,0.0002820175
3503,10.1021/ja400069s,105,6(a),381,Pb0.98Ba0.01Na0.01Se1,Pb0.98Ba0.01Na0.01Se1,492.5,126500,0.00064039,0.000070374,2.2645,0.19632,0.0000079051,0.0002827953
3503,10.1021/ja400069s,105,6(a),381,Pb0.98Ba0.01Na0.01Se1,Pb0.98Ba0.01Na0.01Se1,493,126230,0.00064138,0.000070538,2.2618,0.19729,0.000007922,0.0002835706
3503,10.1021/ja400069s,105,6(a),381,Pb0.98Ba0.01Na0.01Se1,Pb0.98Ba0.01Na0.01Se1,493.5,125960,0.00064237,0.000070701,2.2591,0.19826,0.000007939,0.0002843477
3503,10.1021/ja400069s,105,6(a),381,Pb0.98Ba0.01Na0.01Se1,Pb0.98Ba0.01Na0.01Se1,494,125690,0.00064336,0.000070865,2.2564,0.19923,0.0000079561,0.0002851268
3503,10.1021/ja400069s,105,6(a),381,Pb0.98Ba0.01Na0.01Se1,Pb0.98Ba0.01Na0.01Se1,494.5,125420,0.00064435,0.000071029,2.2537,0.2002,0.0000079732,0.0002859076
3503,10.1021/ja400069s,105,6(a),381,Pb0.98Ba0.01Na0.01Se1,Pb0.98Ba0.01Na0.01Se1,495,125150,0.00064535,0.000071194,2.251,0.20117,0.0000079904,0.0002866948
3503,10.1021/ja400069s,105,6(a),381,Pb0.98Ba0.01Na0.01Se1,Pb0.98Ba0.01Na0.01Se1,495.5,124880,0.00064634,0.000071358,2.2483,0.20215,0.0000080077,0.0002874794
3503,10.1021/ja400069s,105,6(a),381,Pb0.98Ba0.01Na0.01Se1,Pb0.98Ba0.01Na0.01Se1,496,124610,0.00064733,0.000071523,2.2456,0.20312,0.000008025,0.0002882659
3503,10.1021/ja400069s,105,6(a),381,Pb0.98Ba0.01Na0.01Se1,Pb0.98Ba0.01Na0.01Se1,496.5,124350,0.00064832,0.000071688,2.2429,0.20409,0.0000080418,0.0002890543
3503,10.1021/ja400069s,105,6(a),381,Pb0.98Ba0.01Na0.01Se1,Pb0.98Ba0.01Na0.01Se1,497,124080,0.00064931,0.000071853,2.2402,0.20506,0.0000080593,0.0002898447
3503,10.1021/ja400069s,105,6(a),381,Pb0.98Ba0.01Na0.01Se1,Pb0.98Ba0.01Na0.01Se1,497.5,123810,0.0006503,0.000072019,2.2375,0.20603,0.0000080769,0.0002906369
3503,10.1021/ja400069s,105,6(a),381,Pb0.98Ba0.01Na0.01Se1,Pb0.98Ba0.01Na0.01Se1,498,123550,0.0006513,0.000072184,2.2349,0.207,0.0000080939,0.0002914224
3503,10.1021/ja400069s,105,6(a),381,Pb0.98Ba0.01Na0.01Se1,Pb0.98Ba0.01Na0.01Se1,498.5,123280,0.00065229,0.00007235,2.2322,0.20797,0.0000081116,0.0002922184
3503,10.1021/ja400069s,105,6(a),381,Pb0.98Ba0.01Na0.01Se1,Pb0.98Ba0.01Na0.01Se1,499,123020,0.00065328,0.000072516,2.2295,0.20894,0.0000081288,0.0002930164
3503,10.1021/ja400069s,105,6(a),381,Pb0.98Ba0.01Na0.01Se1,Pb0.98Ba0.01Na0.01Se1,499.5,122750,0.00065427,0.000072683,2.2268,0.20992,0.0000081466,0.0002938162
3503,10.1021/ja400069s,105,6(a),381,Pb0.98Ba0.01Na0.01Se1,Pb0.98Ba0.01Na0.01Se1,500,122490,0.00065526,0.000072849,2.2242,0.21089,0.0000081639,0.0002946048
3503,10.1021/ja400069s,105,6(a),381,Pb0.98Ba0.01Na0.01Se1,Pb0.98Ba0.01Na0.01Se1,500.5,122220,0.00065626,0.000073016,2.2215,0.21186,0.000008182,0.000295413
3503,10.1021/ja400069s,105,6(a),381,Pb0.98Ba0.01Na0.01Se1,Pb0.98Ba0.01Na0.01Se1,501,121960,0.00065725,0.000073183,2.2189,0.21283,0.0000081994,0.0002962053
3503,10.1021/ja400069s,105,6(a),381,Pb0.98Ba0.01Na0.01Se1,Pb0.98Ba0.01Na0.01Se1,501.5,121700,0.00065824,0.00007335,2.2162,0.2138,0.0000082169,0.0002970129
3503,10.1021/ja400069s,105,6(a),381,Pb0.98Ba0.01Na0.01Se1,Pb0.98Ba0.01Na0.01Se1,502,121430,0.00065923,0.000073517,2.2136,0.21477,0.0000082352,0.000297809
3503,10.1021/ja400069s,105,6(a),381,Pb0.98Ba0.01Na0.01Se1,Pb0.98Ba0.01Na0.01Se1,502.5,121170,0.00066022,0.000073685,2.2109,0.21574,0.0000082529,0.0002986205
3503,10.1021/ja400069s,105,6(a),381,Pb0.98Ba0.01Na0.01Se1,Pb0.98Ba0.01Na0.01Se1,503,120910,0.00066122,0.000073853,2.2083,0.21671,0.0000082706,0.0002994249
3503,10.1021/ja400069s,105,6(a),381,Pb0.98Ba0.01Na0.01Se1,Pb0.98Ba0.01Na0.01Se1,503.5,120650,0.00066221,0.000074021,2.2056,0.21769,0.0000082884,0.0003002403
3503,10.1021/ja400069s,105,6(a),381,Pb0.98Ba0.01Na0.01Se1,Pb0.98Ba0.01Na0.01Se1,504,120390,0.0006632,0.000074189,2.203,0.21866,0.0000083063,0.000301044
3503,10.1021/ja400069s,105,6(a),381,Pb0.98Ba0.01Na0.01Se1,Pb0.98Ba0.01Na0.01Se1,504.5,120130,0.00066419,0.000074358,2.2003,0.21963,0.0000083243,0.0003018634
3503,10.1021/ja400069s,105,6(a),381,Pb0.98Ba0.01Na0.01Se1,Pb0.98Ba0.01Na0.01Se1,505,119870,0.00066518,0.000074526,2.1977,0.2206,0.0000083424,0.000302671
3503,10.1021/ja400069s,105,6(a),381,Pb0.98Ba0.01Na0.01Se1,Pb0.98Ba0.01Na0.01Se1,505.5,119610,0.00066617,0.000074695,2.1951,0.22157,0.0000083605,0.0003034805
3503,10.1021/ja400069s,105,6(a),381,Pb0.98Ba0.01Na0.01Se1,Pb0.98Ba0.01Na0.01Se1,506,119350,0.00066717,0.000074864,2.1925,0.22254,0.0000083787,0.0003042965
3503,10.1021/ja400069s,105,6(a),381,Pb0.98Ba0.01Na0.01Se1,Pb0.98Ba0.01Na0.01Se1,506.5,119100,0.00066816,0.000075034,2.1898,0.22351,0.0000083963,0.0003051238
3503,10.1021/ja400069s,105,6(a),381,Pb0.98Ba0.01Na0.01Se1,Pb0.98Ba0.01Na0.01Se1,507,118840,0.00066915,0.000075203,2.1872,0.22448,0.0000084147,0.0003059391
3503,10.1021/ja400069s,105,6(a),381,Pb0.98Ba0.01Na0.01Se1,Pb0.98Ba0.01Na0.01Se1,507.5,118580,0.00067014,0.000075373,2.1846,0.22546,0.0000084331,0.0003067564
3503,10.1021/ja400069s,105,6(a),381,Pb0.98Ba0.01Na0.01Se1,Pb0.98Ba0.01Na0.01Se1,508,118330,0.00067113,0.000075543,2.182,0.22643,0.0000084509,0.0003075756
3503,10.1021/ja400069s,105,6(a),381,Pb0.98Ba0.01Na0.01Se1,Pb0.98Ba0.01Na0.01Se1,508.5,118070,0.00067213,0.000075713,2.1794,0.2274,0.0000084696,0.0003084014
3503,10.1021/ja400069s,105,6(a),381,Pb0.98Ba0.01Na0.01Se1,Pb0.98Ba0.01Na0.01Se1,509,117810,0.00067312,0.000075883,2.1768,0.22837,0.0000084882,0.0003092245
3503,10.1021/ja400069s,105,6(a),381,Pb0.98Ba0.01Na0.01Se1,Pb0.98Ba0.01Na0.01Se1,509.5,117560,0.00067411,0.000076054,2.1741,0.22934,0.0000085063,0.0003100639
3503,10.1021/ja400069s,105,6(a),381,Pb0.98Ba0.01Na0.01Se1,Pb0.98Ba0.01Na0.01Se1,510,117300,0.0006751,0.000076225,2.1715,0.23031,0.0000085251,0.0003108911
3503,10.1021/ja400069s,105,6(a),381,Pb0.98Ba0.01Na0.01Se1,Pb0.98Ba0.01Na0.01Se1,510.5,117050,0.00067609,0.000076396,2.1689,0.23128,0.0000085434,0.0003117202
3503,10.1021/ja400069s,105,6(a),381,Pb0.98Ba0.01Na0.01Se1,Pb0.98Ba0.01Na0.01Se1,511,116800,0.00067708,0.000076567,2.1664,0.23225,0.0000085616,0.0003125369
3503,10.1021/ja400069s,105,6(a),381,Pb0.98Ba0.01Na0.01Se1,Pb0.98Ba0.01Na0.01Se1,511.5,116540,0.00067808,0.000076738,2.1638,0.23323,0.0000085807,0.0003133746
3503,10.1021/ja400069s,105,6(a),381,Pb0.98Ba0.01Na0.01Se1,Pb0.98Ba0.01Na0.01Se1,512,116290,0.00067907,0.00007691,2.1612,0.2342,0.0000085992,0.0003142097
3503,10.1021/ja400069s,105,6(a),381,Pb0.98Ba0.01Na0.01Se1,Pb0.98Ba0.01Na0.01Se1,512.5,116040,0.00068006,0.000077082,2.1586,0.23517,0.0000086177,0.0003150468
3503,10.1021/ja400069s,105,6(a),381,Pb0.98Ba0.01Na0.01Se1,Pb0.98Ba0.01Na0.01Se1,513,115790,0.00068105,0.000077254,2.156,0.23614,0.0000086363,0.0003158859
3503,10.1021/ja400069s,105,6(a),381,Pb0.98Ba0.01Na0.01Se1,Pb0.98Ba0.01Na0.01Se1,513.5,115540,0.00068204,0.000077426,2.1534,0.23711,0.000008655,0.000316727
3503,10.1021/ja400069s,105,6(a),381,Pb0.98Ba0.01Na0.01Se1,Pb0.98Ba0.01Na0.01Se1,514,115290,0.00068304,0.000077599,2.1508,0.23808,0.0000086738,0.0003175749
3503,10.1021/ja400069s,105,6(a),381,Pb0.98Ba0.01Na0.01Se1,Pb0.98Ba0.01Na0.01Se1,514.5,115040,0.00068403,0.000077771,2.1483,0.23905,0.0000086926,0.0003184053
3503,10.1021/ja400069s,105,6(a),381,Pb0.98Ba0.01Na0.01Se1,Pb0.98Ba0.01Na0.01Se1,515,114790,0.00068502,0.000077944,2.1457,0.24002,0.0000087116,0.0003192525
3503,10.1021/ja400069s,105,6(a),381,Pb0.98Ba0.01Na0.01Se1,Pb0.98Ba0.01Na0.01Se1,515.5,114540,0.00068601,0.000078117,2.1431,0.241,0.0000087306,0.0003201017
3503,10.1021/ja400069s,105,6(a),381,Pb0.98Ba0.01Na0.01Se1,Pb0.98Ba0.01Na0.01Se1,516,114290,0.000687,0.000078291,2.1406,0.24197,0.0000087497,0.0003209381
3503,10.1021/ja400069s,105,6(a),381,Pb0.98Ba0.01Na0.01Se1,Pb0.98Ba0.01Na0.01Se1,516.5,114040,0.000688,0.000078464,2.138,0.24294,0.0000087689,0.0003217961
3503,10.1021/ja400069s,105,6(a),381,Pb0.98Ba0.01Na0.01Se1,Pb0.98Ba0.01Na0.01Se1,517,113800,0.00068899,0.000078638,2.1354,0.24391,0.0000087873,0.0003226515
3503,10.1021/ja400069s,105,6(a),381,Pb0.98Ba0.01Na0.01Se1,Pb0.98Ba0.01Na0.01Se1,517.5,113550,0.00068998,0.000078812,2.1329,0.24488,0.0000088067,0.0003234938
3503,10.1021/ja400069s,105,6(a),381,Pb0.98Ba0.01Na0.01Se1,Pb0.98Ba0.01Na0.01Se1,518,113300,0.00069097,0.000078986,2.1303,0.24585,0.0000088261,0.0003243534
3503,10.1021/ja400069s,105,6(a),381,Pb0.98Ba0.01Na0.01Se1,Pb0.98Ba0.01Na0.01Se1,518.5,113060,0.00069196,0.00007916,2.1278,0.24682,0.0000088449,0.0003251997
3503,10.1021/ja400069s,105,6(a),381,Pb0.98Ba0.01Na0.01Se1,Pb0.98Ba0.01Na0.01Se1,519,112810,0.00069295,0.000079335,2.1252,0.24779,0.0000088645,0.0003260634
3503,10.1021/ja400069s,105,6(a),381,Pb0.98Ba0.01Na0.01Se1,Pb0.98Ba0.01Na0.01Se1,519.5,112560,0.00069395,0.00007951,2.1227,0.24877,0.0000088842,0.0003269185
3503,10.1021/ja400069s,105,6(a),381,Pb0.98Ba0.01Na0.01Se1,Pb0.98Ba0.01Na0.01Se1,520,112320,0.00069494,0.000079685,2.1201,0.24974,0.0000089031,0.0003277864
3503,10.1021/ja400069s,105,6(a),381,Pb0.98Ba0.01Na0.01Se1,Pb0.98Ba0.01Na0.01Se1,520.5,112080,0.00069593,0.00007986,2.1176,0.25071,0.0000089222,0.0003286409
3503,10.1021/ja400069s,105,6(a),381,Pb0.98Ba0.01Na0.01Se1,Pb0.98Ba0.01Na0.01Se1,521,111830,0.00069692,0.000080035,2.1151,0.25168,0.0000089421,0.0003294974
3503,10.1021/ja400069s,105,6(a),381,Pb0.98Ba0.01Na0.01Se1,Pb0.98Ba0.01Na0.01Se1,521.5,111590,0.00069791,0.000080211,2.1125,0.25265,0.0000089614,0.0003303716
3503,10.1021/ja400069s,105,6(a),381,Pb0.98Ba0.01Na0.01Se1,Pb0.98Ba0.01Na0.01Se1,522,111350,0.00069891,0.000080387,2.11,0.25362,0.0000089807,0.000331237
3503,10.1021/ja400069s,105,6(a),381,Pb0.98Ba0.01Na0.01Se1,Pb0.98Ba0.01Na0.01Se1,522.5,111100,0.0006999,0.000080563,2.1075,0.25459,0.0000090009,0.0003320996
3503,10.1021/ja400069s,105,6(a),381,Pb0.98Ba0.01Na0.01Se1,Pb0.98Ba0.01Na0.01Se1,523,110860,0.00070089,0.000080739,2.105,0.25556,0.0000090204,0.0003329644
3503,10.1021/ja400069s,105,6(a),381,Pb0.98Ba0.01Na0.01Se1,Pb0.98Ba0.01Na0.01Se1,523.5,110620,0.00070188,0.000080915,2.1024,0.25654,0.00000904,0.000333847
3503,10.1021/ja400069s,105,6(a),381,Pb0.98Ba0.01Na0.01Se1,Pb0.98Ba0.01Na0.01Se1,524,110380,0.00070287,0.000081092,2.0999,0.25751,0.0000090596,0.0003347159
3503,10.1021/ja400069s,105,6(a),381,Pb0.98Ba0.01Na0.01Se1,Pb0.98Ba0.01Na0.01Se1,524.5,110140,0.00070386,0.000081268,2.0974,0.25848,0.0000090794,0.0003355869
3503,10.1021/ja400069s,105,6(a),381,Pb0.98Ba0.01Na0.01Se1,Pb0.98Ba0.01Na0.01Se1,525,109900,0.00070486,0.000081445,2.0949,0.25945,0.0000090992,0.0003364647
3503,10.1021/ja400069s,105,6(a),381,Pb0.98Ba0.01Na0.01Se1,Pb0.98Ba0.01Na0.01Se1,525.5,109660,0.00070585,0.000081623,2.0924,0.26042,0.0000091191,0.0003373399
3503,10.1021/ja400069s,105,6(a),381,Pb0.98Ba0.01Na0.01Se1,Pb0.98Ba0.01Na0.01Se1,526,109420,0.00070684,0.0000818,2.0899,0.26139,0.0000091391,0.0003382171
3503,10.1021/ja400069s,105,6(a),381,Pb0.98Ba0.01Na0.01Se1,Pb0.98Ba0.01Na0.01Se1,526.5,109180,0.00070783,0.000081978,2.0874,0.26236,0.0000091592,0.0003390965
3503,10.1021/ja400069s,105,6(a),381,Pb0.98Ba0.01Na0.01Se1,Pb0.98Ba0.01Na0.01Se1,527,108940,0.00070882,0.000082155,2.0849,0.26334,0.0000091794,0.0003399779
3503,10.1021/ja400069s,105,6(a),381,Pb0.98Ba0.01Na0.01Se1,Pb0.98Ba0.01Na0.01Se1,527.5,108710,0.00070982,0.000082333,2.0824,0.26431,0.0000091988,0.0003408663
3503,10.1021/ja400069s,105,6(a),381,Pb0.98Ba0.01Na0.01Se1,Pb0.98Ba0.01Na0.01Se1,528,108470,0.00071081,0.000082512,2.0799,0.26528,0.0000092191,0.000341752
3503,10.1021/ja400069s,105,6(a),381,Pb0.98Ba0.01Na0.01Se1,Pb0.98Ba0.01Na0.01Se1,528.5,108230,0.0007118,0.00008269,2.0774,0.26625,0.0000092396,0.0003426398
3503,10.1021/ja400069s,105,6(a),381,Pb0.98Ba0.01Na0.01Se1,Pb0.98Ba0.01Na0.01Se1,529,108000,0.00071279,0.000082869,2.0749,0.26722,0.0000092593,0.0003435298
3503,10.1021/ja400069s,105,6(a),381,Pb0.98Ba0.01Na0.01Se1,Pb0.98Ba0.01Na0.01Se1,529.5,107760,0.00071378,0.000083047,2.0725,0.26819,0.0000092799,0.0003444053
3503,10.1021/ja400069s,105,6(a),381,Pb0.98Ba0.01Na0.01Se1,Pb0.98Ba0.01Na0.01Se1,530,107530,0.00071478,0.000083226,2.07,0.26916,0.0000092997,0.0003453043
3503,10.1021/ja400069s,105,6(a),381,Pb0.98Ba0.01Na0.01Se1,Pb0.98Ba0.01Na0.01Se1,530.5,107290,0.00071577,0.000083406,2.0675,0.27013,0.0000093205,0.0003462007
3503,10.1021/ja400069s,105,6(a),381,Pb0.98Ba0.01Na0.01Se1,Pb0.98Ba0.01Na0.01Se1,531,107060,0.00071676,0.000083585,2.065,0.27111,0.0000093406,0.0003470993
3503,10.1021/ja400069s,105,6(a),381,Pb0.98Ba0.01Na0.01Se1,Pb0.98Ba0.01Na0.01Se1,531.5,106820,0.00071775,0.000083765,2.0626,0.27208,0.0000093615,0.0003479831
3503,10.1021/ja400069s,105,6(a),381,Pb0.98Ba0.01Na0.01Se1,Pb0.98Ba0.01Na0.01Se1,532,106590,0.00071874,0.000083944,2.0601,0.27305,0.0000093817,0.000348886
3503,10.1021/ja400069s,105,6(a),381,Pb0.98Ba0.01Na0.01Se1,Pb0.98Ba0.01Na0.01Se1,532.5,106360,0.00071973,0.000084124,2.0576,0.27402,0.000009402,0.000349791
3503,10.1021/ja400069s,105,6(a),381,Pb0.98Ba0.01Na0.01Se1,Pb0.98Ba0.01Na0.01Se1,533,106120,0.00072073,0.000084305,2.0552,0.27499,0.0000094233,0.0003506861
3503,10.1021/ja400069s,105,6(a),381,Pb0.98Ba0.01Na0.01Se1,Pb0.98Ba0.01Na0.01Se1,533.5,105890,0.00072172,0.000084485,2.0527,0.27596,0.0000094438,0.0003515955
3503,10.1021/ja400069s,105,6(a),381,Pb0.98Ba0.01Na0.01Se1,Pb0.98Ba0.01Na0.01Se1,534,105660,0.00072271,0.000084665,2.0503,0.27693,0.0000094643,0.0003524899
3503,10.1021/ja400069s,105,6(a),381,Pb0.98Ba0.01Na0.01Se1,Pb0.98Ba0.01Na0.01Se1,534.5,105430,0.0007237,0.000084846,2.0478,0.2779,0.000009485,0.0003534037
3503,10.1021/ja400069s,105,6(a),381,Pb0.98Ba0.01Na0.01Se1,Pb0.98Ba0.01Na0.01Se1,535,105200,0.00072469,0.000085027,2.0454,0.27888,0.0000095057,0.0003543023
3503,10.1021/ja400069s,105,6(a),381,Pb0.98Ba0.01Na0.01Se1,Pb0.98Ba0.01Na0.01Se1,535.5,104970,0.00072569,0.000085208,2.0429,0.27985,0.0000095265,0.0003552254
3503,10.1021/ja400069s,105,6(a),381,Pb0.98Ba0.01Na0.01Se1,Pb0.98Ba0.01Na0.01Se1,536,104740,0.00072668,0.00008539,2.0405,0.28082,0.0000095475,0.0003561284
3503,10.1021/ja400069s,105,6(a),381,Pb0.98Ba0.01Na0.01Se1,Pb0.98Ba0.01Na0.01Se1,536.5,104510,0.00072767,0.000085571,2.038,0.28179,0.0000095685,0.000357051
3503,10.1021/ja400069s,105,6(a),381,Pb0.98Ba0.01Na0.01Se1,Pb0.98Ba0.01Na0.01Se1,537,104280,0.00072866,0.000085753,2.0356,0.28276,0.0000095896,0.0003579583
3503,10.1021/ja400069s,105,6(a),381,Pb0.98Ba0.01Na0.01Se1,Pb0.98Ba0.01Na0.01Se1,537.5,104050,0.00072965,0.000085935,2.0332,0.28373,0.0000096108,0.0003588678
3503,10.1021/ja400069s,105,6(a),381,Pb0.98Ba0.01Na0.01Se1,Pb0.98Ba0.01Na0.01Se1,538,103820,0.00073065,0.000086117,2.0308,0.2847,0.0000096321,0.0003597843
3503,10.1021/ja400069s,105,6(a),381,Pb0.98Ba0.01Na0.01Se1,Pb0.98Ba0.01Na0.01Se1,538.5,103600,0.00073164,0.000086299,2.0283,0.28567,0.0000096525,0.0003607159
3503,10.1021/ja400069s,105,6(a),381,Pb0.98Ba0.01Na0.01Se1,Pb0.98Ba0.01Na0.01Se1,539,103370,0.00073263,0.000086482,2.0259,0.28665,0.000009674,0.0003616319
3503,10.1021/ja400069s,105,6(a),381,Pb0.98Ba0.01Na0.01Se1,Pb0.98Ba0.01Na0.01Se1,539.5,103140,0.00073362,0.000086665,2.0235,0.28762,0.0000096956,0.00036255
3503,10.1021/ja400069s,105,6(a),381,Pb0.98Ba0.01Na0.01Se1,Pb0.98Ba0.01Na0.01Se1,540,102920,0.00073461,0.000086848,2.0211,0.28859,0.0000097163,0.0003634704
3503,10.1021/ja400069s,105,6(a),381,Pb0.98Ba0.01Na0.01Se1,Pb0.98Ba0.01Na0.01Se1,540.5,102690,0.0007356,0.000087031,2.0187,0.28956,0.000009738,0.0003643929