sid,DOI,figureid,fignum,sampleid,samplename,composition,Temperature,Electrical conductivity,Power factor,Seebeck coefficient,Thermal conductivity,ZT,Electrical resistivity,Figure of merit Z
3503,10.1021/ja400069s,105,6(a),179,Pb0.95Sr0.04Na0.01Se1,Pb0.95Sr0.04Na0.01Se1,333.5,217240,0.0004266,0.000043277,2.7612,-0.10926,0.0000046032,0.000154498
3503,10.1021/ja400069s,105,6(a),179,Pb0.95Sr0.04Na0.01Se1,Pb0.95Sr0.04Na0.01Se1,334,216830,0.00042728,0.000043357,2.7581,-0.10824,0.0000046119,0.0001549182
3503,10.1021/ja400069s,105,6(a),179,Pb0.95Sr0.04Na0.01Se1,Pb0.95Sr0.04Na0.01Se1,334.5,216430,0.00042796,0.000043438,2.7551,-0.10722,0.0000046204,0.0001553337
3503,10.1021/ja400069s,105,6(a),179,Pb0.95Sr0.04Na0.01Se1,Pb0.95Sr0.04Na0.01Se1,335,216020,0.00042865,0.000043519,2.752,-0.1062,0.0000046292,0.0001557594
3503,10.1021/ja400069s,105,6(a),179,Pb0.95Sr0.04Na0.01Se1,Pb0.95Sr0.04Na0.01Se1,335.5,215610,0.00042933,0.000043601,2.749,-0.10518,0.000004638,0.0001561768
3503,10.1021/ja400069s,105,6(a),179,Pb0.95Sr0.04Na0.01Se1,Pb0.95Sr0.04Na0.01Se1,336,215200,0.00043001,0.000043682,2.7459,-0.10416,0.0000046468,0.0001566008
3503,10.1021/ja400069s,105,6(a),179,Pb0.95Sr0.04Na0.01Se1,Pb0.95Sr0.04Na0.01Se1,336.5,214800,0.00043069,0.000043764,2.7429,-0.10314,0.0000046555,0.0001570199
3503,10.1021/ja400069s,105,6(a),179,Pb0.95Sr0.04Na0.01Se1,Pb0.95Sr0.04Na0.01Se1,337,214390,0.00043137,0.000043846,2.7399,-0.10211,0.0000046644,0.0001574401
3503,10.1021/ja400069s,105,6(a),179,Pb0.95Sr0.04Na0.01Se1,Pb0.95Sr0.04Na0.01Se1,337.5,213980,0.00043205,0.000043927,2.7368,-0.10109,0.0000046733,0.0001578669
3503,10.1021/ja400069s,105,6(a),179,Pb0.95Sr0.04Na0.01Se1,Pb0.95Sr0.04Na0.01Se1,338,213580,0.00043274,0.00004401,2.7338,-0.10007,0.0000046821,0.0001582925
3503,10.1021/ja400069s,105,6(a),179,Pb0.95Sr0.04Na0.01Se1,Pb0.95Sr0.04Na0.01Se1,338.5,213170,0.00043342,0.000044092,2.7308,-0.099051,0.0000046911,0.0001587154
3503,10.1021/ja400069s,105,6(a),179,Pb0.95Sr0.04Na0.01Se1,Pb0.95Sr0.04Na0.01Se1,339,212770,0.0004341,0.000044175,2.7277,-0.09803,0.0000046999,0.0001591451
3503,10.1021/ja400069s,105,6(a),179,Pb0.95Sr0.04Na0.01Se1,Pb0.95Sr0.04Na0.01Se1,339.5,212370,0.00043478,0.000044257,2.7247,-0.097009,0.0000047088,0.0001595699
3503,10.1021/ja400069s,105,6(a),179,Pb0.95Sr0.04Na0.01Se1,Pb0.95Sr0.04Na0.01Se1,340,211970,0.00043546,0.00004434,2.7217,-0.095987,0.0000047176,0.0001599956
3503,10.1021/ja400069s,105,6(a),179,Pb0.95Sr0.04Na0.01Se1,Pb0.95Sr0.04Na0.01Se1,340.5,211560,0.00043614,0.000044423,2.7187,-0.094966,0.0000047268,0.0001604223
3503,10.1021/ja400069s,105,6(a),179,Pb0.95Sr0.04Na0.01Se1,Pb0.95Sr0.04Na0.01Se1,341,211160,0.00043683,0.000044506,2.7157,-0.093945,0.0000047357,0.0001608536
3503,10.1021/ja400069s,105,6(a),179,Pb0.95Sr0.04Na0.01Se1,Pb0.95Sr0.04Na0.01Se1,341.5,210760,0.00043751,0.00004459,2.7127,-0.092924,0.0000047447,0.0001612821
3503,10.1021/ja400069s,105,6(a),179,Pb0.95Sr0.04Na0.01Se1,Pb0.95Sr0.04Na0.01Se1,342,210360,0.00043819,0.000044673,2.7097,-0.091903,0.0000047538,0.0001617116
3503,10.1021/ja400069s,105,6(a),179,Pb0.95Sr0.04Na0.01Se1,Pb0.95Sr0.04Na0.01Se1,342.5,209960,0.00043887,0.000044757,2.7067,-0.090882,0.0000047628,0.0001621421
3503,10.1021/ja400069s,105,6(a),179,Pb0.95Sr0.04Na0.01Se1,Pb0.95Sr0.04Na0.01Se1,343,209560,0.00043955,0.000044841,2.7037,-0.08986,0.0000047719,0.0001625735
3503,10.1021/ja400069s,105,6(a),179,Pb0.95Sr0.04Na0.01Se1,Pb0.95Sr0.04Na0.01Se1,343.5,209160,0.00044024,0.000044925,2.7007,-0.088839,0.000004781,0.0001630096
3503,10.1021/ja400069s,105,6(a),179,Pb0.95Sr0.04Na0.01Se1,Pb0.95Sr0.04Na0.01Se1,344,208760,0.00044092,0.00004501,2.6977,-0.087818,0.0000047902,0.0001634429
3503,10.1021/ja400069s,105,6(a),179,Pb0.95Sr0.04Na0.01Se1,Pb0.95Sr0.04Na0.01Se1,344.5,208370,0.0004416,0.000045094,2.6947,-0.086797,0.0000047992,0.0001638772
3503,10.1021/ja400069s,105,6(a),179,Pb0.95Sr0.04Na0.01Se1,Pb0.95Sr0.04Na0.01Se1,345,207970,0.00044228,0.000045179,2.6917,-0.085776,0.0000048084,0.0001643125
3503,10.1021/ja400069s,105,6(a),179,Pb0.95Sr0.04Na0.01Se1,Pb0.95Sr0.04Na0.01Se1,345.5,207570,0.00044296,0.000045264,2.6887,-0.084754,0.0000048177,0.0001647488
3503,10.1021/ja400069s,105,6(a),179,Pb0.95Sr0.04Na0.01Se1,Pb0.95Sr0.04Na0.01Se1,346,207180,0.00044364,0.000045349,2.6858,-0.083733,0.0000048267,0.0001651798
3503,10.1021/ja400069s,105,6(a),179,Pb0.95Sr0.04Na0.01Se1,Pb0.95Sr0.04Na0.01Se1,346.5,206780,0.00044433,0.000045434,2.6828,-0.082712,0.0000048361,0.0001656217
3503,10.1021/ja400069s,105,6(a),179,Pb0.95Sr0.04Na0.01Se1,Pb0.95Sr0.04Na0.01Se1,347,206390,0.00044501,0.00004552,2.6798,-0.081691,0.0000048452,0.0001660609
3503,10.1021/ja400069s,105,6(a),179,Pb0.95Sr0.04Na0.01Se1,Pb0.95Sr0.04Na0.01Se1,347.5,205990,0.00044569,0.000045605,2.6769,-0.08067,0.0000048546,0.0001664948
3503,10.1021/ja400069s,105,6(a),179,Pb0.95Sr0.04Na0.01Se1,Pb0.95Sr0.04Na0.01Se1,348,205600,0.00044637,0.000045691,2.6739,-0.079649,0.0000048638,0.0001669359
3503,10.1021/ja400069s,105,6(a),179,Pb0.95Sr0.04Na0.01Se1,Pb0.95Sr0.04Na0.01Se1,348.5,205200,0.00044705,0.000045777,2.6709,-0.078627,0.0000048733,0.000167378
3503,10.1021/ja400069s,105,6(a),179,Pb0.95Sr0.04Na0.01Se1,Pb0.95Sr0.04Na0.01Se1,349,204810,0.00044773,0.000045864,2.668,-0.077606,0.0000048826,0.0001678148
3503,10.1021/ja400069s,105,6(a),179,Pb0.95Sr0.04Na0.01Se1,Pb0.95Sr0.04Na0.01Se1,349.5,204420,0.00044842,0.00004595,2.665,-0.076585,0.0000048919,0.0001682627
3503,10.1021/ja400069s,105,6(a),179,Pb0.95Sr0.04Na0.01Se1,Pb0.95Sr0.04Na0.01Se1,350,204030,0.0004491,0.000046037,2.6621,-0.075564,0.0000049012,0.0001687014
3503,10.1021/ja400069s,105,6(a),179,Pb0.95Sr0.04Na0.01Se1,Pb0.95Sr0.04Na0.01Se1,350.5,203640,0.00044978,0.000046123,2.6591,-0.074543,0.0000049106,0.0001691475
3503,10.1021/ja400069s,105,6(a),179,Pb0.95Sr0.04Na0.01Se1,Pb0.95Sr0.04Na0.01Se1,351,203250,0.00045046,0.00004621,2.6562,-0.073522,0.00000492,0.0001695881
3503,10.1021/ja400069s,105,6(a),179,Pb0.95Sr0.04Na0.01Se1,Pb0.95Sr0.04Na0.01Se1,351.5,202860,0.00045114,0.000046298,2.6533,-0.0725,0.0000049295,0.0001700298
3503,10.1021/ja400069s,105,6(a),179,Pb0.95Sr0.04Na0.01Se1,Pb0.95Sr0.04Na0.01Se1,352,202470,0.00045183,0.000046385,2.6503,-0.071479,0.000004939,0.0001704826
3503,10.1021/ja400069s,105,6(a),179,Pb0.95Sr0.04Na0.01Se1,Pb0.95Sr0.04Na0.01Se1,352.5,202080,0.00045251,0.000046472,2.6474,-0.070458,0.0000049485,0.0001709262
3503,10.1021/ja400069s,105,6(a),179,Pb0.95Sr0.04Na0.01Se1,Pb0.95Sr0.04Na0.01Se1,353,201690,0.00045319,0.00004656,2.6445,-0.069437,0.0000049581,0.0001713708
3503,10.1021/ja400069s,105,6(a),179,Pb0.95Sr0.04Na0.01Se1,Pb0.95Sr0.04Na0.01Se1,353.5,201300,0.00045387,0.000046648,2.6415,-0.068416,0.0000049677,0.0001718228
3503,10.1021/ja400069s,105,6(a),179,Pb0.95Sr0.04Na0.01Se1,Pb0.95Sr0.04Na0.01Se1,354,200920,0.00045455,0.000046736,2.6386,-0.067395,0.0000049771,0.0001722694
3503,10.1021/ja400069s,105,6(a),179,Pb0.95Sr0.04Na0.01Se1,Pb0.95Sr0.04Na0.01Se1,354.5,200530,0.00045523,0.000046825,2.6357,-0.066373,0.0000049868,0.0001727169
3503,10.1021/ja400069s,105,6(a),179,Pb0.95Sr0.04Na0.01Se1,Pb0.95Sr0.04Na0.01Se1,355,200140,0.00045592,0.000046913,2.6328,-0.065352,0.0000049965,0.0001731692
3503,10.1021/ja400069s,105,6(a),179,Pb0.95Sr0.04Na0.01Se1,Pb0.95Sr0.04Na0.01Se1,355.5,199760,0.0004566,0.000047002,2.6299,-0.064331,0.000005006,0.0001736188
3503,10.1021/ja400069s,105,6(a),179,Pb0.95Sr0.04Na0.01Se1,Pb0.95Sr0.04Na0.01Se1,356,199370,0.00045728,0.000047091,2.627,-0.06331,0.0000050158,0.0001740693
3503,10.1021/ja400069s,105,6(a),179,Pb0.95Sr0.04Na0.01Se1,Pb0.95Sr0.04Na0.01Se1,356.5,198990,0.00045796,0.00004718,2.6241,-0.062289,0.0000050254,0.0001745208
3503,10.1021/ja400069s,105,6(a),179,Pb0.95Sr0.04Na0.01Se1,Pb0.95Sr0.04Na0.01Se1,357,198600,0.00045864,0.000047269,2.6212,-0.061268,0.0000050352,0.0001749733
3503,10.1021/ja400069s,105,6(a),179,Pb0.95Sr0.04Na0.01Se1,Pb0.95Sr0.04Na0.01Se1,357.5,198220,0.00045932,0.000047359,2.6183,-0.060246,0.0000050449,0.0001754268
3503,10.1021/ja400069s,105,6(a),179,Pb0.95Sr0.04Na0.01Se1,Pb0.95Sr0.04Na0.01Se1,358,197840,0.00046001,0.000047448,2.6154,-0.059225,0.0000050546,0.0001758851
3503,10.1021/ja400069s,105,6(a),179,Pb0.95Sr0.04Na0.01Se1,Pb0.95Sr0.04Na0.01Se1,358.5,197460,0.00046069,0.000047538,2.6125,-0.058204,0.0000050643,0.0001763407
3503,10.1021/ja400069s,105,6(a),179,Pb0.95Sr0.04Na0.01Se1,Pb0.95Sr0.04Na0.01Se1,359,197070,0.00046137,0.000047628,2.6096,-0.057183,0.0000050743,0.0001767972
3503,10.1021/ja400069s,105,6(a),179,Pb0.95Sr0.04Na0.01Se1,Pb0.95Sr0.04Na0.01Se1,359.5,196690,0.00046205,0.000047718,2.6067,-0.056162,0.0000050841,0.0001772548
3503,10.1021/ja400069s,105,6(a),179,Pb0.95Sr0.04Na0.01Se1,Pb0.95Sr0.04Na0.01Se1,360,196310,0.00046273,0.000047809,2.6038,-0.05514,0.000005094,0.0001777133
3503,10.1021/ja400069s,105,6(a),179,Pb0.95Sr0.04Na0.01Se1,Pb0.95Sr0.04Na0.01Se1,360.5,195930,0.00046342,0.000047899,2.6009,-0.054119,0.0000051039,0.0001781768
3503,10.1021/ja400069s,105,6(a),179,Pb0.95Sr0.04Na0.01Se1,Pb0.95Sr0.04Na0.01Se1,361,195550,0.0004641,0.00004799,2.598,-0.053098,0.0000051138,0.0001786374
3503,10.1021/ja400069s,105,6(a),179,Pb0.95Sr0.04Na0.01Se1,Pb0.95Sr0.04Na0.01Se1,361.5,195180,0.00046478,0.000048081,2.5952,-0.052077,0.0000051235,0.0001790922
3503,10.1021/ja400069s,105,6(a),179,Pb0.95Sr0.04Na0.01Se1,Pb0.95Sr0.04Na0.01Se1,362,194800,0.00046546,0.000048173,2.5923,-0.051056,0.0000051335,0.0001795548
3503,10.1021/ja400069s,105,6(a),179,Pb0.95Sr0.04Na0.01Se1,Pb0.95Sr0.04Na0.01Se1,362.5,194420,0.00046614,0.000048264,2.5894,-0.050035,0.0000051435,0.0001800185
3503,10.1021/ja400069s,105,6(a),179,Pb0.95Sr0.04Na0.01Se1,Pb0.95Sr0.04Na0.01Se1,363,194040,0.00046682,0.000048356,2.5866,-0.049013,0.0000051536,0.0001804763
3503,10.1021/ja400069s,105,6(a),179,Pb0.95Sr0.04Na0.01Se1,Pb0.95Sr0.04Na0.01Se1,363.5,193670,0.00046751,0.000048447,2.5837,-0.047992,0.0000051634,0.0001809459
3503,10.1021/ja400069s,105,6(a),179,Pb0.95Sr0.04Na0.01Se1,Pb0.95Sr0.04Na0.01Se1,364,193290,0.00046819,0.00004854,2.5809,-0.046971,0.0000051736,0.0001814057
3503,10.1021/ja400069s,105,6(a),179,Pb0.95Sr0.04Na0.01Se1,Pb0.95Sr0.04Na0.01Se1,364.5,192910,0.00046887,0.000048632,2.578,-0.04595,0.0000051838,0.0001818735
3503,10.1021/ja400069s,105,6(a),179,Pb0.95Sr0.04Na0.01Se1,Pb0.95Sr0.04Na0.01Se1,365,192540,0.00046955,0.000048724,2.5752,-0.044929,0.0000051937,0.0001823354
3503,10.1021/ja400069s,105,6(a),179,Pb0.95Sr0.04Na0.01Se1,Pb0.95Sr0.04Na0.01Se1,365.5,192160,0.00047023,0.000048817,2.5723,-0.043908,0.000005204,0.0001828053
3503,10.1021/ja400069s,105,6(a),179,Pb0.95Sr0.04Na0.01Se1,Pb0.95Sr0.04Na0.01Se1,366,191790,0.00047091,0.00004891,2.5695,-0.042886,0.000005214,0.0001832691
3503,10.1021/ja400069s,105,6(a),179,Pb0.95Sr0.04Na0.01Se1,Pb0.95Sr0.04Na0.01Se1,366.5,191420,0.0004716,0.000049003,2.5666,-0.041865,0.0000052241,0.000183745
3503,10.1021/ja400069s,105,6(a),179,Pb0.95Sr0.04Na0.01Se1,Pb0.95Sr0.04Na0.01Se1,367,191040,0.00047228,0.000049096,2.5638,-0.040844,0.0000052345,0.0001842109
3503,10.1021/ja400069s,105,6(a),179,Pb0.95Sr0.04Na0.01Se1,Pb0.95Sr0.04Na0.01Se1,367.5,190670,0.00047296,0.000049189,2.5609,-0.039823,0.0000052447,0.0001846851
3503,10.1021/ja400069s,105,6(a),179,Pb0.95Sr0.04Na0.01Se1,Pb0.95Sr0.04Na0.01Se1,368,190300,0.00047364,0.000049283,2.5581,-0.038802,0.0000052549,0.000185153
3503,10.1021/ja400069s,105,6(a),179,Pb0.95Sr0.04Na0.01Se1,Pb0.95Sr0.04Na0.01Se1,368.5,189930,0.00047432,0.000049377,2.5553,-0.037781,0.0000052651,0.000185622
3503,10.1021/ja400069s,105,6(a),179,Pb0.95Sr0.04Na0.01Se1,Pb0.95Sr0.04Na0.01Se1,369,189560,0.00047501,0.000049471,2.5525,-0.036759,0.0000052754,0.000186096
3503,10.1021/ja400069s,105,6(a),179,Pb0.95Sr0.04Na0.01Se1,Pb0.95Sr0.04Na0.01Se1,369.5,189190,0.00047569,0.000049565,2.5496,-0.035738,0.0000052857,0.0001865744
3503,10.1021/ja400069s,105,6(a),179,Pb0.95Sr0.04Na0.01Se1,Pb0.95Sr0.04Na0.01Se1,370,188820,0.00047637,0.000049659,2.5468,-0.034717,0.000005296,0.0001870465
3503,10.1021/ja400069s,105,6(a),179,Pb0.95Sr0.04Na0.01Se1,Pb0.95Sr0.04Na0.01Se1,370.5,188450,0.00047705,0.000049754,2.544,-0.033696,0.0000053064,0.0001875197
3503,10.1021/ja400069s,105,6(a),179,Pb0.95Sr0.04Na0.01Se1,Pb0.95Sr0.04Na0.01Se1,371,188080,0.00047773,0.000049849,2.5412,-0.032675,0.0000053169,0.0001879939
3503,10.1021/ja400069s,105,6(a),179,Pb0.95Sr0.04Na0.01Se1,Pb0.95Sr0.04Na0.01Se1,371.5,187710,0.00047841,0.000049944,2.5384,-0.031654,0.0000053274,0.0001884691
3503,10.1021/ja400069s,105,6(a),179,Pb0.95Sr0.04Na0.01Se1,Pb0.95Sr0.04Na0.01Se1,372,187350,0.0004791,0.000050039,2.5356,-0.030632,0.0000053376,0.0001889494
3503,10.1021/ja400069s,105,6(a),179,Pb0.95Sr0.04Na0.01Se1,Pb0.95Sr0.04Na0.01Se1,372.5,186980,0.00047978,0.000050134,2.5328,-0.029611,0.0000053482,0.0001894267
3503,10.1021/ja400069s,105,6(a),179,Pb0.95Sr0.04Na0.01Se1,Pb0.95Sr0.04Na0.01Se1,373,186610,0.00048046,0.00005023,2.53,-0.02859,0.0000053588,0.0001899051
3503,10.1021/ja400069s,105,6(a),179,Pb0.95Sr0.04Na0.01Se1,Pb0.95Sr0.04Na0.01Se1,373.5,186250,0.00048114,0.000050326,2.5272,-0.027569,0.0000053691,0.0001903846
3503,10.1021/ja400069s,105,6(a),179,Pb0.95Sr0.04Na0.01Se1,Pb0.95Sr0.04Na0.01Se1,374,185880,0.00048182,0.000050422,2.5244,-0.026548,0.0000053798,0.0001908652
3503,10.1021/ja400069s,105,6(a),179,Pb0.95Sr0.04Na0.01Se1,Pb0.95Sr0.04Na0.01Se1,374.5,185520,0.0004825,0.000050518,2.5216,-0.025526,0.0000053903,0.0001913468
3503,10.1021/ja400069s,105,6(a),179,Pb0.95Sr0.04Na0.01Se1,Pb0.95Sr0.04Na0.01Se1,375,185150,0.00048319,0.000050615,2.5188,-0.024505,0.000005401,0.0001918334
3503,10.1021/ja400069s,105,6(a),179,Pb0.95Sr0.04Na0.01Se1,Pb0.95Sr0.04Na0.01Se1,375.5,184790,0.00048387,0.000050711,2.516,-0.023484,0.0000054115,0.0001923172
3503,10.1021/ja400069s,105,6(a),179,Pb0.95Sr0.04Na0.01Se1,Pb0.95Sr0.04Na0.01Se1,376,184430,0.00048455,0.000050808,2.5132,-0.022463,0.0000054221,0.000192802
3503,10.1021/ja400069s,105,6(a),179,Pb0.95Sr0.04Na0.01Se1,Pb0.95Sr0.04Na0.01Se1,376.5,184070,0.00048523,0.000050905,2.5105,-0.021442,0.0000054327,0.0001932802
3503,10.1021/ja400069s,105,6(a),179,Pb0.95Sr0.04Na0.01Se1,Pb0.95Sr0.04Na0.01Se1,377,183700,0.00048591,0.000051002,2.5077,-0.020421,0.0000054437,0.0001937672
3503,10.1021/ja400069s,105,6(a),179,Pb0.95Sr0.04Na0.01Se1,Pb0.95Sr0.04Na0.01Se1,377.5,183340,0.0004866,0.0000511,2.5049,-0.019399,0.0000054543,0.0001942593
3503,10.1021/ja400069s,105,6(a),179,Pb0.95Sr0.04Na0.01Se1,Pb0.95Sr0.04Na0.01Se1,378,182980,0.00048728,0.000051198,2.5021,-0.018378,0.0000054651,0.0001947484
3503,10.1021/ja400069s,105,6(a),179,Pb0.95Sr0.04Na0.01Se1,Pb0.95Sr0.04Na0.01Se1,378.5,182620,0.00048796,0.000051295,2.4994,-0.017357,0.0000054759,0.0001952309
3503,10.1021/ja400069s,105,6(a),179,Pb0.95Sr0.04Na0.01Se1,Pb0.95Sr0.04Na0.01Se1,379,182260,0.00048864,0.000051394,2.4966,-0.016336,0.0000054867,0.0001957222
3503,10.1021/ja400069s,105,6(a),179,Pb0.95Sr0.04Na0.01Se1,Pb0.95Sr0.04Na0.01Se1,379.5,181900,0.00048932,0.000051492,2.4939,-0.015315,0.0000054975,0.0001962067
3503,10.1021/ja400069s,105,6(a),179,Pb0.95Sr0.04Na0.01Se1,Pb0.95Sr0.04Na0.01Se1,380,181540,0.00049,0.00005159,2.4911,-0.014294,0.0000055084,0.0001967003
3503,10.1021/ja400069s,105,6(a),179,Pb0.95Sr0.04Na0.01Se1,Pb0.95Sr0.04Na0.01Se1,380.5,181190,0.00049069,0.000051689,2.4883,-0.013272,0.0000055191,0.0001971989
3503,10.1021/ja400069s,105,6(a),179,Pb0.95Sr0.04Na0.01Se1,Pb0.95Sr0.04Na0.01Se1,381,180830,0.00049137,0.000051788,2.4856,-0.012251,0.0000055301,0.0001976867
3503,10.1021/ja400069s,105,6(a),179,Pb0.95Sr0.04Na0.01Se1,Pb0.95Sr0.04Na0.01Se1,381.5,180470,0.00049205,0.000051887,2.4828,-0.01123,0.0000055411,0.0001981835
3503,10.1021/ja400069s,105,6(a),179,Pb0.95Sr0.04Na0.01Se1,Pb0.95Sr0.04Na0.01Se1,382,180110,0.00049273,0.000051986,2.4801,-0.010209,0.0000055522,0.0001986734
3503,10.1021/ja400069s,105,6(a),179,Pb0.95Sr0.04Na0.01Se1,Pb0.95Sr0.04Na0.01Se1,382.5,179760,0.00049341,0.000052086,2.4774,-0.0091877,0.000005563,0.0001991644
3503,10.1021/ja400069s,105,6(a),179,Pb0.95Sr0.04Na0.01Se1,Pb0.95Sr0.04Na0.01Se1,383,179400,0.0004941,0.000052186,2.4746,-0.0081665,0.0000055741,0.0001996686
3503,10.1021/ja400069s,105,6(a),179,Pb0.95Sr0.04Na0.01Se1,Pb0.95Sr0.04Na0.01Se1,383.5,179050,0.00049478,0.000052286,2.4719,-0.0071454,0.000005585,0.0002001618
3503,10.1021/ja400069s,105,6(a),179,Pb0.95Sr0.04Na0.01Se1,Pb0.95Sr0.04Na0.01Se1,384,178690,0.00049546,0.000052386,2.4691,-0.0061242,0.0000055963,0.0002006642
3503,10.1021/ja400069s,105,6(a),179,Pb0.95Sr0.04Na0.01Se1,Pb0.95Sr0.04Na0.01Se1,384.5,178340,0.00049614,0.000052486,2.4664,-0.005103,0.0000056073,0.0002011596
3503,10.1021/ja400069s,105,6(a),179,Pb0.95Sr0.04Na0.01Se1,Pb0.95Sr0.04Na0.01Se1,385,177990,0.00049682,0.000052587,2.4637,-0.0040819,0.0000056183,0.000201656
3503,10.1021/ja400069s,105,6(a),179,Pb0.95Sr0.04Na0.01Se1,Pb0.95Sr0.04Na0.01Se1,385.5,177630,0.0004975,0.000052687,2.461,-0.0030607,0.0000056297,0.0002021536
3503,10.1021/ja400069s,105,6(a),179,Pb0.95Sr0.04Na0.01Se1,Pb0.95Sr0.04Na0.01Se1,386,177280,0.00049819,0.000052788,2.4582,-0.0020395,0.0000056408,0.0002026646
3503,10.1021/ja400069s,105,6(a),179,Pb0.95Sr0.04Na0.01Se1,Pb0.95Sr0.04Na0.01Se1,386.5,176930,0.00049887,0.00005289,2.4555,-0.0010183,0.000005652,0.0002031643
3503,10.1021/ja400069s,105,6(a),179,Pb0.95Sr0.04Na0.01Se1,Pb0.95Sr0.04Na0.01Se1,387,176580,0.00049955,0.000052991,2.4528,0.0000028308,0.0000056632,0.0002036652
3503,10.1021/ja400069s,105,6(a),179,Pb0.95Sr0.04Na0.01Se1,Pb0.95Sr0.04Na0.01Se1,387.5,176230,0.00050023,0.000053093,2.4501,0.001024,0.0000056744,0.0002041672
3503,10.1021/ja400069s,105,6(a),179,Pb0.95Sr0.04Na0.01Se1,Pb0.95Sr0.04Na0.01Se1,388,175880,0.00050091,0.000053194,2.4474,0.0020452,0.0000056857,0.0002046703
3503,10.1021/ja400069s,105,6(a),179,Pb0.95Sr0.04Na0.01Se1,Pb0.95Sr0.04Na0.01Se1,388.5,175530,0.00050159,0.000053296,2.4447,0.0030663,0.000005697,0.0002051745
3503,10.1021/ja400069s,105,6(a),179,Pb0.95Sr0.04Na0.01Se1,Pb0.95Sr0.04Na0.01Se1,389,175180,0.00050228,0.000053399,2.442,0.0040875,0.0000057084,0.0002056839
3503,10.1021/ja400069s,105,6(a),179,Pb0.95Sr0.04Na0.01Se1,Pb0.95Sr0.04Na0.01Se1,389.5,174830,0.00050296,0.000053501,2.4393,0.0051087,0.0000057198,0.0002061903
3503,10.1021/ja400069s,105,6(a),179,Pb0.95Sr0.04Na0.01Se1,Pb0.95Sr0.04Na0.01Se1,390,174480,0.00050364,0.000053604,2.4366,0.0061299,0.0000057313,0.0002066979
3503,10.1021/ja400069s,105,6(a),179,Pb0.95Sr0.04Na0.01Se1,Pb0.95Sr0.04Na0.01Se1,390.5,174140,0.00050432,0.000053707,2.4339,0.007151,0.0000057425,0.0002072065
3503,10.1021/ja400069s,105,6(a),179,Pb0.95Sr0.04Na0.01Se1,Pb0.95Sr0.04Na0.01Se1,391,173790,0.000505,0.00005381,2.4312,0.0081722,0.0000057541,0.0002077164
3503,10.1021/ja400069s,105,6(a),179,Pb0.95Sr0.04Na0.01Se1,Pb0.95Sr0.04Na0.01Se1,391.5,173440,0.00050569,0.000053913,2.4285,0.0091934,0.0000057657,0.0002082314
3503,10.1021/ja400069s,105,6(a),179,Pb0.95Sr0.04Na0.01Se1,Pb0.95Sr0.04Na0.01Se1,392,173100,0.00050637,0.000054016,2.4258,0.010215,0.000005777,0.0002087435
3503,10.1021/ja400069s,105,6(a),179,Pb0.95Sr0.04Na0.01Se1,Pb0.95Sr0.04Na0.01Se1,392.5,172750,0.00050705,0.00005412,2.4231,0.011236,0.0000057887,0.0002092567
3503,10.1021/ja400069s,105,6(a),179,Pb0.95Sr0.04Na0.01Se1,Pb0.95Sr0.04Na0.01Se1,393,172410,0.00050773,0.000054224,2.4205,0.012257,0.0000058001,0.0002097624
3503,10.1021/ja400069s,105,6(a),179,Pb0.95Sr0.04Na0.01Se1,Pb0.95Sr0.04Na0.01Se1,393.5,172060,0.00050841,0.000054328,2.4178,0.013278,0.0000058119,0.0002102779
3503,10.1021/ja400069s,105,6(a),179,Pb0.95Sr0.04Na0.01Se1,Pb0.95Sr0.04Na0.01Se1,394,171720,0.00050909,0.000054433,2.4151,0.014299,0.0000058234,0.0002107946
3503,10.1021/ja400069s,105,6(a),179,Pb0.95Sr0.04Na0.01Se1,Pb0.95Sr0.04Na0.01Se1,394.5,171380,0.00050978,0.000054537,2.4124,0.01532,0.000005835,0.0002113165
3503,10.1021/ja400069s,105,6(a),179,Pb0.95Sr0.04Na0.01Se1,Pb0.95Sr0.04Na0.01Se1,395,171030,0.00051046,0.000054642,2.4098,0.016342,0.0000058469,0.0002118267
3503,10.1021/ja400069s,105,6(a),179,Pb0.95Sr0.04Na0.01Se1,Pb0.95Sr0.04Na0.01Se1,395.5,170690,0.00051114,0.000054747,2.4071,0.017363,0.0000058586,0.0002123468