sid,DOI,figureid,fignum,sampleid,samplename,composition,Temperature,Electrical conductivity,Power factor,Seebeck coefficient,Thermal conductivity,ZT,Electrical resistivity,Figure of merit Z
3503,10.1021/ja400069s,105,6(a),203,Pb0.96Ba0.03Na0.01Se1,Pb0.96Ba0.03Na0.01Se1,392.5,128480,0.00056843,0.000057683,2.0665,0.080465,0.0000077833,0.000275069
3503,10.1021/ja400069s,105,6(a),203,Pb0.96Ba0.03Na0.01Se1,Pb0.96Ba0.03Na0.01Se1,393,128270,0.00056929,0.000057815,2.0643,0.081541,0.0000077961,0.0002757787
3503,10.1021/ja400069s,105,6(a),203,Pb0.96Ba0.03Na0.01Se1,Pb0.96Ba0.03Na0.01Se1,393.5,128060,0.00057016,0.000057947,2.0621,0.082617,0.0000078088,0.0002764948
3503,10.1021/ja400069s,105,6(a),203,Pb0.96Ba0.03Na0.01Se1,Pb0.96Ba0.03Na0.01Se1,394,127850,0.00057102,0.00005808,2.0599,0.083693,0.0000078217,0.0002772076
3503,10.1021/ja400069s,105,6(a),203,Pb0.96Ba0.03Na0.01Se1,Pb0.96Ba0.03Na0.01Se1,394.5,127640,0.00057188,0.000058212,2.0577,0.084769,0.0000078345,0.000277922
3503,10.1021/ja400069s,105,6(a),203,Pb0.96Ba0.03Na0.01Se1,Pb0.96Ba0.03Na0.01Se1,395,127430,0.00057275,0.000058345,2.0555,0.085845,0.0000078474,0.0002786427
3503,10.1021/ja400069s,105,6(a),203,Pb0.96Ba0.03Na0.01Se1,Pb0.96Ba0.03Na0.01Se1,395.5,127220,0.00057361,0.000058478,2.0533,0.086921,0.0000078604,0.0002793601
3503,10.1021/ja400069s,105,6(a),203,Pb0.96Ba0.03Na0.01Se1,Pb0.96Ba0.03Na0.01Se1,396,127010,0.00057447,0.000058612,2.0511,0.087997,0.0000078734,0.000280079
3503,10.1021/ja400069s,105,6(a),203,Pb0.96Ba0.03Na0.01Se1,Pb0.96Ba0.03Na0.01Se1,396.5,126800,0.00057534,0.000058745,2.0489,0.089073,0.0000078864,0.0002808043
3503,10.1021/ja400069s,105,6(a),203,Pb0.96Ba0.03Na0.01Se1,Pb0.96Ba0.03Na0.01Se1,397,126590,0.0005762,0.000058879,2.0467,0.090149,0.0000078995,0.0002815264
3503,10.1021/ja400069s,105,6(a),203,Pb0.96Ba0.03Na0.01Se1,Pb0.96Ba0.03Na0.01Se1,397.5,126390,0.00057706,0.000059013,2.0445,0.091225,0.000007912,0.0002822499
3503,10.1021/ja400069s,105,6(a),203,Pb0.96Ba0.03Na0.01Se1,Pb0.96Ba0.03Na0.01Se1,398,126180,0.00057793,0.000059148,2.0423,0.092301,0.0000079252,0.00028298
3503,10.1021/ja400069s,105,6(a),203,Pb0.96Ba0.03Na0.01Se1,Pb0.96Ba0.03Na0.01Se1,398.5,125970,0.00057879,0.000059282,2.0402,0.093377,0.0000079384,0.0002836928
3503,10.1021/ja400069s,105,6(a),203,Pb0.96Ba0.03Na0.01Se1,Pb0.96Ba0.03Na0.01Se1,399,125760,0.00057965,0.000059417,2.038,0.094453,0.0000079517,0.000284421
3503,10.1021/ja400069s,105,6(a),203,Pb0.96Ba0.03Na0.01Se1,Pb0.96Ba0.03Na0.01Se1,399.5,125550,0.00058052,0.000059552,2.0358,0.095529,0.000007965,0.0002851557
3503,10.1021/ja400069s,105,6(a),203,Pb0.96Ba0.03Na0.01Se1,Pb0.96Ba0.03Na0.01Se1,400,125350,0.00058138,0.000059687,2.0337,0.096605,0.0000079777,0.000285873
3503,10.1021/ja400069s,105,6(a),203,Pb0.96Ba0.03Na0.01Se1,Pb0.96Ba0.03Na0.01Se1,400.5,125140,0.00058224,0.000059823,2.0315,0.097681,0.0000079911,0.000286606
3503,10.1021/ja400069s,105,6(a),203,Pb0.96Ba0.03Na0.01Se1,Pb0.96Ba0.03Na0.01Se1,401,124930,0.00058311,0.000059959,2.0293,0.098757,0.0000080045,0.0002873454
3503,10.1021/ja400069s,105,6(a),203,Pb0.96Ba0.03Na0.01Se1,Pb0.96Ba0.03Na0.01Se1,401.5,124730,0.00058397,0.000060095,2.0272,0.099833,0.0000080173,0.0002880673
3503,10.1021/ja400069s,105,6(a),203,Pb0.96Ba0.03Na0.01Se1,Pb0.96Ba0.03Na0.01Se1,402,124520,0.00058483,0.000060231,2.025,0.10091,0.0000080308,0.0002888049
3503,10.1021/ja400069s,105,6(a),203,Pb0.96Ba0.03Na0.01Se1,Pb0.96Ba0.03Na0.01Se1,402.5,124310,0.0005857,0.000060368,2.0228,0.10198,0.0000080444,0.0002895491
3503,10.1021/ja400069s,105,6(a),203,Pb0.96Ba0.03Na0.01Se1,Pb0.96Ba0.03Na0.01Se1,403,124110,0.00058656,0.000060505,2.0207,0.10306,0.0000080574,0.0002902756
3503,10.1021/ja400069s,105,6(a),203,Pb0.96Ba0.03Na0.01Se1,Pb0.96Ba0.03Na0.01Se1,403.5,123900,0.00058742,0.000060642,2.0185,0.10414,0.000008071,0.0002910181
3503,10.1021/ja400069s,105,6(a),203,Pb0.96Ba0.03Na0.01Se1,Pb0.96Ba0.03Na0.01Se1,404,123700,0.00058828,0.000060779,2.0164,0.10521,0.0000080841,0.0002917477
3503,10.1021/ja400069s,105,6(a),203,Pb0.96Ba0.03Na0.01Se1,Pb0.96Ba0.03Na0.01Se1,404.5,123490,0.00058915,0.000060917,2.0143,0.10629,0.0000080978,0.0002924837
3503,10.1021/ja400069s,105,6(a),203,Pb0.96Ba0.03Na0.01Se1,Pb0.96Ba0.03Na0.01Se1,405,123290,0.00059001,0.000061054,2.0121,0.10736,0.000008111,0.000293231
3503,10.1021/ja400069s,105,6(a),203,Pb0.96Ba0.03Na0.01Se1,Pb0.96Ba0.03Na0.01Se1,405.5,123080,0.00059087,0.000061192,2.01,0.10844,0.0000081248,0.0002939652
3503,10.1021/ja400069s,105,6(a),203,Pb0.96Ba0.03Na0.01Se1,Pb0.96Ba0.03Na0.01Se1,406,122880,0.00059174,0.000061331,2.0078,0.10952,0.000008138,0.0002947206
3503,10.1021/ja400069s,105,6(a),203,Pb0.96Ba0.03Na0.01Se1,Pb0.96Ba0.03Na0.01Se1,406.5,122670,0.0005926,0.000061469,2.0057,0.11059,0.000008152,0.0002954579
3503,10.1021/ja400069s,105,6(a),203,Pb0.96Ba0.03Na0.01Se1,Pb0.96Ba0.03Na0.01Se1,407,122470,0.00059346,0.000061608,2.0036,0.11167,0.0000081653,0.0002961968
3503,10.1021/ja400069s,105,6(a),203,Pb0.96Ba0.03Na0.01Se1,Pb0.96Ba0.03Na0.01Se1,407.5,122270,0.00059433,0.000061747,2.0015,0.11274,0.0000081786,0.0002969423
3503,10.1021/ja400069s,105,6(a),203,Pb0.96Ba0.03Na0.01Se1,Pb0.96Ba0.03Na0.01Se1,408,122060,0.00059519,0.000061887,1.9993,0.11382,0.0000081927,0.0002976992
3503,10.1021/ja400069s,105,6(a),203,Pb0.96Ba0.03Na0.01Se1,Pb0.96Ba0.03Na0.01Se1,408.5,121860,0.00059605,0.000062027,1.9972,0.1149,0.0000082061,0.0002984428
3503,10.1021/ja400069s,105,6(a),203,Pb0.96Ba0.03Na0.01Se1,Pb0.96Ba0.03Na0.01Se1,409,121660,0.00059692,0.000062166,1.9951,0.11597,0.0000082196,0.000299193
3503,10.1021/ja400069s,105,6(a),203,Pb0.96Ba0.03Na0.01Se1,Pb0.96Ba0.03Na0.01Se1,409.5,121450,0.00059778,0.000062307,1.993,0.11705,0.0000082338,0.0002999398
3503,10.1021/ja400069s,105,6(a),203,Pb0.96Ba0.03Na0.01Se1,Pb0.96Ba0.03Na0.01Se1,410,121250,0.00059864,0.000062447,1.9909,0.11812,0.0000082474,0.0003006881
3503,10.1021/ja400069s,105,6(a),203,Pb0.96Ba0.03Na0.01Se1,Pb0.96Ba0.03Na0.01Se1,410.5,121050,0.00059951,0.000062588,1.9888,0.1192,0.000008261,0.0003014431
3503,10.1021/ja400069s,105,6(a),203,Pb0.96Ba0.03Na0.01Se1,Pb0.96Ba0.03Na0.01Se1,411,120850,0.00060037,0.000062729,1.9867,0.12028,0.0000082747,0.0003021946
3503,10.1021/ja400069s,105,6(a),203,Pb0.96Ba0.03Na0.01Se1,Pb0.96Ba0.03Na0.01Se1,411.5,120640,0.00060123,0.00006287,1.9846,0.12135,0.0000082891,0.0003029477
3503,10.1021/ja400069s,105,6(a),203,Pb0.96Ba0.03Na0.01Se1,Pb0.96Ba0.03Na0.01Se1,412,120440,0.0006021,0.000063012,1.9825,0.12243,0.0000083029,0.0003037074
3503,10.1021/ja400069s,105,6(a),203,Pb0.96Ba0.03Na0.01Se1,Pb0.96Ba0.03Na0.01Se1,412.5,120240,0.00060296,0.000063153,1.9804,0.1235,0.0000083167,0.0003044637
3503,10.1021/ja400069s,105,6(a),203,Pb0.96Ba0.03Na0.01Se1,Pb0.96Ba0.03Na0.01Se1,413,120040,0.00060382,0.000063296,1.9783,0.12458,0.0000083306,0.0003052217
3503,10.1021/ja400069s,105,6(a),203,Pb0.96Ba0.03Na0.01Se1,Pb0.96Ba0.03Na0.01Se1,413.5,119840,0.00060469,0.000063438,1.9762,0.12566,0.0000083445,0.0003059862
3503,10.1021/ja400069s,105,6(a),203,Pb0.96Ba0.03Na0.01Se1,Pb0.96Ba0.03Na0.01Se1,414,119640,0.00060555,0.00006358,1.9741,0.12673,0.0000083584,0.0003067474
3503,10.1021/ja400069s,105,6(a),203,Pb0.96Ba0.03Na0.01Se1,Pb0.96Ba0.03Na0.01Se1,414.5,119440,0.00060641,0.000063723,1.972,0.12781,0.0000083724,0.0003075101
3503,10.1021/ja400069s,105,6(a),203,Pb0.96Ba0.03Na0.01Se1,Pb0.96Ba0.03Na0.01Se1,415,119240,0.00060728,0.000063866,1.9699,0.12888,0.0000083864,0.0003082796
3503,10.1021/ja400069s,105,6(a),203,Pb0.96Ba0.03Na0.01Se1,Pb0.96Ba0.03Na0.01Se1,415.5,119030,0.00060814,0.00006401,1.9679,0.12996,0.0000084012,0.0003090299
3503,10.1021/ja400069s,105,6(a),203,Pb0.96Ba0.03Na0.01Se1,Pb0.96Ba0.03Na0.01Se1,416,118830,0.000609,0.000064154,1.9658,0.13104,0.0000084154,0.0003097975
3503,10.1021/ja400069s,105,6(a),203,Pb0.96Ba0.03Na0.01Se1,Pb0.96Ba0.03Na0.01Se1,416.5,118640,0.00060987,0.000064298,1.9637,0.13211,0.0000084289,0.0003105719
3503,10.1021/ja400069s,105,6(a),203,Pb0.96Ba0.03Na0.01Se1,Pb0.96Ba0.03Na0.01Se1,417,118440,0.00061073,0.000064442,1.9616,0.13319,0.0000084431,0.0003113428
3503,10.1021/ja400069s,105,6(a),203,Pb0.96Ba0.03Na0.01Se1,Pb0.96Ba0.03Na0.01Se1,417.5,118240,0.00061159,0.000064586,1.9596,0.13426,0.0000084574,0.0003120994
3503,10.1021/ja400069s,105,6(a),203,Pb0.96Ba0.03Na0.01Se1,Pb0.96Ba0.03Na0.01Se1,418,118040,0.00061246,0.000064731,1.9575,0.13534,0.0000084717,0.0003128787
3503,10.1021/ja400069s,105,6(a),203,Pb0.96Ba0.03Na0.01Se1,Pb0.96Ba0.03Na0.01Se1,418.5,117840,0.00061332,0.000064876,1.9554,0.13642,0.0000084861,0.0003136545
3503,10.1021/ja400069s,105,6(a),203,Pb0.96Ba0.03Na0.01Se1,Pb0.96Ba0.03Na0.01Se1,419,117640,0.00061418,0.000065022,1.9534,0.13749,0.0000085005,0.0003144159
3503,10.1021/ja400069s,105,6(a),203,Pb0.96Ba0.03Na0.01Se1,Pb0.96Ba0.03Na0.01Se1,419.5,117440,0.00061505,0.000065167,1.9513,0.13857,0.000008515,0.0003152001
3503,10.1021/ja400069s,105,6(a),203,Pb0.96Ba0.03Na0.01Se1,Pb0.96Ba0.03Na0.01Se1,420,117240,0.00061591,0.000065313,1.9493,0.13964,0.0000085295,0.0003159647
3503,10.1021/ja400069s,105,6(a),203,Pb0.96Ba0.03Na0.01Se1,Pb0.96Ba0.03Na0.01Se1,420.5,117040,0.00061677,0.000065459,1.9472,0.14072,0.0000085441,0.0003167471
3503,10.1021/ja400069s,105,6(a),203,Pb0.96Ba0.03Na0.01Se1,Pb0.96Ba0.03Na0.01Se1,421,116850,0.00061764,0.000065606,1.9452,0.1418,0.000008558,0.00031752
3503,10.1021/ja400069s,105,6(a),203,Pb0.96Ba0.03Na0.01Se1,Pb0.96Ba0.03Na0.01Se1,421.5,116650,0.0006185,0.000065752,1.9431,0.14287,0.0000085727,0.0003183058
3503,10.1021/ja400069s,105,6(a),203,Pb0.96Ba0.03Na0.01Se1,Pb0.96Ba0.03Na0.01Se1,422,116450,0.00061936,0.000065899,1.9411,0.14395,0.0000085874,0.0003190768
3503,10.1021/ja400069s,105,6(a),203,Pb0.96Ba0.03Na0.01Se1,Pb0.96Ba0.03Na0.01Se1,422.5,116260,0.00062023,0.000066047,1.9391,0.14502,0.0000086014,0.0003198546
3503,10.1021/ja400069s,105,6(a),203,Pb0.96Ba0.03Na0.01Se1,Pb0.96Ba0.03Na0.01Se1,423,116060,0.00062109,0.000066194,1.937,0.1461,0.0000086162,0.0003206453
3503,10.1021/ja400069s,105,6(a),203,Pb0.96Ba0.03Na0.01Se1,Pb0.96Ba0.03Na0.01Se1,423.5,115860,0.00062195,0.000066342,1.935,0.14718,0.0000086311,0.0003214212
3503,10.1021/ja400069s,105,6(a),203,Pb0.96Ba0.03Na0.01Se1,Pb0.96Ba0.03Na0.01Se1,424,115670,0.00062282,0.00006649,1.933,0.14825,0.0000086453,0.0003222038
3503,10.1021/ja400069s,105,6(a),203,Pb0.96Ba0.03Na0.01Se1,Pb0.96Ba0.03Na0.01Se1,424.5,115470,0.00062368,0.000066639,1.9309,0.14933,0.0000086603,0.0003229996
3503,10.1021/ja400069s,105,6(a),203,Pb0.96Ba0.03Na0.01Se1,Pb0.96Ba0.03Na0.01Se1,425,115270,0.00062454,0.000066787,1.9289,0.1504,0.0000086753,0.0003237804
3503,10.1021/ja400069s,105,6(a),203,Pb0.96Ba0.03Na0.01Se1,Pb0.96Ba0.03Na0.01Se1,425.5,115080,0.00062541,0.000066936,1.9269,0.15148,0.0000086896,0.000324568
3503,10.1021/ja400069s,105,6(a),203,Pb0.96Ba0.03Na0.01Se1,Pb0.96Ba0.03Na0.01Se1,426,114880,0.00062627,0.000067086,1.9249,0.15256,0.0000087047,0.000325352
3503,10.1021/ja400069s,105,6(a),203,Pb0.96Ba0.03Na0.01Se1,Pb0.96Ba0.03Na0.01Se1,426.5,114690,0.00062713,0.000067235,1.9228,0.15363,0.0000087192,0.0003261546
3503,10.1021/ja400069s,105,6(a),203,Pb0.96Ba0.03Na0.01Se1,Pb0.96Ba0.03Na0.01Se1,427,114490,0.000628,0.000067385,1.9208,0.15471,0.0000087344,0.0003269471
3503,10.1021/ja400069s,105,6(a),203,Pb0.96Ba0.03Na0.01Se1,Pb0.96Ba0.03Na0.01Se1,427.5,114300,0.00062886,0.000067535,1.9188,0.15578,0.0000087489,0.0003277361
3503,10.1021/ja400069s,105,6(a),203,Pb0.96Ba0.03Na0.01Se1,Pb0.96Ba0.03Na0.01Se1,428,114100,0.00062972,0.000067685,1.9168,0.15686,0.0000087642,0.0003285267
3503,10.1021/ja400069s,105,6(a),203,Pb0.96Ba0.03Na0.01Se1,Pb0.96Ba0.03Na0.01Se1,428.5,113910,0.00063058,0.000067836,1.9148,0.15794,0.0000087789,0.000329319
3503,10.1021/ja400069s,105,6(a),203,Pb0.96Ba0.03Na0.01Se1,Pb0.96Ba0.03Na0.01Se1,429,113710,0.00063145,0.000067987,1.9128,0.15901,0.0000087943,0.0003301182
3503,10.1021/ja400069s,105,6(a),203,Pb0.96Ba0.03Na0.01Se1,Pb0.96Ba0.03Na0.01Se1,429.5,113520,0.00063231,0.000068138,1.9108,0.16009,0.000008809,0.0003309138
3503,10.1021/ja400069s,105,6(a),203,Pb0.96Ba0.03Na0.01Se1,Pb0.96Ba0.03Na0.01Se1,430,113330,0.00063317,0.00006829,1.9088,0.16116,0.0000088238,0.000331711
3503,10.1021/ja400069s,105,6(a),203,Pb0.96Ba0.03Na0.01Se1,Pb0.96Ba0.03Na0.01Se1,430.5,113130,0.00063404,0.000068442,1.9068,0.16224,0.0000088394,0.0003325152
3503,10.1021/ja400069s,105,6(a),203,Pb0.96Ba0.03Na0.01Se1,Pb0.96Ba0.03Na0.01Se1,431,112940,0.0006349,0.000068594,1.9048,0.16332,0.0000088543,0.0003333158
3503,10.1021/ja400069s,105,6(a),203,Pb0.96Ba0.03Na0.01Se1,Pb0.96Ba0.03Na0.01Se1,431.5,112750,0.00063576,0.000068746,1.9028,0.16439,0.0000088692,0.0003341181
3503,10.1021/ja400069s,105,6(a),203,Pb0.96Ba0.03Na0.01Se1,Pb0.96Ba0.03Na0.01Se1,432,112550,0.00063663,0.000068899,1.9009,0.16547,0.0000088849,0.0003349098
3503,10.1021/ja400069s,105,6(a),203,Pb0.96Ba0.03Na0.01Se1,Pb0.96Ba0.03Na0.01Se1,432.5,112360,0.00063749,0.000069052,1.8989,0.16654,0.0000089,0.0003357154
3503,10.1021/ja400069s,105,6(a),203,Pb0.96Ba0.03Na0.01Se1,Pb0.96Ba0.03Na0.01Se1,433,112170,0.00063835,0.000069205,1.8969,0.16762,0.000008915,0.0003365227
3503,10.1021/ja400069s,105,6(a),203,Pb0.96Ba0.03Na0.01Se1,Pb0.96Ba0.03Na0.01Se1,433.5,111980,0.00063922,0.000069359,1.8949,0.1687,0.0000089302,0.0003373371
3503,10.1021/ja400069s,105,6(a),203,Pb0.96Ba0.03Na0.01Se1,Pb0.96Ba0.03Na0.01Se1,434,111780,0.00064008,0.000069512,1.893,0.16977,0.0000089461,0.00033813
3503,10.1021/ja400069s,105,6(a),203,Pb0.96Ba0.03Na0.01Se1,Pb0.96Ba0.03Na0.01Se1,434.5,111590,0.00064094,0.000069667,1.891,0.17085,0.0000089614,0.0003389424
3503,10.1021/ja400069s,105,6(a),203,Pb0.96Ba0.03Na0.01Se1,Pb0.96Ba0.03Na0.01Se1,435,111400,0.00064181,0.000069821,1.889,0.17192,0.0000089767,0.0003397618
3503,10.1021/ja400069s,105,6(a),203,Pb0.96Ba0.03Na0.01Se1,Pb0.96Ba0.03Na0.01Se1,435.5,111210,0.00064267,0.000069976,1.887,0.173,0.000008992,0.0003405776
3503,10.1021/ja400069s,105,6(a),203,Pb0.96Ba0.03Na0.01Se1,Pb0.96Ba0.03Na0.01Se1,436,111020,0.00064353,0.000070131,1.8851,0.17408,0.0000090074,0.0003413771
3503,10.1021/ja400069s,105,6(a),203,Pb0.96Ba0.03Na0.01Se1,Pb0.96Ba0.03Na0.01Se1,436.5,110830,0.0006444,0.000070286,1.8831,0.17515,0.0000090228,0.0003422017
3503,10.1021/ja400069s,105,6(a),203,Pb0.96Ba0.03Na0.01Se1,Pb0.96Ba0.03Na0.01Se1,437,110640,0.00064526,0.000070442,1.8812,0.17623,0.0000090383,0.0003430045
3503,10.1021/ja400069s,105,6(a),203,Pb0.96Ba0.03Na0.01Se1,Pb0.96Ba0.03Na0.01Se1,437.5,110450,0.00064612,0.000070597,1.8792,0.1773,0.0000090539,0.0003438272
3503,10.1021/ja400069s,105,6(a),203,Pb0.96Ba0.03Na0.01Se1,Pb0.96Ba0.03Na0.01Se1,438,110260,0.00064699,0.000070754,1.8773,0.17838,0.0000090695,0.0003446386
3503,10.1021/ja400069s,105,6(a),203,Pb0.96Ba0.03Na0.01Se1,Pb0.96Ba0.03Na0.01Se1,438.5,110070,0.00064785,0.00007091,1.8753,0.17946,0.0000090851,0.0003454647
3503,10.1021/ja400069s,105,6(a),203,Pb0.96Ba0.03Na0.01Se1,Pb0.96Ba0.03Na0.01Se1,439,109880,0.00064871,0.000071067,1.8734,0.18053,0.0000091008,0.0003462742
3503,10.1021/ja400069s,105,6(a),203,Pb0.96Ba0.03Na0.01Se1,Pb0.96Ba0.03Na0.01Se1,439.5,109690,0.00064958,0.000071224,1.8714,0.18161,0.0000091166,0.0003471091
3503,10.1021/ja400069s,105,6(a),203,Pb0.96Ba0.03Na0.01Se1,Pb0.96Ba0.03Na0.01Se1,440,109500,0.00065044,0.000071381,1.8695,0.18268,0.0000091324,0.0003479219
3503,10.1021/ja400069s,105,6(a),203,Pb0.96Ba0.03Na0.01Se1,Pb0.96Ba0.03Na0.01Se1,440.5,109310,0.0006513,0.000071539,1.8676,0.18376,0.0000091483,0.0003487363
3503,10.1021/ja400069s,105,6(a),203,Pb0.96Ba0.03Na0.01Se1,Pb0.96Ba0.03Na0.01Se1,441,109120,0.00065217,0.000071696,1.8656,0.18484,0.0000091642,0.0003495765
3503,10.1021/ja400069s,105,6(a),203,Pb0.96Ba0.03Na0.01Se1,Pb0.96Ba0.03Na0.01Se1,441.5,108930,0.00065303,0.000071855,1.8637,0.18591,0.0000091802,0.0003503944
3503,10.1021/ja400069s,105,6(a),203,Pb0.96Ba0.03Na0.01Se1,Pb0.96Ba0.03Na0.01Se1,442,108740,0.00065389,0.000072013,1.8618,0.18699,0.0000091962,0.0003512139
3503,10.1021/ja400069s,105,6(a),203,Pb0.96Ba0.03Na0.01Se1,Pb0.96Ba0.03Na0.01Se1,442.5,108550,0.00065476,0.000072172,1.8598,0.18806,0.0000092123,0.0003520594
3503,10.1021/ja400069s,105,6(a),203,Pb0.96Ba0.03Na0.01Se1,Pb0.96Ba0.03Na0.01Se1,443,108370,0.00065562,0.000072331,1.8579,0.18914,0.0000092276,0.0003528823
3503,10.1021/ja400069s,105,6(a),203,Pb0.96Ba0.03Na0.01Se1,Pb0.96Ba0.03Na0.01Se1,443.5,108180,0.00065648,0.00007249,1.856,0.19022,0.0000092439,0.0003537069
3503,10.1021/ja400069s,105,6(a),203,Pb0.96Ba0.03Na0.01Se1,Pb0.96Ba0.03Na0.01Se1,444,107990,0.00065735,0.00007265,1.8541,0.19129,0.0000092601,0.0003545386
3503,10.1021/ja400069s,105,6(a),203,Pb0.96Ba0.03Na0.01Se1,Pb0.96Ba0.03Na0.01Se1,444.5,107800,0.00065821,0.00007281,1.8522,0.19237,0.0000092764,0.0003553666
3503,10.1021/ja400069s,105,6(a),203,Pb0.96Ba0.03Na0.01Se1,Pb0.96Ba0.03Na0.01Se1,445,107620,0.00065907,0.00007297,1.8502,0.19344,0.000009292,0.0003562155
3503,10.1021/ja400069s,105,6(a),203,Pb0.96Ba0.03Na0.01Se1,Pb0.96Ba0.03Na0.01Se1,445.5,107430,0.00065994,0.000073131,1.8483,0.19452,0.0000093084,0.0003570524
3503,10.1021/ja400069s,105,6(a),203,Pb0.96Ba0.03Na0.01Se1,Pb0.96Ba0.03Na0.01Se1,446,107240,0.0006608,0.000073291,1.8464,0.1956,0.0000093249,0.0003578856
3503,10.1021/ja400069s,105,6(a),203,Pb0.96Ba0.03Na0.01Se1,Pb0.96Ba0.03Na0.01Se1,446.5,107060,0.00066166,0.000073452,1.8445,0.19667,0.0000093406,0.0003587205
3503,10.1021/ja400069s,105,6(a),203,Pb0.96Ba0.03Na0.01Se1,Pb0.96Ba0.03Na0.01Se1,447,106870,0.00066253,0.000073614,1.8426,0.19775,0.0000093572,0.0003595626
3503,10.1021/ja400069s,105,6(a),203,Pb0.96Ba0.03Na0.01Se1,Pb0.96Ba0.03Na0.01Se1,447.5,106690,0.00066339,0.000073775,1.8407,0.19882,0.0000093729,0.0003604009
3503,10.1021/ja400069s,105,6(a),203,Pb0.96Ba0.03Na0.01Se1,Pb0.96Ba0.03Na0.01Se1,448,106500,0.00066425,0.000073937,1.8388,0.1999,0.0000093897,0.000361241
3503,10.1021/ja400069s,105,6(a),203,Pb0.96Ba0.03Na0.01Se1,Pb0.96Ba0.03Na0.01Se1,448.5,106310,0.00066512,0.0000741,1.8369,0.20098,0.0000094065,0.0003620883
3503,10.1021/ja400069s,105,6(a),203,Pb0.96Ba0.03Na0.01Se1,Pb0.96Ba0.03Na0.01Se1,449,106130,0.00066598,0.000074262,1.835,0.20205,0.0000094224,0.0003629319
3503,10.1021/ja400069s,105,6(a),203,Pb0.96Ba0.03Na0.01Se1,Pb0.96Ba0.03Na0.01Se1,449.5,105940,0.00066684,0.000074425,1.8332,0.20313,0.0000094393,0.0003637574
3503,10.1021/ja400069s,105,6(a),203,Pb0.96Ba0.03Na0.01Se1,Pb0.96Ba0.03Na0.01Se1,450,105760,0.00066771,0.000074588,1.8313,0.2042,0.0000094554,0.0003646098
3503,10.1021/ja400069s,105,6(a),203,Pb0.96Ba0.03Na0.01Se1,Pb0.96Ba0.03Na0.01Se1,450.5,105570,0.00066857,0.000074752,1.8294,0.20528,0.0000094724,0.0003654586
3503,10.1021/ja400069s,105,6(a),203,Pb0.96Ba0.03Na0.01Se1,Pb0.96Ba0.03Na0.01Se1,451,105390,0.00066943,0.000074915,1.8275,0.20636,0.0000094886,0.0003663092
3503,10.1021/ja400069s,105,6(a),203,Pb0.96Ba0.03Na0.01Se1,Pb0.96Ba0.03Na0.01Se1,451.5,105210,0.0006703,0.000075079,1.8256,0.20743,0.0000095048,0.000367167
3503,10.1021/ja400069s,105,6(a),203,Pb0.96Ba0.03Na0.01Se1,Pb0.96Ba0.03Na0.01Se1,452,105020,0.00067116,0.000075244,1.8238,0.20851,0.000009522,0.0003680009
3503,10.1021/ja400069s,105,6(a),203,Pb0.96Ba0.03Na0.01Se1,Pb0.96Ba0.03Na0.01Se1,452.5,104840,0.00067202,0.000075408,1.8219,0.20958,0.0000095383,0.0003688567
3503,10.1021/ja400069s,105,6(a),203,Pb0.96Ba0.03Na0.01Se1,Pb0.96Ba0.03Na0.01Se1,453,104660,0.00067288,0.000075573,1.82,0.21066,0.0000095547,0.0003697143
3503,10.1021/ja400069s,105,6(a),203,Pb0.96Ba0.03Na0.01Se1,Pb0.96Ba0.03Na0.01Se1,453.5,104470,0.00067375,0.000075738,1.8182,0.21174,0.0000095721,0.0003705588
3503,10.1021/ja400069s,105,6(a),203,Pb0.96Ba0.03Na0.01Se1,Pb0.96Ba0.03Na0.01Se1,454,104290,0.00067461,0.000075904,1.8163,0.21281,0.0000095886,0.0003714199
3503,10.1021/ja400069s,105,6(a),203,Pb0.96Ba0.03Na0.01Se1,Pb0.96Ba0.03Na0.01Se1,454.5,104110,0.00067547,0.000076069,1.8144,0.21389,0.0000096052,0.0003722828
3503,10.1021/ja400069s,105,6(a),203,Pb0.96Ba0.03Na0.01Se1,Pb0.96Ba0.03Na0.01Se1,455,103920,0.00067634,0.000076235,1.8126,0.21496,0.0000096228,0.0003731325
3503,10.1021/ja400069s,105,6(a),203,Pb0.96Ba0.03Na0.01Se1,Pb0.96Ba0.03Na0.01Se1,455.5,103740,0.0006772,0.000076402,1.8107,0.21604,0.0000096395,0.000373999