sid,DOI,figureid,fignum,sampleid,samplename,composition,Temperature,Electrical conductivity,Power factor,Seebeck coefficient,Thermal conductivity,ZT,Electrical resistivity,Figure of merit Z
3503,10.1021/ja400069s,105,6(a),311,Pb0.99Na0.01Se1,Pb0.99Na0.01Se1,783.5,41575,0.0012141,0.00017129,1.4815,0.63462,0.0000240529,0.0008195073
3503,10.1021/ja400069s,105,6(a),311,Pb0.99Na0.01Se1,Pb0.99Na0.01Se1,784,41480,0.0012151,0.00017148,1.4803,0.63537,0.000024108,0.0008208471
3503,10.1021/ja400069s,105,6(a),311,Pb0.99Na0.01Se1,Pb0.99Na0.01Se1,784.5,41385,0.0012161,0.00017168,1.4791,0.63613,0.0000241633,0.0008221892
3503,10.1021/ja400069s,105,6(a),311,Pb0.99Na0.01Se1,Pb0.99Na0.01Se1,785,41291,0.0012171,0.00017187,1.4779,0.63688,0.0000242184,0.0008235334
3503,10.1021/ja400069s,105,6(a),311,Pb0.99Na0.01Se1,Pb0.99Na0.01Se1,785.5,41197,0.0012181,0.00017207,1.4766,0.63764,0.0000242736,0.0008249357
3503,10.1021/ja400069s,105,6(a),311,Pb0.99Na0.01Se1,Pb0.99Na0.01Se1,786,41103,0.001219,0.00017226,1.4754,0.63839,0.0000243291,0.0008262166
3503,10.1021/ja400069s,105,6(a),311,Pb0.99Na0.01Se1,Pb0.99Na0.01Se1,786.5,41010,0.00122,0.00017246,1.4742,0.63915,0.0000243843,0.0008275675
3503,10.1021/ja400069s,105,6(a),311,Pb0.99Na0.01Se1,Pb0.99Na0.01Se1,787,40917,0.001221,0.00017265,1.473,0.6399,0.0000244397,0.0008289206
3503,10.1021/ja400069s,105,6(a),311,Pb0.99Na0.01Se1,Pb0.99Na0.01Se1,787.5,40824,0.001222,0.00017284,1.4718,0.64066,0.0000244954,0.0008302759
3503,10.1021/ja400069s,105,6(a),311,Pb0.99Na0.01Se1,Pb0.99Na0.01Se1,788,40732,0.001223,0.00017304,1.4706,0.64141,0.0000245507,0.0008316333
3503,10.1021/ja400069s,105,6(a),311,Pb0.99Na0.01Se1,Pb0.99Na0.01Se1,788.5,40640,0.001224,0.00017323,1.4694,0.64217,0.0000246063,0.0008329931
3503,10.1021/ja400069s,105,6(a),311,Pb0.99Na0.01Se1,Pb0.99Na0.01Se1,789,40549,0.001225,0.00017343,1.4682,0.64293,0.0000246615,0.000834355
3503,10.1021/ja400069s,105,6(a),311,Pb0.99Na0.01Se1,Pb0.99Na0.01Se1,789.5,40458,0.0012259,0.00017362,1.467,0.64368,0.000024717,0.000835651
3503,10.1021/ja400069s,105,6(a),311,Pb0.99Na0.01Se1,Pb0.99Na0.01Se1,790,40367,0.0012269,0.00017381,1.4658,0.64444,0.0000247727,0.0008370173
3503,10.1021/ja400069s,105,6(a),311,Pb0.99Na0.01Se1,Pb0.99Na0.01Se1,790.5,40277,0.0012279,0.00017401,1.4646,0.64519,0.0000248281,0.0008383859
3503,10.1021/ja400069s,105,6(a),311,Pb0.99Na0.01Se1,Pb0.99Na0.01Se1,791,40187,0.0012289,0.0001742,1.4635,0.64595,0.0000248837,0.0008396994
3503,10.1021/ja400069s,105,6(a),311,Pb0.99Na0.01Se1,Pb0.99Na0.01Se1,791.5,40097,0.0012299,0.00017439,1.4623,0.6467,0.0000249395,0.0008410723
3503,10.1021/ja400069s,105,6(a),311,Pb0.99Na0.01Se1,Pb0.99Na0.01Se1,792,40008,0.0012309,0.00017459,1.4611,0.64746,0.000024995,0.0008424475
3503,10.1021/ja400069s,105,6(a),311,Pb0.99Na0.01Se1,Pb0.99Na0.01Se1,792.5,39919,0.0012319,0.00017478,1.4599,0.64821,0.0000250507,0.0008438249
3503,10.1021/ja400069s,105,6(a),311,Pb0.99Na0.01Se1,Pb0.99Na0.01Se1,793,39831,0.0012328,0.00017497,1.4588,0.64897,0.0000251061,0.0008450781
3503,10.1021/ja400069s,105,6(a),311,Pb0.99Na0.01Se1,Pb0.99Na0.01Se1,793.5,39742,0.0012338,0.00017517,1.4576,0.64972,0.0000251623,0.0008464599
3503,10.1021/ja400069s,105,6(a),311,Pb0.99Na0.01Se1,Pb0.99Na0.01Se1,794,39655,0.0012348,0.00017536,1.4564,0.65048,0.0000252175,0.000847844
3503,10.1021/ja400069s,105,6(a),311,Pb0.99Na0.01Se1,Pb0.99Na0.01Se1,794.5,39567,0.0012358,0.00017555,1.4553,0.65123,0.0000252736,0.000849172
3503,10.1021/ja400069s,105,6(a),311,Pb0.99Na0.01Se1,Pb0.99Na0.01Se1,795,39480,0.0012368,0.00017575,1.4541,0.65199,0.0000253293,0.0008505605
3503,10.1021/ja400069s,105,6(a),311,Pb0.99Na0.01Se1,Pb0.99Na0.01Se1,795.5,39394,0.0012378,0.00017594,1.453,0.65275,0.0000253846,0.0008518926
3503,10.1021/ja400069s,105,6(a),311,Pb0.99Na0.01Se1,Pb0.99Na0.01Se1,796,39307,0.0012388,0.00017613,1.4518,0.6535,0.0000254408,0.0008532856
3503,10.1021/ja400069s,105,6(a),311,Pb0.99Na0.01Se1,Pb0.99Na0.01Se1,796.5,39222,0.0012397,0.00017632,1.4507,0.65426,0.0000254959,0.000854553
3503,10.1021/ja400069s,105,6(a),311,Pb0.99Na0.01Se1,Pb0.99Na0.01Se1,797,39136,0.0012407,0.00017652,1.4495,0.65501,0.0000255519,0.0008559503
3503,10.1021/ja400069s,105,6(a),311,Pb0.99Na0.01Se1,Pb0.99Na0.01Se1,797.5,39051,0.0012417,0.00017671,1.4484,0.65577,0.0000256075,0.0008572908
3503,10.1021/ja400069s,105,6(a),311,Pb0.99Na0.01Se1,Pb0.99Na0.01Se1,798,38966,0.0012427,0.0001769,1.4473,0.65652,0.0000256634,0.0008586333
3503,10.1021/ja400069s,105,6(a),311,Pb0.99Na0.01Se1,Pb0.99Na0.01Se1,798.5,38882,0.0012437,0.00017709,1.4461,0.65728,0.0000257188,0.0008600373
3503,10.1021/ja400069s,105,6(a),311,Pb0.99Na0.01Se1,Pb0.99Na0.01Se1,799,38798,0.0012447,0.00017728,1.445,0.65803,0.0000257745,0.0008613841
3503,10.1021/ja400069s,105,6(a),311,Pb0.99Na0.01Se1,Pb0.99Na0.01Se1,799.5,38714,0.0012457,0.00017748,1.4439,0.65879,0.0000258304,0.0008627329
3503,10.1021/ja400069s,105,6(a),311,Pb0.99Na0.01Se1,Pb0.99Na0.01Se1,800,38631,0.0012466,0.00017767,1.4427,0.65954,0.0000258859,0.0008640743
3503,10.1021/ja400069s,105,6(a),311,Pb0.99Na0.01Se1,Pb0.99Na0.01Se1,800.5,38548,0.0012476,0.00017786,1.4416,0.6603,0.0000259417,0.0008654273
3503,10.1021/ja400069s,105,6(a),311,Pb0.99Na0.01Se1,Pb0.99Na0.01Se1,801,38465,0.0012486,0.00017805,1.4405,0.66106,0.0000259977,0.0008667824
3503,10.1021/ja400069s,105,6(a),311,Pb0.99Na0.01Se1,Pb0.99Na0.01Se1,801.5,38383,0.0012496,0.00017824,1.4394,0.66181,0.0000260532,0.0008681395
3503,10.1021/ja400069s,105,6(a),311,Pb0.99Na0.01Se1,Pb0.99Na0.01Se1,802,38301,0.0012506,0.00017843,1.4383,0.66257,0.000026109,0.0008694987
3503,10.1021/ja400069s,105,6(a),311,Pb0.99Na0.01Se1,Pb0.99Na0.01Se1,802.5,38219,0.0012516,0.00017863,1.4372,0.66332,0.000026165,0.00087086
3503,10.1021/ja400069s,105,6(a),311,Pb0.99Na0.01Se1,Pb0.99Na0.01Se1,803,38138,0.0012526,0.00017882,1.4361,0.66408,0.0000262206,0.0008722234
3503,10.1021/ja400069s,105,6(a),311,Pb0.99Na0.01Se1,Pb0.99Na0.01Se1,803.5,38058,0.0012535,0.00017901,1.435,0.66483,0.0000262757,0.0008735192
3503,10.1021/ja400069s,105,6(a),311,Pb0.99Na0.01Se1,Pb0.99Na0.01Se1,804,37977,0.0012545,0.0001792,1.4339,0.66559,0.0000263317,0.0008748867
3503,10.1021/ja400069s,105,6(a),311,Pb0.99Na0.01Se1,Pb0.99Na0.01Se1,804.5,37897,0.0012555,0.00017939,1.4328,0.66634,0.0000263873,0.0008762563
3503,10.1021/ja400069s,105,6(a),311,Pb0.99Na0.01Se1,Pb0.99Na0.01Se1,805,37817,0.0012565,0.00017958,1.4317,0.6671,0.0000264431,0.000877628
3503,10.1021/ja400069s,105,6(a),311,Pb0.99Na0.01Se1,Pb0.99Na0.01Se1,805.5,37738,0.0012575,0.00017977,1.4306,0.66785,0.0000264985,0.0008790018
3503,10.1021/ja400069s,105,6(a),311,Pb0.99Na0.01Se1,Pb0.99Na0.01Se1,806,37659,0.0012585,0.00017996,1.4295,0.66861,0.0000265541,0.0008803778
3503,10.1021/ja400069s,105,6(a),311,Pb0.99Na0.01Se1,Pb0.99Na0.01Se1,806.5,37581,0.0012595,0.00018015,1.4284,0.66936,0.0000266092,0.0008817558
3503,10.1021/ja400069s,105,6(a),311,Pb0.99Na0.01Se1,Pb0.99Na0.01Se1,807,37502,0.0012604,0.00018034,1.4273,0.67012,0.0000266652,0.0008830659
3503,10.1021/ja400069s,105,6(a),311,Pb0.99Na0.01Se1,Pb0.99Na0.01Se1,807.5,37425,0.0012614,0.00018053,1.4263,0.67088,0.0000267201,0.0008843862
3503,10.1021/ja400069s,105,6(a),311,Pb0.99Na0.01Se1,Pb0.99Na0.01Se1,808,37347,0.0012624,0.00018072,1.4252,0.67163,0.0000267759,0.0008857704
3503,10.1021/ja400069s,105,6(a),311,Pb0.99Na0.01Se1,Pb0.99Na0.01Se1,808.5,37270,0.0012634,0.00018091,1.4241,0.67239,0.0000268312,0.0008871568
3503,10.1021/ja400069s,105,6(a),311,Pb0.99Na0.01Se1,Pb0.99Na0.01Se1,809,37193,0.0012644,0.0001811,1.423,0.67314,0.0000268868,0.0008885453
3503,10.1021/ja400069s,105,6(a),311,Pb0.99Na0.01Se1,Pb0.99Na0.01Se1,809.5,37117,0.0012654,0.00018129,1.422,0.6739,0.0000269418,0.0008898734
3503,10.1021/ja400069s,105,6(a),311,Pb0.99Na0.01Se1,Pb0.99Na0.01Se1,810,37041,0.0012664,0.00018148,1.4209,0.67465,0.0000269971,0.0008912661
3503,10.1021/ja400069s,105,6(a),311,Pb0.99Na0.01Se1,Pb0.99Na0.01Se1,810.5,36965,0.0012673,0.00018167,1.4199,0.67541,0.0000270526,0.0008925276
3503,10.1021/ja400069s,105,6(a),311,Pb0.99Na0.01Se1,Pb0.99Na0.01Se1,811,36890,0.0012683,0.00018186,1.4188,0.67616,0.0000271076,0.0008939244
3503,10.1021/ja400069s,105,6(a),311,Pb0.99Na0.01Se1,Pb0.99Na0.01Se1,811.5,36815,0.0012693,0.00018205,1.4178,0.67692,0.0000271628,0.0008952603
3503,10.1021/ja400069s,105,6(a),311,Pb0.99Na0.01Se1,Pb0.99Na0.01Se1,812,36740,0.0012703,0.00018224,1.4167,0.67767,0.0000272183,0.0008966613
3503,10.1021/ja400069s,105,6(a),311,Pb0.99Na0.01Se1,Pb0.99Na0.01Se1,812.5,36666,0.0012713,0.00018243,1.4157,0.67843,0.0000272732,0.000898001
3503,10.1021/ja400069s,105,6(a),311,Pb0.99Na0.01Se1,Pb0.99Na0.01Se1,813,36592,0.0012723,0.00018262,1.4146,0.67919,0.0000273284,0.0008994062
3503,10.1021/ja400069s,105,6(a),311,Pb0.99Na0.01Se1,Pb0.99Na0.01Se1,813.5,36518,0.0012732,0.00018281,1.4136,0.67994,0.0000273838,0.0009006791
3503,10.1021/ja400069s,105,6(a),311,Pb0.99Na0.01Se1,Pb0.99Na0.01Se1,814,36445,0.0012742,0.000183,1.4125,0.6807,0.0000274386,0.0009020885
3503,10.1021/ja400069s,105,6(a),311,Pb0.99Na0.01Se1,Pb0.99Na0.01Se1,814.5,36372,0.0012752,0.00018318,1.4115,0.68145,0.0000274937,0.0009034361
3503,10.1021/ja400069s,105,6(a),311,Pb0.99Na0.01Se1,Pb0.99Na0.01Se1,815,36300,0.0012762,0.00018337,1.4105,0.68221,0.0000275482,0.0009047855
3503,10.1021/ja400069s,105,6(a),311,Pb0.99Na0.01Se1,Pb0.99Na0.01Se1,815.5,36227,0.0012772,0.00018356,1.4095,0.68296,0.0000276037,0.0009061369
3503,10.1021/ja400069s,105,6(a),311,Pb0.99Na0.01Se1,Pb0.99Na0.01Se1,816,36156,0.0012782,0.00018375,1.4084,0.68372,0.0000276579,0.0009075547
3503,10.1021/ja400069s,105,6(a),311,Pb0.99Na0.01Se1,Pb0.99Na0.01Se1,816.5,36084,0.0012792,0.00018394,1.4074,0.68447,0.0000277131,0.00090891
3503,10.1021/ja400069s,105,6(a),311,Pb0.99Na0.01Se1,Pb0.99Na0.01Se1,817,36013,0.0012801,0.00018413,1.4064,0.68523,0.0000277678,0.0009101962
3503,10.1021/ja400069s,105,6(a),311,Pb0.99Na0.01Se1,Pb0.99Na0.01Se1,817.5,35942,0.0012811,0.00018431,1.4054,0.68598,0.0000278226,0.0009115554
3503,10.1021/ja400069s,105,6(a),311,Pb0.99Na0.01Se1,Pb0.99Na0.01Se1,818,35872,0.0012821,0.0001845,1.4044,0.68674,0.0000278769,0.0009129165
3503,10.1021/ja400069s,105,6(a),311,Pb0.99Na0.01Se1,Pb0.99Na0.01Se1,818.5,35802,0.0012831,0.00018469,1.4034,0.6875,0.0000279314,0.0009142796
3503,10.1021/ja400069s,105,6(a),311,Pb0.99Na0.01Se1,Pb0.99Na0.01Se1,819,35732,0.0012841,0.00018488,1.4024,0.68825,0.0000279861,0.0009156446
3503,10.1021/ja400069s,105,6(a),311,Pb0.99Na0.01Se1,Pb0.99Na0.01Se1,819.5,35663,0.0012851,0.00018506,1.4014,0.68901,0.0000280403,0.0009170116
3503,10.1021/ja400069s,105,6(a),311,Pb0.99Na0.01Se1,Pb0.99Na0.01Se1,820,35594,0.0012861,0.00018525,1.4004,0.68976,0.0000280946,0.0009183805
3503,10.1021/ja400069s,105,6(a),311,Pb0.99Na0.01Se1,Pb0.99Na0.01Se1,820.5,35525,0.001287,0.00018544,1.3994,0.69052,0.0000281492,0.0009196799
3503,10.1021/ja400069s,105,6(a),311,Pb0.99Na0.01Se1,Pb0.99Na0.01Se1,821,35457,0.001288,0.00018563,1.3984,0.69127,0.0000282032,0.0009210526
3503,10.1021/ja400069s,105,6(a),311,Pb0.99Na0.01Se1,Pb0.99Na0.01Se1,821.5,35389,0.001289,0.00018581,1.3974,0.69203,0.0000282574,0.0009224274
3503,10.1021/ja400069s,105,6(a),311,Pb0.99Na0.01Se1,Pb0.99Na0.01Se1,822,35322,0.00129,0.000186,1.3964,0.69278,0.000028311,0.0009238041
3503,10.1021/ja400069s,105,6(a),311,Pb0.99Na0.01Se1,Pb0.99Na0.01Se1,822.5,35254,0.001291,0.00018619,1.3954,0.69354,0.0000283656,0.0009251827
3503,10.1021/ja400069s,105,6(a),311,Pb0.99Na0.01Se1,Pb0.99Na0.01Se1,823,35187,0.001292,0.00018637,1.3944,0.69429,0.0000284196,0.0009265634
3503,10.1021/ja400069s,105,6(a),311,Pb0.99Na0.01Se1,Pb0.99Na0.01Se1,823.5,35121,0.001293,0.00018656,1.3934,0.69505,0.000028473,0.000927946
3503,10.1021/ja400069s,105,6(a),311,Pb0.99Na0.01Se1,Pb0.99Na0.01Se1,824,35055,0.0012939,0.00018675,1.3925,0.6958,0.0000285266,0.0009291921
3503,10.1021/ja400069s,105,6(a),311,Pb0.99Na0.01Se1,Pb0.99Na0.01Se1,824.5,34989,0.0012949,0.00018693,1.3915,0.69656,0.0000285804,0.0009305785
3503,10.1021/ja400069s,105,6(a),311,Pb0.99Na0.01Se1,Pb0.99Na0.01Se1,825,34923,0.0012959,0.00018712,1.3905,0.69732,0.0000286344,0.0009319669
3503,10.1021/ja400069s,105,6(a),311,Pb0.99Na0.01Se1,Pb0.99Na0.01Se1,825.5,34858,0.0012969,0.0001873,1.3896,0.69807,0.0000286878,0.0009332902
3503,10.1021/ja400069s,105,6(a),311,Pb0.99Na0.01Se1,Pb0.99Na0.01Se1,826,34793,0.0012979,0.00018749,1.3886,0.69883,0.0000287414,0.0009346824
3503,10.1021/ja400069s,105,6(a),311,Pb0.99Na0.01Se1,Pb0.99Na0.01Se1,826.5,34729,0.0012989,0.00018767,1.3876,0.69958,0.0000287944,0.0009360767
3503,10.1021/ja400069s,105,6(a),311,Pb0.99Na0.01Se1,Pb0.99Na0.01Se1,827,34665,0.0012999,0.00018786,1.3867,0.70034,0.0000288475,0.0009374054
3503,10.1021/ja400069s,105,6(a),311,Pb0.99Na0.01Se1,Pb0.99Na0.01Se1,827.5,34601,0.0013008,0.00018805,1.3857,0.70109,0.0000289009,0.0009387313
3503,10.1021/ja400069s,105,6(a),311,Pb0.99Na0.01Se1,Pb0.99Na0.01Se1,828,34537,0.0013018,0.00018823,1.3848,0.70185,0.0000289545,0.0009400635
3503,10.1021/ja400069s,105,6(a),311,Pb0.99Na0.01Se1,Pb0.99Na0.01Se1,828.5,34474,0.0013028,0.00018842,1.3838,0.7026,0.0000290074,0.0009414655
3503,10.1021/ja400069s,105,6(a),311,Pb0.99Na0.01Se1,Pb0.99Na0.01Se1,829,34412,0.0013038,0.0001886,1.3829,0.70336,0.0000290596,0.0009428014
3503,10.1021/ja400069s,105,6(a),311,Pb0.99Na0.01Se1,Pb0.99Na0.01Se1,829.5,34349,0.0013048,0.00018878,1.382,0.70411,0.0000291129,0.0009441389
3503,10.1021/ja400069s,105,6(a),311,Pb0.99Na0.01Se1,Pb0.99Na0.01Se1,830,34287,0.0013058,0.00018897,1.381,0.70487,0.0000291656,0.0009455467
3503,10.1021/ja400069s,105,6(a),311,Pb0.99Na0.01Se1,Pb0.99Na0.01Se1,830.5,34225,0.0013068,0.00018915,1.3801,0.70563,0.0000292184,0.0009468879
3503,10.1021/ja400069s,105,6(a),311,Pb0.99Na0.01Se1,Pb0.99Na0.01Se1,831,34164,0.0013077,0.00018934,1.3792,0.70638,0.0000292706,0.0009481584
3503,10.1021/ja400069s,105,6(a),311,Pb0.99Na0.01Se1,Pb0.99Na0.01Se1,831.5,34103,0.0013087,0.00018952,1.3782,0.70714,0.0000293229,0.0009495719
3503,10.1021/ja400069s,105,6(a),311,Pb0.99Na0.01Se1,Pb0.99Na0.01Se1,832,34042,0.0013097,0.00018971,1.3773,0.70789,0.0000293755,0.0009509185
3503,10.1021/ja400069s,105,6(a),311,Pb0.99Na0.01Se1,Pb0.99Na0.01Se1,832.5,33982,0.0013107,0.00018989,1.3764,0.70865,0.0000294273,0.0009522668
3503,10.1021/ja400069s,105,6(a),311,Pb0.99Na0.01Se1,Pb0.99Na0.01Se1,833,33921,0.0013117,0.00019007,1.3755,0.7094,0.0000294803,0.0009536169
3503,10.1021/ja400069s,105,6(a),311,Pb0.99Na0.01Se1,Pb0.99Na0.01Se1,833.5,33862,0.0013127,0.00019026,1.3745,0.71016,0.0000295316,0.0009550382
3503,10.1021/ja400069s,105,6(a),311,Pb0.99Na0.01Se1,Pb0.99Na0.01Se1,834,33802,0.0013137,0.00019044,1.3736,0.71091,0.000029584,0.000956392
3503,10.1021/ja400069s,105,6(a),311,Pb0.99Na0.01Se1,Pb0.99Na0.01Se1,834.5,33743,0.0013146,0.00019062,1.3727,0.71167,0.0000296358,0.0009576747
3503,10.1021/ja400069s,105,6(a),311,Pb0.99Na0.01Se1,Pb0.99Na0.01Se1,835,33684,0.0013156,0.00019081,1.3718,0.71242,0.0000296877,0.0009590319
3503,10.1021/ja400069s,105,6(a),311,Pb0.99Na0.01Se1,Pb0.99Na0.01Se1,835.5,33626,0.0013166,0.00019099,1.3709,0.71318,0.0000297389,0.000960391
3503,10.1021/ja400069s,105,6(a),311,Pb0.99Na0.01Se1,Pb0.99Na0.01Se1,836,33568,0.0013176,0.00019117,1.37,0.71393,0.0000297903,0.0009617518
3503,10.1021/ja400069s,105,6(a),311,Pb0.99Na0.01Se1,Pb0.99Na0.01Se1,836.5,33510,0.0013186,0.00019136,1.3691,0.71469,0.0000298418,0.0009631145
3503,10.1021/ja400069s,105,6(a),311,Pb0.99Na0.01Se1,Pb0.99Na0.01Se1,837,33453,0.0013196,0.00019154,1.3682,0.71545,0.0000298927,0.0009644789
3503,10.1021/ja400069s,105,6(a),311,Pb0.99Na0.01Se1,Pb0.99Na0.01Se1,837.5,33396,0.0013206,0.00019172,1.3673,0.7162,0.0000299437,0.0009658451
3503,10.1021/ja400069s,105,6(a),311,Pb0.99Na0.01Se1,Pb0.99Na0.01Se1,838,33339,0.0013215,0.0001919,1.3664,0.71696,0.0000299949,0.0009671399
3503,10.1021/ja400069s,105,6(a),311,Pb0.99Na0.01Se1,Pb0.99Na0.01Se1,838.5,33282,0.0013225,0.00019209,1.3656,0.71771,0.0000300463,0.0009684388
3503,10.1021/ja400069s,105,6(a),311,Pb0.99Na0.01Se1,Pb0.99Na0.01Se1,839,33226,0.0013235,0.00019227,1.3647,0.71847,0.0000300969,0.0009698102
3503,10.1021/ja400069s,105,6(a),311,Pb0.99Na0.01Se1,Pb0.99Na0.01Se1,839.5,33170,0.0013245,0.00019245,1.3638,0.71922,0.0000301477,0.0009711835
3503,10.1021/ja400069s,105,6(a),311,Pb0.99Na0.01Se1,Pb0.99Na0.01Se1,840,33115,0.0013255,0.00019263,1.3629,0.71998,0.0000301978,0.0009725585
3503,10.1021/ja400069s,105,6(a),311,Pb0.99Na0.01Se1,Pb0.99Na0.01Se1,840.5,33060,0.0013265,0.00019281,1.362,0.72073,0.000030248,0.0009739354
3503,10.1021/ja400069s,105,6(a),311,Pb0.99Na0.01Se1,Pb0.99Na0.01Se1,841,33005,0.0013275,0.00019299,1.3612,0.72149,0.0000302984,0.0009752424
3503,10.1021/ja400069s,105,6(a),311,Pb0.99Na0.01Se1,Pb0.99Na0.01Se1,841.5,32950,0.0013284,0.00019317,1.3603,0.72224,0.000030349,0.0009765493
3503,10.1021/ja400069s,105,6(a),311,Pb0.99Na0.01Se1,Pb0.99Na0.01Se1,842,32896,0.0013294,0.00019336,1.3594,0.723,0.0000303988,0.0009779314
3503,10.1021/ja400069s,105,6(a),311,Pb0.99Na0.01Se1,Pb0.99Na0.01Se1,842.5,32842,0.0013304,0.00019354,1.3586,0.72376,0.0000304488,0.0009792433
3503,10.1021/ja400069s,105,6(a),311,Pb0.99Na0.01Se1,Pb0.99Na0.01Se1,843,32789,0.0013314,0.00019372,1.3577,0.72451,0.000030498,0.000980629
3503,10.1021/ja400069s,105,6(a),311,Pb0.99Na0.01Se1,Pb0.99Na0.01Se1,843.5,32736,0.0013324,0.0001939,1.3569,0.72527,0.0000305474,0.0009819441
3503,10.1021/ja400069s,105,6(a),311,Pb0.99Na0.01Se1,Pb0.99Na0.01Se1,844,32683,0.0013334,0.00019408,1.356,0.72602,0.0000305969,0.0009833333
3503,10.1021/ja400069s,105,6(a),311,Pb0.99Na0.01Se1,Pb0.99Na0.01Se1,844.5,32630,0.0013344,0.00019426,1.3552,0.72678,0.0000306466,0.0009846517
3503,10.1021/ja400069s,105,6(a),311,Pb0.99Na0.01Se1,Pb0.99Na0.01Se1,845,32578,0.0013353,0.00019444,1.3543,0.72753,0.0000306956,0.0009859706
3503,10.1021/ja400069s,105,6(a),311,Pb0.99Na0.01Se1,Pb0.99Na0.01Se1,845.5,32526,0.0013363,0.00019462,1.3535,0.72829,0.0000307446,0.0009872922
3503,10.1021/ja400069s,105,6(a),311,Pb0.99Na0.01Se1,Pb0.99Na0.01Se1,846,32474,0.0013373,0.0001948,1.3526,0.72904,0.0000307939,0.0009886885
3503,10.1021/ja400069s,105,6(a),311,Pb0.99Na0.01Se1,Pb0.99Na0.01Se1,846.5,32423,0.0013383,0.00019498,1.3518,0.7298,0.0000308423,0.0009900133
3503,10.1021/ja400069s,105,6(a),311,Pb0.99Na0.01Se1,Pb0.99Na0.01Se1,847,32372,0.0013393,0.00019516,1.351,0.73055,0.0000308909,0.0009913397
3503,10.1021/ja400069s,105,6(a),311,Pb0.99Na0.01Se1,Pb0.99Na0.01Se1,847.5,32321,0.0013403,0.00019534,1.3501,0.73131,0.0000309396,0.0009927413
3503,10.1021/ja400069s,105,6(a),311,Pb0.99Na0.01Se1,Pb0.99Na0.01Se1,848,32271,0.0013413,0.00019551,1.3493,0.73206,0.0000309876,0.000994071
3503,10.1021/ja400069s,105,6(a),311,Pb0.99Na0.01Se1,Pb0.99Na0.01Se1,848.5,32221,0.0013422,0.00019569,1.3485,0.73282,0.0000310357,0.0009953281
3503,10.1021/ja400069s,105,6(a),311,Pb0.99Na0.01Se1,Pb0.99Na0.01Se1,849,32171,0.0013432,0.00019587,1.3476,0.73358,0.0000310839,0.0009967349
3503,10.1021/ja400069s,105,6(a),311,Pb0.99Na0.01Se1,Pb0.99Na0.01Se1,849.5,32121,0.0013442,0.00019605,1.3468,0.73433,0.0000311323,0.0009980695
3503,10.1021/ja400069s,105,6(a),311,Pb0.99Na0.01Se1,Pb0.99Na0.01Se1,850,32072,0.0013452,0.00019623,1.346,0.73509,0.0000311798,0.0009994056
3503,10.1021/ja400069s,105,6(a),311,Pb0.99Na0.01Se1,Pb0.99Na0.01Se1,850.5,32023,0.0013462,0.00019641,1.3452,0.73584,0.0000312276,0.0010007434
3503,10.1021/ja400069s,105,6(a),311,Pb0.99Na0.01Se1,Pb0.99Na0.01Se1,851,31975,0.0013472,0.00019659,1.3444,0.7366,0.0000312744,0.0010020827
3503,10.1021/ja400069s,105,6(a),311,Pb0.99Na0.01Se1,Pb0.99Na0.01Se1,851.5,31927,0.0013482,0.00019676,1.3436,0.73735,0.0000313215,0.0010034236
3503,10.1021/ja400069s,105,6(a),311,Pb0.99Na0.01Se1,Pb0.99Na0.01Se1,852,31879,0.0013491,0.00019694,1.3428,0.73811,0.0000313686,0.0010046917
3503,10.1021/ja400069s,105,6(a),311,Pb0.99Na0.01Se1,Pb0.99Na0.01Se1,852.5,31831,0.0013501,0.00019712,1.342,0.73886,0.0000314159,0.0010060358
3503,10.1021/ja400069s,105,6(a),311,Pb0.99Na0.01Se1,Pb0.99Na0.01Se1,853,31784,0.0013511,0.0001973,1.3412,0.73962,0.0000314624,0.0010073814
3503,10.1021/ja400069s,105,6(a),311,Pb0.99Na0.01Se1,Pb0.99Na0.01Se1,853.5,31737,0.0013521,0.00019747,1.3404,0.74037,0.000031509,0.0010087287