sid,DOI,figureid,fignum,sampleid,samplename,composition,Temperature,Electrical conductivity,Power factor,Seebeck coefficient,Thermal conductivity,ZT,Electrical resistivity,Figure of merit Z
3503,10.1021/ja400069s,105,6(a),393,Pb0.95Ba0.04Na0.01Se1,Pb0.95Ba0.04Na0.01Se1,622.5,58683,0.0008496,0.00013341,1.3637,0.52406,0.0000170407,0.0006230109
3503,10.1021/ja400069s,105,6(a),393,Pb0.95Ba0.04Na0.01Se1,Pb0.95Ba0.04Na0.01Se1,623,58556,0.00085038,0.00013364,1.3625,0.52499,0.0000170777,0.0006241321
3503,10.1021/ja400069s,105,6(a),393,Pb0.95Ba0.04Na0.01Se1,Pb0.95Ba0.04Na0.01Se1,623.5,58429,0.00085115,0.00013387,1.3613,0.52592,0.0000171148,0.0006252479
3503,10.1021/ja400069s,105,6(a),393,Pb0.95Ba0.04Na0.01Se1,Pb0.95Ba0.04Na0.01Se1,624,58303,0.00085193,0.0001341,1.36,0.52686,0.0000171518,0.0006264191
3503,10.1021/ja400069s,105,6(a),393,Pb0.95Ba0.04Na0.01Se1,Pb0.95Ba0.04Na0.01Se1,624.5,58177,0.00085271,0.00013433,1.3588,0.52779,0.0000171889,0.0006275464
3503,10.1021/ja400069s,105,6(a),393,Pb0.95Ba0.04Na0.01Se1,Pb0.95Ba0.04Na0.01Se1,625,58051,0.00085348,0.00013456,1.3576,0.52873,0.0000172262,0.0006286682
3503,10.1021/ja400069s,105,6(a),393,Pb0.95Ba0.04Na0.01Se1,Pb0.95Ba0.04Na0.01Se1,625.5,57926,0.00085426,0.00013479,1.3564,0.52966,0.0000172634,0.0006297995
3503,10.1021/ja400069s,105,6(a),393,Pb0.95Ba0.04Na0.01Se1,Pb0.95Ba0.04Na0.01Se1,626,57800,0.00085503,0.00013502,1.3552,0.53059,0.000017301,0.0006309253
3503,10.1021/ja400069s,105,6(a),393,Pb0.95Ba0.04Na0.01Se1,Pb0.95Ba0.04Na0.01Se1,626.5,57675,0.00085581,0.00013525,1.354,0.53153,0.0000173385,0.0006320606
3503,10.1021/ja400069s,105,6(a),393,Pb0.95Ba0.04Na0.01Se1,Pb0.95Ba0.04Na0.01Se1,627,57550,0.00085658,0.00013549,1.3528,0.53246,0.0000173762,0.0006331904
3503,10.1021/ja400069s,105,6(a),393,Pb0.95Ba0.04Na0.01Se1,Pb0.95Ba0.04Na0.01Se1,627.5,57425,0.00085736,0.00013572,1.3516,0.5334,0.000017414,0.0006343297
3503,10.1021/ja400069s,105,6(a),393,Pb0.95Ba0.04Na0.01Se1,Pb0.95Ba0.04Na0.01Se1,628,57301,0.00085813,0.00013595,1.3504,0.53433,0.0000174517,0.0006354636
3503,10.1021/ja400069s,105,6(a),393,Pb0.95Ba0.04Na0.01Se1,Pb0.95Ba0.04Na0.01Se1,628.5,57176,0.00085891,0.00013618,1.3492,0.53526,0.0000174899,0.0006366069
3503,10.1021/ja400069s,105,6(a),393,Pb0.95Ba0.04Na0.01Se1,Pb0.95Ba0.04Na0.01Se1,629,57052,0.00085968,0.00013641,1.348,0.5362,0.0000175279,0.0006377448
3503,10.1021/ja400069s,105,6(a),393,Pb0.95Ba0.04Na0.01Se1,Pb0.95Ba0.04Na0.01Se1,629.5,56928,0.00086046,0.00013664,1.3468,0.53713,0.000017566,0.0006388922
3503,10.1021/ja400069s,105,6(a),393,Pb0.95Ba0.04Na0.01Se1,Pb0.95Ba0.04Na0.01Se1,630,56805,0.00086123,0.00013687,1.3456,0.53806,0.0000176041,0.0006400342
3503,10.1021/ja400069s,105,6(a),393,Pb0.95Ba0.04Na0.01Se1,Pb0.95Ba0.04Na0.01Se1,630.5,56681,0.00086201,0.00013711,1.3444,0.539,0.0000176426,0.0006411857
3503,10.1021/ja400069s,105,6(a),393,Pb0.95Ba0.04Na0.01Se1,Pb0.95Ba0.04Na0.01Se1,631,56558,0.00086278,0.00013734,1.3432,0.53993,0.000017681,0.0006423317
3503,10.1021/ja400069s,105,6(a),393,Pb0.95Ba0.04Na0.01Se1,Pb0.95Ba0.04Na0.01Se1,631.5,56435,0.00086356,0.00013757,1.342,0.54087,0.0000177195,0.0006434873
3503,10.1021/ja400069s,105,6(a),393,Pb0.95Ba0.04Na0.01Se1,Pb0.95Ba0.04Na0.01Se1,632,56312,0.00086433,0.0001378,1.3408,0.5418,0.0000177582,0.0006446375
3503,10.1021/ja400069s,105,6(a),393,Pb0.95Ba0.04Na0.01Se1,Pb0.95Ba0.04Na0.01Se1,632.5,56190,0.00086511,0.00013803,1.3396,0.54273,0.0000177968,0.0006457973
3503,10.1021/ja400069s,105,6(a),393,Pb0.95Ba0.04Na0.01Se1,Pb0.95Ba0.04Na0.01Se1,633,56067,0.00086588,0.00013827,1.3384,0.54367,0.0000178358,0.0006469516
3503,10.1021/ja400069s,105,6(a),393,Pb0.95Ba0.04Na0.01Se1,Pb0.95Ba0.04Na0.01Se1,633.5,55945,0.00086666,0.0001385,1.3372,0.5446,0.0000178747,0.0006481155
3503,10.1021/ja400069s,105,6(a),393,Pb0.95Ba0.04Na0.01Se1,Pb0.95Ba0.04Na0.01Se1,634,55823,0.00086743,0.00013873,1.336,0.54554,0.0000179138,0.000649274
3503,10.1021/ja400069s,105,6(a),393,Pb0.95Ba0.04Na0.01Se1,Pb0.95Ba0.04Na0.01Se1,634.5,55701,0.00086821,0.00013896,1.3349,0.54647,0.000017953,0.0006503933
3503,10.1021/ja400069s,105,6(a),393,Pb0.95Ba0.04Na0.01Se1,Pb0.95Ba0.04Na0.01Se1,635,55580,0.00086898,0.0001392,1.3337,0.5474,0.0000179921,0.0006515558
3503,10.1021/ja400069s,105,6(a),393,Pb0.95Ba0.04Na0.01Se1,Pb0.95Ba0.04Na0.01Se1,635.5,55459,0.00086976,0.00013943,1.3325,0.54834,0.0000180313,0.000652728
3503,10.1021/ja400069s,105,6(a),393,Pb0.95Ba0.04Na0.01Se1,Pb0.95Ba0.04Na0.01Se1,636,55337,0.00087054,0.00013966,1.3313,0.54927,0.0000180711,0.0006539022
3503,10.1021/ja400069s,105,6(a),393,Pb0.95Ba0.04Na0.01Se1,Pb0.95Ba0.04Na0.01Se1,636.5,55217,0.00087131,0.0001399,1.3301,0.5502,0.0000181104,0.000655071
3503,10.1021/ja400069s,105,6(a),393,Pb0.95Ba0.04Na0.01Se1,Pb0.95Ba0.04Na0.01Se1,637,55096,0.00087209,0.00014013,1.329,0.55114,0.0000181501,0.0006562002
3503,10.1021/ja400069s,105,6(a),393,Pb0.95Ba0.04Na0.01Se1,Pb0.95Ba0.04Na0.01Se1,637.5,54976,0.00087286,0.00014036,1.3278,0.55207,0.0000181898,0.0006573731
3503,10.1021/ja400069s,105,6(a),393,Pb0.95Ba0.04Na0.01Se1,Pb0.95Ba0.04Na0.01Se1,638,54855,0.00087364,0.0001406,1.3266,0.55301,0.0000182299,0.0006585557
3503,10.1021/ja400069s,105,6(a),393,Pb0.95Ba0.04Na0.01Se1,Pb0.95Ba0.04Na0.01Se1,638.5,54735,0.00087441,0.00014083,1.3254,0.55394,0.0000182698,0.0006597329
3503,10.1021/ja400069s,105,6(a),393,Pb0.95Ba0.04Na0.01Se1,Pb0.95Ba0.04Na0.01Se1,639,54616,0.00087519,0.00014106,1.3243,0.55487,0.0000183097,0.0006608699
3503,10.1021/ja400069s,105,6(a),393,Pb0.95Ba0.04Na0.01Se1,Pb0.95Ba0.04Na0.01Se1,639.5,54496,0.00087596,0.0001413,1.3231,0.55581,0.00001835,0.0006620512
3503,10.1021/ja400069s,105,6(a),393,Pb0.95Ba0.04Na0.01Se1,Pb0.95Ba0.04Na0.01Se1,640,54377,0.00087674,0.00014153,1.3219,0.55674,0.0000183901,0.0006632423
3503,10.1021/ja400069s,105,6(a),393,Pb0.95Ba0.04Na0.01Se1,Pb0.95Ba0.04Na0.01Se1,640.5,54258,0.00087751,0.00014176,1.3208,0.55768,0.0000184305,0.0006643776
3503,10.1021/ja400069s,105,6(a),393,Pb0.95Ba0.04Na0.01Se1,Pb0.95Ba0.04Na0.01Se1,641,54139,0.00087829,0.000142,1.3196,0.55861,0.000018471,0.0006655729
3503,10.1021/ja400069s,105,6(a),393,Pb0.95Ba0.04Na0.01Se1,Pb0.95Ba0.04Na0.01Se1,641.5,54020,0.00087906,0.00014223,1.3184,0.55954,0.0000185117,0.0006667627
3503,10.1021/ja400069s,105,6(a),393,Pb0.95Ba0.04Na0.01Se1,Pb0.95Ba0.04Na0.01Se1,642,53902,0.00087984,0.00014247,1.3173,0.56048,0.0000185522,0.0006679116
3503,10.1021/ja400069s,105,6(a),393,Pb0.95Ba0.04Na0.01Se1,Pb0.95Ba0.04Na0.01Se1,642.5,53783,0.00088061,0.0001427,1.3161,0.56141,0.0000185932,0.0006691057
3503,10.1021/ja400069s,105,6(a),393,Pb0.95Ba0.04Na0.01Se1,Pb0.95Ba0.04Na0.01Se1,643,53665,0.00088139,0.00014293,1.3149,0.56234,0.0000186341,0.0006703095
3503,10.1021/ja400069s,105,6(a),393,Pb0.95Ba0.04Na0.01Se1,Pb0.95Ba0.04Na0.01Se1,643.5,53548,0.00088216,0.00014317,1.3138,0.56328,0.0000186748,0.0006714568
3503,10.1021/ja400069s,105,6(a),393,Pb0.95Ba0.04Na0.01Se1,Pb0.95Ba0.04Na0.01Se1,644,53430,0.00088294,0.0001434,1.3126,0.56421,0.0000187161,0.0006726649
3503,10.1021/ja400069s,105,6(a),393,Pb0.95Ba0.04Na0.01Se1,Pb0.95Ba0.04Na0.01Se1,644.5,53313,0.00088371,0.00014364,1.3115,0.56515,0.0000187572,0.0006738162
3503,10.1021/ja400069s,105,6(a),393,Pb0.95Ba0.04Na0.01Se1,Pb0.95Ba0.04Na0.01Se1,645,53195,0.00088449,0.00014387,1.3103,0.56608,0.0000187988,0.0006750286
3503,10.1021/ja400069s,105,6(a),393,Pb0.95Ba0.04Na0.01Se1,Pb0.95Ba0.04Na0.01Se1,645.5,53078,0.00088526,0.00014411,1.3092,0.56701,0.0000188402,0.0006761839
3503,10.1021/ja400069s,105,6(a),393,Pb0.95Ba0.04Na0.01Se1,Pb0.95Ba0.04Na0.01Se1,646,52962,0.00088604,0.00014434,1.308,0.56795,0.0000188815,0.0006774006
3503,10.1021/ja400069s,105,6(a),393,Pb0.95Ba0.04Na0.01Se1,Pb0.95Ba0.04Na0.01Se1,646.5,52845,0.00088681,0.00014458,1.3069,0.56888,0.0000189233,0.00067856
3503,10.1021/ja400069s,105,6(a),393,Pb0.95Ba0.04Na0.01Se1,Pb0.95Ba0.04Na0.01Se1,647,52729,0.00088759,0.00014481,1.3057,0.56982,0.0000189649,0.000679781
3503,10.1021/ja400069s,105,6(a),393,Pb0.95Ba0.04Na0.01Se1,Pb0.95Ba0.04Na0.01Se1,647.5,52613,0.00088837,0.00014505,1.3046,0.57075,0.0000190067,0.000680952
3503,10.1021/ja400069s,105,6(a),393,Pb0.95Ba0.04Na0.01Se1,Pb0.95Ba0.04Na0.01Se1,648,52497,0.00088914,0.00014528,1.3034,0.57168,0.0000190487,0.0006821697
3503,10.1021/ja400069s,105,6(a),393,Pb0.95Ba0.04Na0.01Se1,Pb0.95Ba0.04Na0.01Se1,648.5,52381,0.00088992,0.00014552,1.3023,0.57262,0.0000190909,0.0006833449
3503,10.1021/ja400069s,105,6(a),393,Pb0.95Ba0.04Na0.01Se1,Pb0.95Ba0.04Na0.01Se1,649,52266,0.00089069,0.00014575,1.3011,0.57355,0.0000191329,0.0006845669
3503,10.1021/ja400069s,105,6(a),393,Pb0.95Ba0.04Na0.01Se1,Pb0.95Ba0.04Na0.01Se1,649.5,52151,0.00089147,0.00014599,1.3,0.57448,0.0000191751,0.0006857462
3503,10.1021/ja400069s,105,6(a),393,Pb0.95Ba0.04Na0.01Se1,Pb0.95Ba0.04Na0.01Se1,650,52036,0.00089224,0.00014622,1.2988,0.57542,0.0000192175,0.0006869726
3503,10.1021/ja400069s,105,6(a),393,Pb0.95Ba0.04Na0.01Se1,Pb0.95Ba0.04Na0.01Se1,650.5,51921,0.00089302,0.00014646,1.2977,0.57635,0.00001926,0.000688156
3503,10.1021/ja400069s,105,6(a),393,Pb0.95Ba0.04Na0.01Se1,Pb0.95Ba0.04Na0.01Se1,651,51807,0.00089379,0.00014669,1.2966,0.57729,0.0000193024,0.0006893336
3503,10.1021/ja400069s,105,6(a),393,Pb0.95Ba0.04Na0.01Se1,Pb0.95Ba0.04Na0.01Se1,651.5,51692,0.00089457,0.00014693,1.2954,0.57822,0.0000193454,0.0006905743
3503,10.1021/ja400069s,105,6(a),393,Pb0.95Ba0.04Na0.01Se1,Pb0.95Ba0.04Na0.01Se1,652,51578,0.00089534,0.00014716,1.2943,0.57915,0.0000193881,0.0006917562
3503,10.1021/ja400069s,105,6(a),393,Pb0.95Ba0.04Na0.01Se1,Pb0.95Ba0.04Na0.01Se1,652.5,51464,0.00089612,0.0001474,1.2932,0.58009,0.0000194311,0.0006929477
3503,10.1021/ja400069s,105,6(a),393,Pb0.95Ba0.04Na0.01Se1,Pb0.95Ba0.04Na0.01Se1,653,51351,0.00089689,0.00014763,1.292,0.58102,0.0000194738,0.0006941873
3503,10.1021/ja400069s,105,6(a),393,Pb0.95Ba0.04Na0.01Se1,Pb0.95Ba0.04Na0.01Se1,653.5,51237,0.00089767,0.00014787,1.2909,0.58196,0.0000195171,0.0006953831
3503,10.1021/ja400069s,105,6(a),393,Pb0.95Ba0.04Na0.01Se1,Pb0.95Ba0.04Na0.01Se1,654,51124,0.00089844,0.00014811,1.2898,0.58289,0.0000195603,0.0006965731
3503,10.1021/ja400069s,105,6(a),393,Pb0.95Ba0.04Na0.01Se1,Pb0.95Ba0.04Na0.01Se1,654.5,51011,0.00089922,0.00014834,1.2886,0.58382,0.0000196036,0.0006978271
3503,10.1021/ja400069s,105,6(a),393,Pb0.95Ba0.04Na0.01Se1,Pb0.95Ba0.04Na0.01Se1,655,50898,0.00089999,0.00014858,1.2875,0.58476,0.0000196471,0.0006990214
3503,10.1021/ja400069s,105,6(a),393,Pb0.95Ba0.04Na0.01Se1,Pb0.95Ba0.04Na0.01Se1,655.5,50785,0.00090077,0.00014881,1.2864,0.58569,0.0000196909,0.0007002254
3503,10.1021/ja400069s,105,6(a),393,Pb0.95Ba0.04Na0.01Se1,Pb0.95Ba0.04Na0.01Se1,656,50673,0.00090154,0.00014905,1.2853,0.58662,0.0000197344,0.0007014238
3503,10.1021/ja400069s,105,6(a),393,Pb0.95Ba0.04Na0.01Se1,Pb0.95Ba0.04Na0.01Se1,656.5,50561,0.00090232,0.00014929,1.2841,0.58756,0.0000197781,0.0007026867
3503,10.1021/ja400069s,105,6(a),393,Pb0.95Ba0.04Na0.01Se1,Pb0.95Ba0.04Na0.01Se1,657,50449,0.00090309,0.00014952,1.283,0.58849,0.000019822,0.0007038893
3503,10.1021/ja400069s,105,6(a),393,Pb0.95Ba0.04Na0.01Se1,Pb0.95Ba0.04Na0.01Se1,657.5,50337,0.00090387,0.00014976,1.2819,0.58943,0.0000198661,0.0007051018
3503,10.1021/ja400069s,105,6(a),393,Pb0.95Ba0.04Na0.01Se1,Pb0.95Ba0.04Na0.01Se1,658,50226,0.00090464,0.00014999,1.2808,0.59036,0.00001991,0.0007063086
3503,10.1021/ja400069s,105,6(a),393,Pb0.95Ba0.04Na0.01Se1,Pb0.95Ba0.04Na0.01Se1,658.5,50114,0.00090542,0.00015023,1.2797,0.59129,0.0000199545,0.0007075252
3503,10.1021/ja400069s,105,6(a),393,Pb0.95Ba0.04Na0.01Se1,Pb0.95Ba0.04Na0.01Se1,659,50003,0.0009062,0.00015047,1.2785,0.59223,0.0000199988,0.0007087994
3503,10.1021/ja400069s,105,6(a),393,Pb0.95Ba0.04Na0.01Se1,Pb0.95Ba0.04Na0.01Se1,659.5,49893,0.00090697,0.0001507,1.2774,0.59316,0.0000200429,0.0007100125
3503,10.1021/ja400069s,105,6(a),393,Pb0.95Ba0.04Na0.01Se1,Pb0.95Ba0.04Na0.01Se1,660,49782,0.00090775,0.00015094,1.2763,0.5941,0.0000200876,0.0007112356
3503,10.1021/ja400069s,105,6(a),393,Pb0.95Ba0.04Na0.01Se1,Pb0.95Ba0.04Na0.01Se1,660.5,49672,0.00090852,0.00015117,1.2752,0.59503,0.0000201321,0.0007124529
3503,10.1021/ja400069s,105,6(a),393,Pb0.95Ba0.04Na0.01Se1,Pb0.95Ba0.04Na0.01Se1,661,49561,0.0009093,0.00015141,1.2741,0.59596,0.0000201772,0.0007136802
3503,10.1021/ja400069s,105,6(a),393,Pb0.95Ba0.04Na0.01Se1,Pb0.95Ba0.04Na0.01Se1,661.5,49451,0.00091007,0.00015165,1.273,0.5969,0.000020222,0.0007149018
3503,10.1021/ja400069s,105,6(a),393,Pb0.95Ba0.04Na0.01Se1,Pb0.95Ba0.04Na0.01Se1,662,49342,0.00091085,0.00015188,1.2719,0.59783,0.0000202667,0.0007161333
3503,10.1021/ja400069s,105,6(a),393,Pb0.95Ba0.04Na0.01Se1,Pb0.95Ba0.04Na0.01Se1,662.5,49232,0.00091162,0.00015212,1.2708,0.59876,0.000020312,0.0007173591
3503,10.1021/ja400069s,105,6(a),393,Pb0.95Ba0.04Na0.01Se1,Pb0.95Ba0.04Na0.01Se1,663,49123,0.0009124,0.00015236,1.2697,0.5997,0.0000203571,0.0007185949
3503,10.1021/ja400069s,105,6(a),393,Pb0.95Ba0.04Na0.01Se1,Pb0.95Ba0.04Na0.01Se1,663.5,49014,0.00091317,0.00015259,1.2686,0.60063,0.0000204023,0.000719825
3503,10.1021/ja400069s,105,6(a),393,Pb0.95Ba0.04Na0.01Se1,Pb0.95Ba0.04Na0.01Se1,664,48905,0.00091395,0.00015283,1.2675,0.60157,0.0000204478,0.0007210651
3503,10.1021/ja400069s,105,6(a),393,Pb0.95Ba0.04Na0.01Se1,Pb0.95Ba0.04Na0.01Se1,664.5,48796,0.00091472,0.00015307,1.2664,0.6025,0.0000204935,0.0007222994
3503,10.1021/ja400069s,105,6(a),393,Pb0.95Ba0.04Na0.01Se1,Pb0.95Ba0.04Na0.01Se1,665,48688,0.0009155,0.0001533,1.2653,0.60343,0.0000205389,0.0007235438
3503,10.1021/ja400069s,105,6(a),393,Pb0.95Ba0.04Na0.01Se1,Pb0.95Ba0.04Na0.01Se1,665.5,48579,0.00091627,0.00015354,1.2642,0.60437,0.000020585,0.0007247825
3503,10.1021/ja400069s,105,6(a),393,Pb0.95Ba0.04Na0.01Se1,Pb0.95Ba0.04Na0.01Se1,666,48471,0.00091705,0.00015378,1.2631,0.6053,0.0000206309,0.0007260312
3503,10.1021/ja400069s,105,6(a),393,Pb0.95Ba0.04Na0.01Se1,Pb0.95Ba0.04Na0.01Se1,666.5,48364,0.00091782,0.00015401,1.262,0.60624,0.0000206765,0.0007272742
3503,10.1021/ja400069s,105,6(a),393,Pb0.95Ba0.04Na0.01Se1,Pb0.95Ba0.04Na0.01Se1,667,48256,0.0009186,0.00015425,1.2609,0.60717,0.0000207228,0.0007285272
3503,10.1021/ja400069s,105,6(a),393,Pb0.95Ba0.04Na0.01Se1,Pb0.95Ba0.04Na0.01Se1,667.5,48149,0.00091937,0.00015448,1.2598,0.6081,0.0000207689,0.0007297746
3503,10.1021/ja400069s,105,6(a),393,Pb0.95Ba0.04Na0.01Se1,Pb0.95Ba0.04Na0.01Se1,668,48042,0.00092015,0.00015472,1.2587,0.60904,0.0000208151,0.000731032
3503,10.1021/ja400069s,105,6(a),393,Pb0.95Ba0.04Na0.01Se1,Pb0.95Ba0.04Na0.01Se1,668.5,47935,0.00092092,0.00015496,1.2576,0.60997,0.0000208616,0.0007322837
3503,10.1021/ja400069s,105,6(a),393,Pb0.95Ba0.04Na0.01Se1,Pb0.95Ba0.04Na0.01Se1,669,47828,0.0009217,0.00015519,1.2565,0.6109,0.0000209083,0.0007335456
3503,10.1021/ja400069s,105,6(a),393,Pb0.95Ba0.04Na0.01Se1,Pb0.95Ba0.04Na0.01Se1,669.5,47721,0.00092247,0.00015543,1.2554,0.61184,0.0000209551,0.0007348017
3503,10.1021/ja400069s,105,6(a),393,Pb0.95Ba0.04Na0.01Se1,Pb0.95Ba0.04Na0.01Se1,670,47615,0.00092325,0.00015567,1.2543,0.61277,0.0000210018,0.0007360679
3503,10.1021/ja400069s,105,6(a),393,Pb0.95Ba0.04Na0.01Se1,Pb0.95Ba0.04Na0.01Se1,670.5,47509,0.00092403,0.0001559,1.2532,0.61371,0.0000210486,0.0007373364
3503,10.1021/ja400069s,105,6(a),393,Pb0.95Ba0.04Na0.01Se1,Pb0.95Ba0.04Na0.01Se1,671,47403,0.0009248,0.00015614,1.2522,0.61464,0.0000210957,0.0007385402
3503,10.1021/ja400069s,105,6(a),393,Pb0.95Ba0.04Na0.01Se1,Pb0.95Ba0.04Na0.01Se1,671.5,47298,0.00092558,0.00015638,1.2511,0.61557,0.0000211425,0.000739813
3503,10.1021/ja400069s,105,6(a),393,Pb0.95Ba0.04Na0.01Se1,Pb0.95Ba0.04Na0.01Se1,672,47192,0.00092635,0.00015661,1.25,0.61651,0.00002119,0.00074108
3503,10.1021/ja400069s,105,6(a),393,Pb0.95Ba0.04Na0.01Se1,Pb0.95Ba0.04Na0.01Se1,672.5,47087,0.00092713,0.00015685,1.2489,0.61744,0.0000212373,0.0007423573
3503,10.1021/ja400069s,105,6(a),393,Pb0.95Ba0.04Na0.01Se1,Pb0.95Ba0.04Na0.01Se1,673,46982,0.0009279,0.00015709,1.2478,0.61838,0.0000212847,0.0007436288
3503,10.1021/ja400069s,105,6(a),393,Pb0.95Ba0.04Na0.01Se1,Pb0.95Ba0.04Na0.01Se1,673.5,46877,0.00092868,0.00015732,1.2467,0.61931,0.0000213324,0.0007449106
3503,10.1021/ja400069s,105,6(a),393,Pb0.95Ba0.04Na0.01Se1,Pb0.95Ba0.04Na0.01Se1,674,46773,0.00092945,0.00015756,1.2457,0.62024,0.0000213799,0.0007461267
3503,10.1021/ja400069s,105,6(a),393,Pb0.95Ba0.04Na0.01Se1,Pb0.95Ba0.04Na0.01Se1,674.5,46668,0.00093023,0.0001578,1.2446,0.62118,0.000021428,0.0007474128
3503,10.1021/ja400069s,105,6(a),393,Pb0.95Ba0.04Na0.01Se1,Pb0.95Ba0.04Na0.01Se1,675,46564,0.000931,0.00015803,1.2435,0.62211,0.0000214758,0.0007486932
3503,10.1021/ja400069s,105,6(a),393,Pb0.95Ba0.04Na0.01Se1,Pb0.95Ba0.04Na0.01Se1,675.5,46460,0.00093178,0.00015827,1.2424,0.62304,0.0000215239,0.0007499839
3503,10.1021/ja400069s,105,6(a),393,Pb0.95Ba0.04Na0.01Se1,Pb0.95Ba0.04Na0.01Se1,676,46357,0.00093255,0.00015851,1.2414,0.62398,0.0000215717,0.0007512083
3503,10.1021/ja400069s,105,6(a),393,Pb0.95Ba0.04Na0.01Se1,Pb0.95Ba0.04Na0.01Se1,676.5,46253,0.00093333,0.00015874,1.2403,0.62491,0.0000216202,0.0007525034
3503,10.1021/ja400069s,105,6(a),393,Pb0.95Ba0.04Na0.01Se1,Pb0.95Ba0.04Na0.01Se1,677,46150,0.0009341,0.00015898,1.2392,0.62585,0.0000216685,0.0007537928
3503,10.1021/ja400069s,105,6(a),393,Pb0.95Ba0.04Na0.01Se1,Pb0.95Ba0.04Na0.01Se1,677.5,46047,0.00093488,0.00015922,1.2382,0.62678,0.0000217169,0.0007550315
3503,10.1021/ja400069s,105,6(a),393,Pb0.95Ba0.04Na0.01Se1,Pb0.95Ba0.04Na0.01Se1,678,45944,0.00093565,0.00015945,1.2371,0.62771,0.0000217656,0.0007563253
3503,10.1021/ja400069s,105,6(a),393,Pb0.95Ba0.04Na0.01Se1,Pb0.95Ba0.04Na0.01Se1,678.5,45842,0.00093643,0.00015969,1.236,0.62865,0.0000218141,0.0007576294
3503,10.1021/ja400069s,105,6(a),393,Pb0.95Ba0.04Na0.01Se1,Pb0.95Ba0.04Na0.01Se1,679,45739,0.0009372,0.00015993,1.235,0.62958,0.0000218632,0.0007588664
3503,10.1021/ja400069s,105,6(a),393,Pb0.95Ba0.04Na0.01Se1,Pb0.95Ba0.04Na0.01Se1,679.5,45637,0.00093798,0.00016016,1.2339,0.63052,0.000021912,0.0007601751
3503,10.1021/ja400069s,105,6(a),393,Pb0.95Ba0.04Na0.01Se1,Pb0.95Ba0.04Na0.01Se1,680,45535,0.00093875,0.0001604,1.2329,0.63145,0.0000219611,0.0007614162
3503,10.1021/ja400069s,105,6(a),393,Pb0.95Ba0.04Na0.01Se1,Pb0.95Ba0.04Na0.01Se1,680.5,45434,0.00093953,0.00016064,1.2318,0.63238,0.0000220099,0.0007627293
3503,10.1021/ja400069s,105,6(a),393,Pb0.95Ba0.04Na0.01Se1,Pb0.95Ba0.04Na0.01Se1,681,45332,0.0009403,0.00016087,1.2307,0.63332,0.0000220595,0.0007640367
3503,10.1021/ja400069s,105,6(a),393,Pb0.95Ba0.04Na0.01Se1,Pb0.95Ba0.04Na0.01Se1,681.5,45231,0.00094108,0.00016111,1.2297,0.63425,0.0000221087,0.0007652923
3503,10.1021/ja400069s,105,6(a),393,Pb0.95Ba0.04Na0.01Se1,Pb0.95Ba0.04Na0.01Se1,682,45130,0.00094186,0.00016134,1.2286,0.63518,0.0000221582,0.0007666124
3503,10.1021/ja400069s,105,6(a),393,Pb0.95Ba0.04Na0.01Se1,Pb0.95Ba0.04Na0.01Se1,682.5,45029,0.00094263,0.00016158,1.2276,0.63612,0.0000222079,0.0007678641
3503,10.1021/ja400069s,105,6(a),393,Pb0.95Ba0.04Na0.01Se1,Pb0.95Ba0.04Na0.01Se1,683,44928,0.00094341,0.00016182,1.2265,0.63705,0.0000222578,0.0007691887
3503,10.1021/ja400069s,105,6(a),393,Pb0.95Ba0.04Na0.01Se1,Pb0.95Ba0.04Na0.01Se1,683.5,44828,0.00094418,0.00016205,1.2255,0.63799,0.0000223075,0.0007704447
3503,10.1021/ja400069s,105,6(a),393,Pb0.95Ba0.04Na0.01Se1,Pb0.95Ba0.04Na0.01Se1,684,44728,0.00094496,0.00016229,1.2244,0.63892,0.0000223574,0.0007717739
3503,10.1021/ja400069s,105,6(a),393,Pb0.95Ba0.04Na0.01Se1,Pb0.95Ba0.04Na0.01Se1,684.5,44628,0.00094573,0.00016253,1.2234,0.63985,0.0000224075,0.0007730342
3503,10.1021/ja400069s,105,6(a),393,Pb0.95Ba0.04Na0.01Se1,Pb0.95Ba0.04Na0.01Se1,685,44528,0.00094651,0.00016276,1.2223,0.64079,0.0000224578,0.000774368
3503,10.1021/ja400069s,105,6(a),393,Pb0.95Ba0.04Na0.01Se1,Pb0.95Ba0.04Na0.01Se1,685.5,44428,0.00094728,0.000163,1.2213,0.64172,0.0000225083,0.0007756325
3503,10.1021/ja400069s,105,6(a),393,Pb0.95Ba0.04Na0.01Se1,Pb0.95Ba0.04Na0.01Se1,686,44329,0.00094806,0.00016323,1.2202,0.64266,0.0000225586,0.000776971
3503,10.1021/ja400069s,105,6(a),393,Pb0.95Ba0.04Na0.01Se1,Pb0.95Ba0.04Na0.01Se1,686.5,44230,0.00094883,0.00016347,1.2192,0.64359,0.0000226091,0.0007782398