sid,DOI,figureid,fignum,sampleid,samplename,composition,Temperature,Electrical conductivity,Power factor,Seebeck coefficient,Thermal conductivity,ZT,Electrical resistivity,Figure of merit Z
3503,10.1021/ja400069s,105,6(a),203,Pb0.96Ba0.03Na0.01Se1,Pb0.96Ba0.03Na0.01Se1,843.5,20838,0.0013471,0.00023853,0.95009,1.051,0.0000479893,0.0014178657
3503,10.1021/ja400069s,105,6(a),203,Pb0.96Ba0.03Na0.01Se1,Pb0.96Ba0.03Na0.01Se1,844,20798,0.001348,0.00023875,0.94952,1.0521,0.0000480815,0.0014196647
3503,10.1021/ja400069s,105,6(a),203,Pb0.96Ba0.03Na0.01Se1,Pb0.96Ba0.03Na0.01Se1,844.5,20759,0.0013488,0.00023896,0.94895,1.0532,0.0000481719,0.0014213605
3503,10.1021/ja400069s,105,6(a),203,Pb0.96Ba0.03Na0.01Se1,Pb0.96Ba0.03Na0.01Se1,845,20719,0.0013497,0.00023918,0.94838,1.0542,0.0000482649,0.0014231637
3503,10.1021/ja400069s,105,6(a),203,Pb0.96Ba0.03Na0.01Se1,Pb0.96Ba0.03Na0.01Se1,845.5,20680,0.0013505,0.00023939,0.94781,1.0553,0.0000483559,0.0014248636
3503,10.1021/ja400069s,105,6(a),203,Pb0.96Ba0.03Na0.01Se1,Pb0.96Ba0.03Na0.01Se1,846,20641,0.0013514,0.00023961,0.94724,1.0564,0.0000484473,0.0014266712
3503,10.1021/ja400069s,105,6(a),203,Pb0.96Ba0.03Na0.01Se1,Pb0.96Ba0.03Na0.01Se1,846.5,20602,0.0013523,0.00023982,0.94667,1.0575,0.000048539,0.0014284809
3503,10.1021/ja400069s,105,6(a),203,Pb0.96Ba0.03Na0.01Se1,Pb0.96Ba0.03Na0.01Se1,847,20563,0.0013531,0.00024004,0.94611,1.0585,0.000048631,0.001430172
3503,10.1021/ja400069s,105,6(a),203,Pb0.96Ba0.03Na0.01Se1,Pb0.96Ba0.03Na0.01Se1,847.5,20525,0.001354,0.00024025,0.94554,1.0596,0.0000487211,0.001431986
3503,10.1021/ja400069s,105,6(a),203,Pb0.96Ba0.03Na0.01Se1,Pb0.96Ba0.03Na0.01Se1,848,20487,0.0013549,0.00024047,0.94498,1.0607,0.0000488114,0.001433787
3503,10.1021/ja400069s,105,6(a),203,Pb0.96Ba0.03Na0.01Se1,Pb0.96Ba0.03Na0.01Se1,848.5,20448,0.0013557,0.00024069,0.94442,1.0618,0.0000489045,0.0014354842
3503,10.1021/ja400069s,105,6(a),203,Pb0.96Ba0.03Na0.01Se1,Pb0.96Ba0.03Na0.01Se1,849,20410,0.0013566,0.0002409,0.94386,1.0628,0.0000489956,0.0014372894
3503,10.1021/ja400069s,105,6(a),203,Pb0.96Ba0.03Na0.01Se1,Pb0.96Ba0.03Na0.01Se1,849.5,20373,0.0013575,0.00024112,0.9433,1.0639,0.0000490846,0.0014390968
3503,10.1021/ja400069s,105,6(a),203,Pb0.96Ba0.03Na0.01Se1,Pb0.96Ba0.03Na0.01Se1,850,20335,0.0013583,0.00024134,0.94274,1.065,0.0000491763,0.0014408002
3503,10.1021/ja400069s,105,6(a),203,Pb0.96Ba0.03Na0.01Se1,Pb0.96Ba0.03Na0.01Se1,850.5,20297,0.0013592,0.00024155,0.94219,1.0661,0.0000492684,0.0014425965
3503,10.1021/ja400069s,105,6(a),203,Pb0.96Ba0.03Na0.01Se1,Pb0.96Ba0.03Na0.01Se1,851,20260,0.00136,0.00024177,0.94163,1.0671,0.0000493583,0.001444304
3503,10.1021/ja400069s,105,6(a),203,Pb0.96Ba0.03Na0.01Se1,Pb0.96Ba0.03Na0.01Se1,851.5,20223,0.0013609,0.00024199,0.94108,1.0682,0.0000494486,0.0014461045
3503,10.1021/ja400069s,105,6(a),203,Pb0.96Ba0.03Na0.01Se1,Pb0.96Ba0.03Na0.01Se1,852,20186,0.0013618,0.00024221,0.94053,1.0693,0.0000495393,0.001447907
3503,10.1021/ja400069s,105,6(a),203,Pb0.96Ba0.03Na0.01Se1,Pb0.96Ba0.03Na0.01Se1,852.5,20149,0.0013626,0.00024243,0.93998,1.0704,0.0000496303,0.0014496053
3503,10.1021/ja400069s,105,6(a),203,Pb0.96Ba0.03Na0.01Se1,Pb0.96Ba0.03Na0.01Se1,853,20112,0.0013635,0.00024265,0.93943,1.0714,0.0000497216,0.001451412
3503,10.1021/ja400069s,105,6(a),203,Pb0.96Ba0.03Na0.01Se1,Pb0.96Ba0.03Na0.01Se1,853.5,20076,0.0013644,0.00024287,0.93888,1.0725,0.0000498107,0.0014532209
3503,10.1021/ja400069s,105,6(a),203,Pb0.96Ba0.03Na0.01Se1,Pb0.96Ba0.03Na0.01Se1,854,20040,0.0013652,0.00024309,0.93834,1.0736,0.0000499002,0.0014549097
3503,10.1021/ja400069s,105,6(a),203,Pb0.96Ba0.03Na0.01Se1,Pb0.96Ba0.03Na0.01Se1,854.5,20004,0.0013661,0.00024331,0.93779,1.0747,0.00004999,0.0014567227
3503,10.1021/ja400069s,105,6(a),203,Pb0.96Ba0.03Na0.01Se1,Pb0.96Ba0.03Na0.01Se1,855,19968,0.0013669,0.00024353,0.93725,1.0758,0.0000500801,0.0014584156
3503,10.1021/ja400069s,105,6(a),203,Pb0.96Ba0.03Na0.01Se1,Pb0.96Ba0.03Na0.01Se1,855.5,19932,0.0013678,0.00024375,0.93671,1.0768,0.0000501706,0.0014602171
3503,10.1021/ja400069s,105,6(a),203,Pb0.96Ba0.03Na0.01Se1,Pb0.96Ba0.03Na0.01Se1,856,19896,0.0013687,0.00024397,0.93617,1.0779,0.0000502614,0.0014620208
3503,10.1021/ja400069s,105,6(a),203,Pb0.96Ba0.03Na0.01Se1,Pb0.96Ba0.03Na0.01Se1,856.5,19861,0.0013695,0.00024419,0.93563,1.079,0.0000503499,0.0014637196
3503,10.1021/ja400069s,105,6(a),203,Pb0.96Ba0.03Na0.01Se1,Pb0.96Ba0.03Na0.01Se1,857,19826,0.0013704,0.00024441,0.93509,1.0801,0.0000504388,0.0014655274
3503,10.1021/ja400069s,105,6(a),203,Pb0.96Ba0.03Na0.01Se1,Pb0.96Ba0.03Na0.01Se1,857.5,19790,0.0013713,0.00024463,0.93455,1.0811,0.0000505306,0.0014673372
3503,10.1021/ja400069s,105,6(a),203,Pb0.96Ba0.03Na0.01Se1,Pb0.96Ba0.03Na0.01Se1,858,19756,0.0013721,0.00024485,0.93402,1.0822,0.0000506175,0.0014690264
3503,10.1021/ja400069s,105,6(a),203,Pb0.96Ba0.03Na0.01Se1,Pb0.96Ba0.03Na0.01Se1,858.5,19721,0.001373,0.00024508,0.93349,1.0833,0.0000507074,0.0014708245
3503,10.1021/ja400069s,105,6(a),203,Pb0.96Ba0.03Na0.01Se1,Pb0.96Ba0.03Na0.01Se1,859,19686,0.0013739,0.0002453,0.93295,1.0844,0.0000507975,0.0014726405
3503,10.1021/ja400069s,105,6(a),203,Pb0.96Ba0.03Na0.01Se1,Pb0.96Ba0.03Na0.01Se1,859.5,19652,0.0013747,0.00024552,0.93242,1.0854,0.0000508854,0.0014743356
3503,10.1021/ja400069s,105,6(a),203,Pb0.96Ba0.03Na0.01Se1,Pb0.96Ba0.03Na0.01Se1,860,19618,0.0013756,0.00024575,0.9319,1.0865,0.0000509736,0.001476124
3503,10.1021/ja400069s,105,6(a),203,Pb0.96Ba0.03Na0.01Se1,Pb0.96Ba0.03Na0.01Se1,860.5,19584,0.0013764,0.00024597,0.93137,1.0876,0.0000510621,0.001477823
3503,10.1021/ja400069s,105,6(a),203,Pb0.96Ba0.03Na0.01Se1,Pb0.96Ba0.03Na0.01Se1,861,19550,0.0013773,0.00024619,0.93084,1.0887,0.0000511509,0.0014796313
3503,10.1021/ja400069s,105,6(a),203,Pb0.96Ba0.03Na0.01Se1,Pb0.96Ba0.03Na0.01Se1,861.5,19516,0.0013782,0.00024642,0.93032,1.0897,0.00005124,0.0014814257
3503,10.1021/ja400069s,105,6(a),203,Pb0.96Ba0.03Na0.01Se1,Pb0.96Ba0.03Na0.01Se1,862,19483,0.001379,0.00024664,0.9298,1.0908,0.0000513268,0.0014831146
3503,10.1021/ja400069s,105,6(a),203,Pb0.96Ba0.03Na0.01Se1,Pb0.96Ba0.03Na0.01Se1,862.5,19449,0.0013799,0.00024687,0.92927,1.0919,0.0000514165,0.001484929
3503,10.1021/ja400069s,105,6(a),203,Pb0.96Ba0.03Na0.01Se1,Pb0.96Ba0.03Na0.01Se1,863,19416,0.0013808,0.00024709,0.92875,1.093,0.0000515039,0.0014867295
3503,10.1021/ja400069s,105,6(a),203,Pb0.96Ba0.03Na0.01Se1,Pb0.96Ba0.03Na0.01Se1,863.5,19383,0.0013816,0.00024732,0.92824,1.094,0.0000515916,0.0014884082
3503,10.1021/ja400069s,105,6(a),203,Pb0.96Ba0.03Na0.01Se1,Pb0.96Ba0.03Na0.01Se1,864,19350,0.0013825,0.00024755,0.92772,1.0951,0.0000516796,0.0014902126
3503,10.1021/ja400069s,105,6(a),203,Pb0.96Ba0.03Na0.01Se1,Pb0.96Ba0.03Na0.01Se1,864.5,19318,0.0013834,0.00024777,0.9272,1.0962,0.0000517652,0.001492019
3503,10.1021/ja400069s,105,6(a),203,Pb0.96Ba0.03Na0.01Se1,Pb0.96Ba0.03Na0.01Se1,865,19285,0.0013842,0.000248,0.92669,1.0973,0.0000518538,0.0014937034
3503,10.1021/ja400069s,105,6(a),203,Pb0.96Ba0.03Na0.01Se1,Pb0.96Ba0.03Na0.01Se1,865.5,19253,0.0013851,0.00024823,0.92618,1.0983,0.00005194,0.0014954976
3503,10.1021/ja400069s,105,6(a),203,Pb0.96Ba0.03Na0.01Se1,Pb0.96Ba0.03Na0.01Se1,866,19221,0.0013859,0.00024845,0.92567,1.0994,0.0000520264,0.0014971858
3503,10.1021/ja400069s,105,6(a),203,Pb0.96Ba0.03Na0.01Se1,Pb0.96Ba0.03Na0.01Se1,866.5,19189,0.0013868,0.00024868,0.92516,1.1005,0.0000521132,0.001498984
3503,10.1021/ja400069s,105,6(a),203,Pb0.96Ba0.03Na0.01Se1,Pb0.96Ba0.03Na0.01Se1,867,19157,0.0013877,0.00024891,0.92465,1.1016,0.0000522002,0.0015007841
3503,10.1021/ja400069s,105,6(a),203,Pb0.96Ba0.03Na0.01Se1,Pb0.96Ba0.03Na0.01Se1,867.5,19126,0.0013885,0.00024914,0.92414,1.1027,0.0000522848,0.001502478
3503,10.1021/ja400069s,105,6(a),203,Pb0.96Ba0.03Na0.01Se1,Pb0.96Ba0.03Na0.01Se1,868,19094,0.0013894,0.00024937,0.92364,1.1037,0.0000523725,0.0015042657
3503,10.1021/ja400069s,105,6(a),203,Pb0.96Ba0.03Na0.01Se1,Pb0.96Ba0.03Na0.01Se1,868.5,19063,0.0013903,0.0002496,0.92313,1.1048,0.0000524576,0.0015060717
3503,10.1021/ja400069s,105,6(a),203,Pb0.96Ba0.03Na0.01Se1,Pb0.96Ba0.03Na0.01Se1,869,19032,0.0013911,0.00024983,0.92263,1.1059,0.0000525431,0.001507755
3503,10.1021/ja400069s,105,6(a),203,Pb0.96Ba0.03Na0.01Se1,Pb0.96Ba0.03Na0.01Se1,869.5,19001,0.001392,0.00025006,0.92213,1.107,0.0000526288,0.0015095485
3503,10.1021/ja400069s,105,6(a),203,Pb0.96Ba0.03Na0.01Se1,Pb0.96Ba0.03Na0.01Se1,870,18971,0.0013928,0.00025029,0.92163,1.108,0.000052712,0.0015112355
3503,10.1021/ja400069s,105,6(a),203,Pb0.96Ba0.03Na0.01Se1,Pb0.96Ba0.03Na0.01Se1,870.5,18940,0.0013937,0.00025052,0.92113,1.1091,0.0000527983,0.0015130329
3503,10.1021/ja400069s,105,6(a),203,Pb0.96Ba0.03Na0.01Se1,Pb0.96Ba0.03Na0.01Se1,871,18910,0.0013946,0.00025076,0.92064,1.1102,0.0000528821,0.0015148158
3503,10.1021/ja400069s,105,6(a),203,Pb0.96Ba0.03Na0.01Se1,Pb0.96Ba0.03Na0.01Se1,871.5,18880,0.0013954,0.00025099,0.92014,1.1113,0.0000529661,0.0015165084
3503,10.1021/ja400069s,105,6(a),203,Pb0.96Ba0.03Na0.01Se1,Pb0.96Ba0.03Na0.01Se1,872,18850,0.0013963,0.00025122,0.91965,1.1123,0.0000530504,0.001518295
3503,10.1021/ja400069s,105,6(a),203,Pb0.96Ba0.03Na0.01Se1,Pb0.96Ba0.03Na0.01Se1,872.5,18820,0.0013972,0.00025145,0.91916,1.1134,0.000053135,0.0015200836
3503,10.1021/ja400069s,105,6(a),203,Pb0.96Ba0.03Na0.01Se1,Pb0.96Ba0.03Na0.01Se1,873,18791,0.001398,0.00025169,0.91867,1.1145,0.000053217,0.0015217652
3503,10.1021/ja400069s,105,6(a),203,Pb0.96Ba0.03Na0.01Se1,Pb0.96Ba0.03Na0.01Se1,873.5,18761,0.0013989,0.00025192,0.91818,1.1156,0.0000533021,0.0015235575
3503,10.1021/ja400069s,105,6(a),203,Pb0.96Ba0.03Na0.01Se1,Pb0.96Ba0.03Na0.01Se1,874,18732,0.0013998,0.00025216,0.9177,1.1166,0.0000533846,0.0015253351
3503,10.1021/ja400069s,105,6(a),203,Pb0.96Ba0.03Na0.01Se1,Pb0.96Ba0.03Na0.01Se1,874.5,18703,0.0014006,0.00025239,0.91721,1.1177,0.0000534674,0.0015270222
3503,10.1021/ja400069s,105,6(a),203,Pb0.96Ba0.03Na0.01Se1,Pb0.96Ba0.03Na0.01Se1,875,18674,0.0014015,0.00025263,0.91673,1.1188,0.0000535504,0.0015288035
3503,10.1021/ja400069s,105,6(a),203,Pb0.96Ba0.03Na0.01Se1,Pb0.96Ba0.03Na0.01Se1,875.5,18645,0.0014023,0.00025286,0.91625,1.1199,0.0000536337,0.0015304775
3503,10.1021/ja400069s,105,6(a),203,Pb0.96Ba0.03Na0.01Se1,Pb0.96Ba0.03Na0.01Se1,876,18617,0.0014032,0.0002531,0.91577,1.1209,0.0000537143,0.0015322625
3503,10.1021/ja400069s,105,6(a),203,Pb0.96Ba0.03Na0.01Se1,Pb0.96Ba0.03Na0.01Se1,876.5,18588,0.0014041,0.00025334,0.91529,1.122,0.0000537981,0.0015340493
3503,10.1021/ja400069s,105,6(a),203,Pb0.96Ba0.03Na0.01Se1,Pb0.96Ba0.03Na0.01Se1,877,18560,0.0014049,0.00025357,0.91481,1.1231,0.0000538793,0.0015357287
3503,10.1021/ja400069s,105,6(a),203,Pb0.96Ba0.03Na0.01Se1,Pb0.96Ba0.03Na0.01Se1,877.5,18532,0.0014058,0.00025381,0.91434,1.1242,0.0000539607,0.0015375025
3503,10.1021/ja400069s,105,6(a),203,Pb0.96Ba0.03Na0.01Se1,Pb0.96Ba0.03Na0.01Se1,878,18505,0.0014067,0.00025405,0.91386,1.1252,0.0000540394,0.0015392949
3503,10.1021/ja400069s,105,6(a),203,Pb0.96Ba0.03Na0.01Se1,Pb0.96Ba0.03Na0.01Se1,878.5,18477,0.0014075,0.00025429,0.91339,1.1263,0.0000541213,0.0015409628
3503,10.1021/ja400069s,105,6(a),203,Pb0.96Ba0.03Na0.01Se1,Pb0.96Ba0.03Na0.01Se1,879,18450,0.0014084,0.00025453,0.91292,1.1274,0.0000542005,0.001542742
3503,10.1021/ja400069s,105,6(a),203,Pb0.96Ba0.03Na0.01Se1,Pb0.96Ba0.03Na0.01Se1,879.5,18422,0.0014092,0.00025477,0.91245,1.1285,0.0000542829,0.0015444134
3503,10.1021/ja400069s,105,6(a),203,Pb0.96Ba0.03Na0.01Se1,Pb0.96Ba0.03Na0.01Se1,880,18395,0.0014101,0.00025501,0.91198,1.1296,0.0000543626,0.0015461962
3503,10.1021/ja400069s,105,6(a),203,Pb0.96Ba0.03Na0.01Se1,Pb0.96Ba0.03Na0.01Se1,880.5,18368,0.001411,0.00025525,0.91152,1.1306,0.0000544425,0.0015479638
3503,10.1021/ja400069s,105,6(a),203,Pb0.96Ba0.03Na0.01Se1,Pb0.96Ba0.03Na0.01Se1,881,18342,0.0014118,0.00025549,0.91105,1.1317,0.0000545197,0.0015496405
3503,10.1021/ja400069s,105,6(a),203,Pb0.96Ba0.03Na0.01Se1,Pb0.96Ba0.03Na0.01Se1,881.5,18315,0.0014127,0.00025573,0.91059,1.1328,0.0000546001,0.0015514117
3503,10.1021/ja400069s,105,6(a),203,Pb0.96Ba0.03Na0.01Se1,Pb0.96Ba0.03Na0.01Se1,882,18289,0.0014136,0.00025597,0.91013,1.1339,0.0000546777,0.0015531847
3503,10.1021/ja400069s,105,6(a),203,Pb0.96Ba0.03Na0.01Se1,Pb0.96Ba0.03Na0.01Se1,882.5,18263,0.0014144,0.00025622,0.90967,1.1349,0.0000547555,0.0015548496
3503,10.1021/ja400069s,105,6(a),203,Pb0.96Ba0.03Na0.01Se1,Pb0.96Ba0.03Na0.01Se1,883,18237,0.0014153,0.00025646,0.90921,1.136,0.0000548336,0.0015566261
3503,10.1021/ja400069s,105,6(a),203,Pb0.96Ba0.03Na0.01Se1,Pb0.96Ba0.03Na0.01Se1,883.5,18211,0.0014162,0.0002567,0.90876,1.1371,0.0000549119,0.0015583873
3503,10.1021/ja400069s,105,6(a),203,Pb0.96Ba0.03Na0.01Se1,Pb0.96Ba0.03Na0.01Se1,884,18185,0.001417,0.00025695,0.9083,1.1382,0.0000549904,0.0015600572
3503,10.1021/ja400069s,105,6(a),203,Pb0.96Ba0.03Na0.01Se1,Pb0.96Ba0.03Na0.01Se1,884.5,18160,0.0014179,0.00025719,0.90785,1.1392,0.0000550661,0.0015618219
3503,10.1021/ja400069s,105,6(a),203,Pb0.96Ba0.03Na0.01Se1,Pb0.96Ba0.03Na0.01Se1,885,18135,0.0014187,0.00025744,0.9074,1.1403,0.000055142,0.0015634781
3503,10.1021/ja400069s,105,6(a),203,Pb0.96Ba0.03Na0.01Se1,Pb0.96Ba0.03Na0.01Se1,885.5,18110,0.0014196,0.00025768,0.90695,1.1414,0.0000552181,0.0015652462
3503,10.1021/ja400069s,105,6(a),203,Pb0.96Ba0.03Na0.01Se1,Pb0.96Ba0.03Na0.01Se1,886,18085,0.0014205,0.00025793,0.90651,1.1425,0.0000552944,0.0015669987
3503,10.1021/ja400069s,105,6(a),203,Pb0.96Ba0.03Na0.01Se1,Pb0.96Ba0.03Na0.01Se1,886.5,18060,0.0014213,0.00025818,0.90606,1.1435,0.000055371,0.0015686599
3503,10.1021/ja400069s,105,6(a),203,Pb0.96Ba0.03Na0.01Se1,Pb0.96Ba0.03Na0.01Se1,887,18036,0.0014222,0.00025842,0.90562,1.1446,0.0000554447,0.0015704158
3503,10.1021/ja400069s,105,6(a),203,Pb0.96Ba0.03Na0.01Se1,Pb0.96Ba0.03Na0.01Se1,887.5,18012,0.0014231,0.00025867,0.90517,1.1457,0.0000555185,0.0015721909
3503,10.1021/ja400069s,105,6(a),203,Pb0.96Ba0.03Na0.01Se1,Pb0.96Ba0.03Na0.01Se1,888,17987,0.0014239,0.00025892,0.90473,1.1468,0.0000555957,0.0015738397
3503,10.1021/ja400069s,105,6(a),203,Pb0.96Ba0.03Na0.01Se1,Pb0.96Ba0.03Na0.01Se1,888.5,17964,0.0014248,0.00025917,0.90429,1.1478,0.0000556669,0.0015756007
3503,10.1021/ja400069s,105,6(a),203,Pb0.96Ba0.03Na0.01Se1,Pb0.96Ba0.03Na0.01Se1,889,17940,0.0014257,0.00025942,0.90386,1.1489,0.0000557414,0.001577346
3503,10.1021/ja400069s,105,6(a),203,Pb0.96Ba0.03Na0.01Se1,Pb0.96Ba0.03Na0.01Se1,889.5,17916,0.0014265,0.00025967,0.90342,1.15,0.000055816,0.0015789998
3503,10.1021/ja400069s,105,6(a),203,Pb0.96Ba0.03Na0.01Se1,Pb0.96Ba0.03Na0.01Se1,890,17893,0.0014274,0.00025992,0.90299,1.1511,0.0000558878,0.0015807484
3503,10.1021/ja400069s,105,6(a),203,Pb0.96Ba0.03Na0.01Se1,Pb0.96Ba0.03Na0.01Se1,890.5,17870,0.0014282,0.00026017,0.90255,1.1521,0.0000559597,0.0015824054
3503,10.1021/ja400069s,105,6(a),203,Pb0.96Ba0.03Na0.01Se1,Pb0.96Ba0.03Na0.01Se1,891,17847,0.0014291,0.00026043,0.90212,1.1532,0.0000560318,0.0015841573
3503,10.1021/ja400069s,105,6(a),203,Pb0.96Ba0.03Na0.01Se1,Pb0.96Ba0.03Na0.01Se1,891.5,17824,0.00143,0.00026068,0.9017,1.1543,0.0000561041,0.0015858933
3503,10.1021/ja400069s,105,6(a),203,Pb0.96Ba0.03Na0.01Se1,Pb0.96Ba0.03Na0.01Se1,892,17801,0.0014308,0.00026093,0.90127,1.1554,0.0000561766,0.0015875376
3503,10.1021/ja400069s,105,6(a),203,Pb0.96Ba0.03Na0.01Se1,Pb0.96Ba0.03Na0.01Se1,892.5,17779,0.0014317,0.00026119,0.90084,1.1565,0.0000562461,0.0015892944
3503,10.1021/ja400069s,105,6(a),203,Pb0.96Ba0.03Na0.01Se1,Pb0.96Ba0.03Na0.01Se1,893,17757,0.0014326,0.00026144,0.90042,1.1575,0.0000563158,0.0015910353
3503,10.1021/ja400069s,105,6(a),203,Pb0.96Ba0.03Na0.01Se1,Pb0.96Ba0.03Na0.01Se1,893.5,17735,0.0014334,0.0002617,0.9,1.1586,0.0000563857,0.0015926667
3503,10.1021/ja400069s,105,6(a),203,Pb0.96Ba0.03Na0.01Se1,Pb0.96Ba0.03Na0.01Se1,894,17713,0.0014343,0.00026195,0.89958,1.1597,0.0000564557,0.0015944107
3503,10.1021/ja400069s,105,6(a),203,Pb0.96Ba0.03Na0.01Se1,Pb0.96Ba0.03Na0.01Se1,894.5,17691,0.0014351,0.00026221,0.89916,1.1608,0.0000565259,0.0015960452
3503,10.1021/ja400069s,105,6(a),203,Pb0.96Ba0.03Na0.01Se1,Pb0.96Ba0.03Na0.01Se1,895,17670,0.001436,0.00026247,0.89874,1.1618,0.0000565931,0.0015977925
3503,10.1021/ja400069s,105,6(a),203,Pb0.96Ba0.03Na0.01Se1,Pb0.96Ba0.03Na0.01Se1,895.5,17648,0.0014369,0.00026273,0.89833,1.1629,0.0000566636,0.0015995236
3503,10.1021/ja400069s,105,6(a),203,Pb0.96Ba0.03Na0.01Se1,Pb0.96Ba0.03Na0.01Se1,896,17627,0.0014377,0.00026298,0.89792,1.164,0.0000567312,0.0016011449
3503,10.1021/ja400069s,105,6(a),203,Pb0.96Ba0.03Na0.01Se1,Pb0.96Ba0.03Na0.01Se1,896.5,17606,0.0014386,0.00026324,0.8975,1.1651,0.0000567988,0.0016028969
3503,10.1021/ja400069s,105,6(a),203,Pb0.96Ba0.03Na0.01Se1,Pb0.96Ba0.03Na0.01Se1,897,17586,0.0014395,0.0002635,0.8971,1.1661,0.0000568634,0.0016046149
3503,10.1021/ja400069s,105,6(a),203,Pb0.96Ba0.03Na0.01Se1,Pb0.96Ba0.03Na0.01Se1,897.5,17565,0.0014403,0.00026376,0.89669,1.1672,0.0000569314,0.0016062407
3503,10.1021/ja400069s,105,6(a),203,Pb0.96Ba0.03Na0.01Se1,Pb0.96Ba0.03Na0.01Se1,898,17545,0.0014412,0.00026402,0.89628,1.1683,0.0000569963,0.0016079796
3503,10.1021/ja400069s,105,6(a),203,Pb0.96Ba0.03Na0.01Se1,Pb0.96Ba0.03Na0.01Se1,898.5,17525,0.0014421,0.00026429,0.89588,1.1694,0.0000570613,0.0016097022
3503,10.1021/ja400069s,105,6(a),203,Pb0.96Ba0.03Na0.01Se1,Pb0.96Ba0.03Na0.01Se1,899,17505,0.0014429,0.00026455,0.89548,1.1704,0.0000571265,0.0016113146
3503,10.1021/ja400069s,105,6(a),203,Pb0.96Ba0.03Na0.01Se1,Pb0.96Ba0.03Na0.01Se1,899.5,17485,0.0014438,0.00026481,0.89508,1.1715,0.0000571919,0.0016130402
3503,10.1021/ja400069s,105,6(a),203,Pb0.96Ba0.03Na0.01Se1,Pb0.96Ba0.03Na0.01Se1,900,17465,0.0014446,0.00026508,0.89468,1.1726,0.0000572574,0.0016146555
3503,10.1021/ja400069s,105,6(a),203,Pb0.96Ba0.03Na0.01Se1,Pb0.96Ba0.03Na0.01Se1,900.5,17446,0.0014455,0.00026534,0.89428,1.1737,0.0000573197,0.0016163841
3503,10.1021/ja400069s,105,6(a),203,Pb0.96Ba0.03Na0.01Se1,Pb0.96Ba0.03Na0.01Se1,901,17427,0.0014464,0.00026561,0.89389,1.1747,0.0000573822,0.0016180962
3503,10.1021/ja400069s,105,6(a),203,Pb0.96Ba0.03Na0.01Se1,Pb0.96Ba0.03Na0.01Se1,901.5,17408,0.0014472,0.00026587,0.89349,1.1758,0.0000574449,0.0016197159
3503,10.1021/ja400069s,105,6(a),203,Pb0.96Ba0.03Na0.01Se1,Pb0.96Ba0.03Na0.01Se1,902,17389,0.0014481,0.00026614,0.8931,1.1769,0.0000575076,0.001621431
3503,10.1021/ja400069s,105,6(a),203,Pb0.96Ba0.03Na0.01Se1,Pb0.96Ba0.03Na0.01Se1,902.5,17370,0.001449,0.00026641,0.89271,1.178,0.0000575705,0.0016231475
3503,10.1021/ja400069s,171,5(a),203,Pb0.96Ba0.03Na0.01Se1,Pb0.96Ba0.03Na0.01Se1,302,170230,,,,,0.0000058744,
3503,10.1021/ja400069s,171,5(a),203,Pb0.96Ba0.03Na0.01Se1,Pb0.96Ba0.03Na0.01Se1,903,17352,0.0014498,,0.89233,1.4671,0.0000576302,0.0016247352
3503,10.1021/ja400069s,171,5(a),203,Pb0.96Ba0.03Na0.01Se1,Pb0.96Ba0.03Na0.01Se1,903.5,17333,,,0.89194,,0.0000576934,
3503,10.1021/ja400069s,171,5(a),203,Pb0.96Ba0.03Na0.01Se1,Pb0.96Ba0.03Na0.01Se1,904,17315,,,,,0.0000577534,
3503,10.1021/ja400069s,105,6(a),393,Pb0.95Ba0.04Na0.01Se1,Pb0.95Ba0.04Na0.01Se1,299.5,,,0.000030841,,,,
3503,10.1021/ja400069s,105,6(a),393,Pb0.95Ba0.04Na0.01Se1,Pb0.95Ba0.04Na0.01Se1,300,,,0.000030967,,,,
3503,10.1021/ja400069s,105,6(a),393,Pb0.95Ba0.04Na0.01Se1,Pb0.95Ba0.04Na0.01Se1,300.5,,,0.000031093,,,,
3503,10.1021/ja400069s,105,6(a),393,Pb0.95Ba0.04Na0.01Se1,Pb0.95Ba0.04Na0.01Se1,301,,,0.000031218,2.6297,,,
3503,10.1021/ja400069s,105,6(a),393,Pb0.95Ba0.04Na0.01Se1,Pb0.95Ba0.04Na0.01Se1,301.5,191750,0.00018837,0.000031343,2.6268,0.021621,0.0000052151,0.0000717108
3503,10.1021/ja400069s,105,6(a),393,Pb0.95Ba0.04Na0.01Se1,Pb0.95Ba0.04Na0.01Se1,302,191430,0.00018956,0.000031468,2.6238,0.021818,0.0000052238,0.0000722464
3503,10.1021/ja400069s,105,6(a),393,Pb0.95Ba0.04Na0.01Se1,Pb0.95Ba0.04Na0.01Se1,302.5,191110,0.00019075,0.000031593,2.6209,0.022016,0.0000052326,0.0000727803
3503,10.1021/ja400069s,105,6(a),393,Pb0.95Ba0.04Na0.01Se1,Pb0.95Ba0.04Na0.01Se1,303,190790,0.00019193,0.000031717,2.6179,0.022214,0.0000052414,0.0000733145
3503,10.1021/ja400069s,105,6(a),393,Pb0.95Ba0.04Na0.01Se1,Pb0.95Ba0.04Na0.01Se1,303.5,190480,0.00035502,0.000031841,2.615,0.041204,0.0000052499,0.0001357629