sid,DOI,figureid,fignum,sampleid,samplename,composition,Temperature,Electrical conductivity,Power factor,Seebeck coefficient,Thermal conductivity,ZT,Electrical resistivity,Figure of merit Z
3503,10.1021/ja400069s,105,6(a),203,Pb0.96Ba0.03Na0.01Se1,Pb0.96Ba0.03Na0.01Se1,779,27361,0.0012357,0.00021199,1.0346,0.9122,0.0000365484,0.0011943746
3503,10.1021/ja400069s,105,6(a),203,Pb0.96Ba0.03Na0.01Se1,Pb0.96Ba0.03Na0.01Se1,779.5,27300,0.0012366,0.0002122,1.0339,0.91328,0.00003663,0.0011960538
3503,10.1021/ja400069s,105,6(a),203,Pb0.96Ba0.03Na0.01Se1,Pb0.96Ba0.03Na0.01Se1,780,27239,0.0012375,0.0002124,1.0331,0.91436,0.0000367121,0.0011978511
3503,10.1021/ja400069s,105,6(a),203,Pb0.96Ba0.03Na0.01Se1,Pb0.96Ba0.03Na0.01Se1,780.5,27179,0.0012383,0.0002126,1.0324,0.91543,0.0000367931,0.0011994382
3503,10.1021/ja400069s,105,6(a),203,Pb0.96Ba0.03Na0.01Se1,Pb0.96Ba0.03Na0.01Se1,781,27118,0.0012392,0.00021281,1.0317,0.91651,0.0000368759,0.0012011244
3503,10.1021/ja400069s,105,6(a),203,Pb0.96Ba0.03Na0.01Se1,Pb0.96Ba0.03Na0.01Se1,781.5,27058,0.00124,0.00021301,1.0309,0.91758,0.0000369576,0.0012028325
3503,10.1021/ja400069s,105,6(a),203,Pb0.96Ba0.03Na0.01Se1,Pb0.96Ba0.03Na0.01Se1,782,26997,0.0012409,0.00021321,1.0302,0.91866,0.0000370412,0.0012045234
3503,10.1021/ja400069s,105,6(a),203,Pb0.96Ba0.03Na0.01Se1,Pb0.96Ba0.03Na0.01Se1,782.5,26937,0.0012418,0.00021342,1.0295,0.91974,0.0000371237,0.0012062166
3503,10.1021/ja400069s,105,6(a),203,Pb0.96Ba0.03Na0.01Se1,Pb0.96Ba0.03Na0.01Se1,783,26877,0.0012426,0.00021362,1.0288,0.92081,0.0000372065,0.0012078149
3503,10.1021/ja400069s,105,6(a),203,Pb0.96Ba0.03Na0.01Se1,Pb0.96Ba0.03Na0.01Se1,783.5,26818,0.0012435,0.00021382,1.0281,0.92189,0.0000372884,0.0012095127
3503,10.1021/ja400069s,105,6(a),203,Pb0.96Ba0.03Na0.01Se1,Pb0.96Ba0.03Na0.01Se1,784,26758,0.0012444,0.00021402,1.0273,0.92296,0.000037372,0.0012113307
3503,10.1021/ja400069s,105,6(a),203,Pb0.96Ba0.03Na0.01Se1,Pb0.96Ba0.03Na0.01Se1,784.5,26699,0.0012452,0.00021423,1.0266,0.92404,0.0000374546,0.0012129359
3503,10.1021/ja400069s,105,6(a),203,Pb0.96Ba0.03Na0.01Se1,Pb0.96Ba0.03Na0.01Se1,785,26639,0.0012461,0.00021443,1.0259,0.92512,0.0000375389,0.0012146408
3503,10.1021/ja400069s,105,6(a),203,Pb0.96Ba0.03Na0.01Se1,Pb0.96Ba0.03Na0.01Se1,785.5,26580,0.001247,0.00021463,1.0252,0.92619,0.0000376223,0.001216348
3503,10.1021/ja400069s,105,6(a),203,Pb0.96Ba0.03Na0.01Se1,Pb0.96Ba0.03Na0.01Se1,786,26521,0.0012478,0.00021484,1.0245,0.92727,0.000037706,0.00121796
3503,10.1021/ja400069s,105,6(a),203,Pb0.96Ba0.03Na0.01Se1,Pb0.96Ba0.03Na0.01Se1,786.5,26463,0.0012487,0.00021504,1.0237,0.92834,0.0000377886,0.001219791
3503,10.1021/ja400069s,105,6(a),203,Pb0.96Ba0.03Na0.01Se1,Pb0.96Ba0.03Na0.01Se1,787,26404,0.0012495,0.00021524,1.023,0.92942,0.000037873,0.0012214076
3503,10.1021/ja400069s,105,6(a),203,Pb0.96Ba0.03Na0.01Se1,Pb0.96Ba0.03Na0.01Se1,787.5,26346,0.0012504,0.00021544,1.0223,0.9305,0.0000379564,0.0012231243
3503,10.1021/ja400069s,105,6(a),203,Pb0.96Ba0.03Na0.01Se1,Pb0.96Ba0.03Na0.01Se1,788,26287,0.0012513,0.00021565,1.0216,0.93157,0.0000380416,0.0012248434
3503,10.1021/ja400069s,105,6(a),203,Pb0.96Ba0.03Na0.01Se1,Pb0.96Ba0.03Na0.01Se1,788.5,26229,0.0012521,0.00021585,1.0209,0.93265,0.0000381257,0.0012264668
3503,10.1021/ja400069s,105,6(a),203,Pb0.96Ba0.03Na0.01Se1,Pb0.96Ba0.03Na0.01Se1,789,26171,0.001253,0.00021605,1.0202,0.93372,0.0000382102,0.0012281906
3503,10.1021/ja400069s,105,6(a),203,Pb0.96Ba0.03Na0.01Se1,Pb0.96Ba0.03Na0.01Se1,789.5,26113,0.0012539,0.00021626,1.0195,0.9348,0.0000382951,0.0012299166
3503,10.1021/ja400069s,105,6(a),203,Pb0.96Ba0.03Na0.01Se1,Pb0.96Ba0.03Na0.01Se1,790,26056,0.0012547,0.00021646,1.0188,0.93588,0.0000383789,0.0012315469
3503,10.1021/ja400069s,105,6(a),203,Pb0.96Ba0.03Na0.01Se1,Pb0.96Ba0.03Na0.01Se1,790.5,25998,0.0012556,0.00021666,1.0181,0.93695,0.0000384645,0.0012332777
3503,10.1021/ja400069s,105,6(a),203,Pb0.96Ba0.03Na0.01Se1,Pb0.96Ba0.03Na0.01Se1,791,25941,0.0012565,0.00021686,1.0174,0.93803,0.000038549,0.0012350108
3503,10.1021/ja400069s,105,6(a),203,Pb0.96Ba0.03Na0.01Se1,Pb0.96Ba0.03Na0.01Se1,791.5,25884,0.0012573,0.00021707,1.0167,0.9391,0.0000386339,0.001236648
3503,10.1021/ja400069s,105,6(a),203,Pb0.96Ba0.03Na0.01Se1,Pb0.96Ba0.03Na0.01Se1,792,25827,0.0012582,0.00021727,1.016,0.94018,0.0000387192,0.0012383858
3503,10.1021/ja400069s,105,6(a),203,Pb0.96Ba0.03Na0.01Se1,Pb0.96Ba0.03Na0.01Se1,792.5,25770,0.001259,0.00021747,1.0153,0.94126,0.0000388048,0.0012400276
3503,10.1021/ja400069s,105,6(a),203,Pb0.96Ba0.03Na0.01Se1,Pb0.96Ba0.03Na0.01Se1,793,25713,0.0012599,0.00021768,1.0146,0.94233,0.0000388908,0.0012417702
3503,10.1021/ja400069s,105,6(a),203,Pb0.96Ba0.03Na0.01Se1,Pb0.96Ba0.03Na0.01Se1,793.5,25657,0.0012608,0.00021788,1.0139,0.94341,0.0000389757,0.0012435151
3503,10.1021/ja400069s,105,6(a),203,Pb0.96Ba0.03Na0.01Se1,Pb0.96Ba0.03Na0.01Se1,794,25600,0.0012616,0.00021808,1.0132,0.94448,0.0000390625,0.0012451638
3503,10.1021/ja400069s,105,6(a),203,Pb0.96Ba0.03Na0.01Se1,Pb0.96Ba0.03Na0.01Se1,794.5,25544,0.0012625,0.00021828,1.0125,0.94556,0.0000391481,0.0012469136
3503,10.1021/ja400069s,105,6(a),203,Pb0.96Ba0.03Na0.01Se1,Pb0.96Ba0.03Na0.01Se1,795,25488,0.0012634,0.00021849,1.0118,0.94664,0.0000392341,0.0012486657
3503,10.1021/ja400069s,105,6(a),203,Pb0.96Ba0.03Na0.01Se1,Pb0.96Ba0.03Na0.01Se1,795.5,25432,0.0012642,0.00021869,1.0111,0.94771,0.0000393205,0.0012503214
3503,10.1021/ja400069s,105,6(a),203,Pb0.96Ba0.03Na0.01Se1,Pb0.96Ba0.03Na0.01Se1,796,25377,0.0012651,0.00021889,1.0104,0.94879,0.0000394058,0.0012520784
3503,10.1021/ja400069s,105,6(a),203,Pb0.96Ba0.03Na0.01Se1,Pb0.96Ba0.03Na0.01Se1,796.5,25321,0.0012659,0.0002191,1.0097,0.94986,0.0000394929,0.0012537387
3503,10.1021/ja400069s,105,6(a),203,Pb0.96Ba0.03Na0.01Se1,Pb0.96Ba0.03Na0.01Se1,797,25266,0.0012668,0.0002193,1.009,0.95094,0.0000395789,0.0012555005
3503,10.1021/ja400069s,105,6(a),203,Pb0.96Ba0.03Na0.01Se1,Pb0.96Ba0.03Na0.01Se1,797.5,25211,0.0012677,0.0002195,1.0083,0.95202,0.0000396652,0.0012572647
3503,10.1021/ja400069s,105,6(a),203,Pb0.96Ba0.03Na0.01Se1,Pb0.96Ba0.03Na0.01Se1,798,25156,0.0012685,0.00021971,1.0076,0.95309,0.0000397519,0.0012589321
3503,10.1021/ja400069s,105,6(a),203,Pb0.96Ba0.03Na0.01Se1,Pb0.96Ba0.03Na0.01Se1,798.5,25101,0.0012694,0.00021991,1.0069,0.95417,0.0000398391,0.0012607012
3503,10.1021/ja400069s,105,6(a),203,Pb0.96Ba0.03Na0.01Se1,Pb0.96Ba0.03Na0.01Se1,799,25046,0.0012703,0.00022011,1.0063,0.95524,0.0000399265,0.0012623472
3503,10.1021/ja400069s,105,6(a),203,Pb0.96Ba0.03Na0.01Se1,Pb0.96Ba0.03Na0.01Se1,799.5,24991,0.0012711,0.00022031,1.0056,0.95632,0.0000400144,0.0012640215
3503,10.1021/ja400069s,105,6(a),203,Pb0.96Ba0.03Na0.01Se1,Pb0.96Ba0.03Na0.01Se1,800,24937,0.001272,0.00022052,1.0049,0.9574,0.0000401011,0.0012657976
3503,10.1021/ja400069s,105,6(a),203,Pb0.96Ba0.03Na0.01Se1,Pb0.96Ba0.03Na0.01Se1,800.5,24883,0.0012729,0.00022072,1.0042,0.95847,0.0000401881,0.0012675762
3503,10.1021/ja400069s,105,6(a),203,Pb0.96Ba0.03Na0.01Se1,Pb0.96Ba0.03Na0.01Se1,801,24829,0.0012737,0.00022092,1.0035,0.95955,0.0000402755,0.0012692576
3503,10.1021/ja400069s,105,6(a),203,Pb0.96Ba0.03Na0.01Se1,Pb0.96Ba0.03Na0.01Se1,801.5,24775,0.0012746,0.00022113,1.0028,0.96062,0.0000403633,0.0012710411
3503,10.1021/ja400069s,105,6(a),203,Pb0.96Ba0.03Na0.01Se1,Pb0.96Ba0.03Na0.01Se1,802,24721,0.0012754,0.00022133,1.0022,0.9617,0.0000404514,0.0012726003
3503,10.1021/ja400069s,105,6(a),203,Pb0.96Ba0.03Na0.01Se1,Pb0.96Ba0.03Na0.01Se1,802.5,24668,0.0012763,0.00022153,1.0015,0.96278,0.0000405383,0.0012743884
3503,10.1021/ja400069s,105,6(a),203,Pb0.96Ba0.03Na0.01Se1,Pb0.96Ba0.03Na0.01Se1,803,24614,0.0012772,0.00022174,1.0008,0.96385,0.0000406273,0.0012761791
3503,10.1021/ja400069s,105,6(a),203,Pb0.96Ba0.03Na0.01Se1,Pb0.96Ba0.03Na0.01Se1,803.5,24561,0.001278,0.00022194,1.0001,0.96493,0.000040715,0.0012778722
3503,10.1021/ja400069s,105,6(a),203,Pb0.96Ba0.03Na0.01Se1,Pb0.96Ba0.03Na0.01Se1,804,24508,0.0012789,0.00022214,0.99947,0.966,0.000040803,0.0012795782
3503,10.1021/ja400069s,105,6(a),203,Pb0.96Ba0.03Na0.01Se1,Pb0.96Ba0.03Na0.01Se1,804.5,24455,0.0012798,0.00022235,0.99879,0.96708,0.0000408914,0.0012813504
3503,10.1021/ja400069s,105,6(a),203,Pb0.96Ba0.03Na0.01Se1,Pb0.96Ba0.03Na0.01Se1,805,24402,0.0012806,0.00022255,0.99812,0.96816,0.0000409802,0.0012830121
3503,10.1021/ja400069s,105,6(a),203,Pb0.96Ba0.03Na0.01Se1,Pb0.96Ba0.03Na0.01Se1,805.5,24350,0.0012815,0.00022275,0.99745,0.96923,0.0000410678,0.0012847762
3503,10.1021/ja400069s,105,6(a),203,Pb0.96Ba0.03Na0.01Se1,Pb0.96Ba0.03Na0.01Se1,806,24297,0.0012823,0.00022296,0.99678,0.97031,0.0000411573,0.0012864423
3503,10.1021/ja400069s,105,6(a),203,Pb0.96Ba0.03Na0.01Se1,Pb0.96Ba0.03Na0.01Se1,806.5,24245,0.0012832,0.00022316,0.99611,0.97138,0.0000412456,0.0012882111
3503,10.1021/ja400069s,105,6(a),203,Pb0.96Ba0.03Na0.01Se1,Pb0.96Ba0.03Na0.01Se1,807,24193,0.0012841,0.00022337,0.99545,0.97246,0.0000413343,0.0012899694
3503,10.1021/ja400069s,105,6(a),203,Pb0.96Ba0.03Na0.01Se1,Pb0.96Ba0.03Na0.01Se1,807.5,24141,0.0012849,0.00022357,0.99478,0.97354,0.0000414233,0.0012916424
3503,10.1021/ja400069s,105,6(a),203,Pb0.96Ba0.03Na0.01Se1,Pb0.96Ba0.03Na0.01Se1,808,24089,0.0012858,0.00022377,0.99412,0.97461,0.0000415127,0.0012934052
3503,10.1021/ja400069s,105,6(a),203,Pb0.96Ba0.03Na0.01Se1,Pb0.96Ba0.03Na0.01Se1,808.5,24038,0.0012867,0.00022398,0.99345,0.97569,0.0000416008,0.0012951835
3503,10.1021/ja400069s,105,6(a),203,Pb0.96Ba0.03Na0.01Se1,Pb0.96Ba0.03Na0.01Se1,809,23986,0.0012875,0.00022418,0.99279,0.97676,0.000041691,0.0012968503
3503,10.1021/ja400069s,105,6(a),203,Pb0.96Ba0.03Na0.01Se1,Pb0.96Ba0.03Na0.01Se1,809.5,23935,0.0012884,0.00022438,0.99213,0.97784,0.0000417798,0.0012986201
3503,10.1021/ja400069s,105,6(a),203,Pb0.96Ba0.03Na0.01Se1,Pb0.96Ba0.03Na0.01Se1,810,23884,0.0012893,0.00022459,0.99147,0.97891,0.000041869,0.0013003923
3503,10.1021/ja400069s,105,6(a),203,Pb0.96Ba0.03Na0.01Se1,Pb0.96Ba0.03Na0.01Se1,810.5,23833,0.0012901,0.00022479,0.99081,0.97999,0.0000419586,0.001302066
3503,10.1021/ja400069s,105,6(a),203,Pb0.96Ba0.03Na0.01Se1,Pb0.96Ba0.03Na0.01Se1,811,23782,0.001291,0.000225,0.99015,0.98107,0.0000420486,0.0013038429
3503,10.1021/ja400069s,105,6(a),203,Pb0.96Ba0.03Na0.01Se1,Pb0.96Ba0.03Na0.01Se1,811.5,23731,0.0012918,0.0002252,0.9895,0.98214,0.000042139,0.0013055078
3503,10.1021/ja400069s,105,6(a),203,Pb0.96Ba0.03Na0.01Se1,Pb0.96Ba0.03Na0.01Se1,812,23681,0.0012927,0.00022541,0.98884,0.98322,0.0000422279,0.0013072893
3503,10.1021/ja400069s,105,6(a),203,Pb0.96Ba0.03Na0.01Se1,Pb0.96Ba0.03Na0.01Se1,812.5,23631,0.0012936,0.00022561,0.98819,0.98429,0.0000423173,0.00130906
3503,10.1021/ja400069s,105,6(a),203,Pb0.96Ba0.03Na0.01Se1,Pb0.96Ba0.03Na0.01Se1,813,23581,0.0012944,0.00022581,0.98754,0.98537,0.000042407,0.0013107317
3503,10.1021/ja400069s,105,6(a),203,Pb0.96Ba0.03Na0.01Se1,Pb0.96Ba0.03Na0.01Se1,813.5,23531,0.0012953,0.00022602,0.98689,0.98645,0.0000424971,0.001312507
3503,10.1021/ja400069s,105,6(a),203,Pb0.96Ba0.03Na0.01Se1,Pb0.96Ba0.03Na0.01Se1,814,23481,0.0012962,0.00022622,0.98624,0.98752,0.0000425876,0.0013142846
3503,10.1021/ja400069s,105,6(a),203,Pb0.96Ba0.03Na0.01Se1,Pb0.96Ba0.03Na0.01Se1,814.5,23431,0.001297,0.00022643,0.98559,0.9886,0.0000426785,0.001315963
3503,10.1021/ja400069s,105,6(a),203,Pb0.96Ba0.03Na0.01Se1,Pb0.96Ba0.03Na0.01Se1,815,23382,0.0012979,0.00022663,0.98494,0.98967,0.0000427679,0.0013177452
3503,10.1021/ja400069s,105,6(a),203,Pb0.96Ba0.03Na0.01Se1,Pb0.96Ba0.03Na0.01Se1,815.5,23332,0.0012988,0.00022684,0.98429,0.99075,0.0000428596,0.0013195298
3503,10.1021/ja400069s,105,6(a),203,Pb0.96Ba0.03Na0.01Se1,Pb0.96Ba0.03Na0.01Se1,816,23283,0.0012996,0.00022704,0.98365,0.99183,0.0000429498,0.0013212016
3503,10.1021/ja400069s,105,6(a),203,Pb0.96Ba0.03Na0.01Se1,Pb0.96Ba0.03Na0.01Se1,816.5,23234,0.0013005,0.00022725,0.983,0.9929,0.0000430404,0.0013229908
3503,10.1021/ja400069s,105,6(a),203,Pb0.96Ba0.03Na0.01Se1,Pb0.96Ba0.03Na0.01Se1,817,23186,0.0013013,0.00022745,0.98236,0.99398,0.0000431295,0.0013246671
3503,10.1021/ja400069s,105,6(a),203,Pb0.96Ba0.03Na0.01Se1,Pb0.96Ba0.03Na0.01Se1,817.5,23137,0.0013022,0.00022766,0.98172,0.99505,0.0000432208,0.0013264475
3503,10.1021/ja400069s,105,6(a),203,Pb0.96Ba0.03Na0.01Se1,Pb0.96Ba0.03Na0.01Se1,818,23088,0.0013031,0.00022786,0.98108,0.99613,0.0000433125,0.0013282301
3503,10.1021/ja400069s,105,6(a),203,Pb0.96Ba0.03Na0.01Se1,Pb0.96Ba0.03Na0.01Se1,818.5,23040,0.0013039,0.00022807,0.98044,0.99721,0.0000434028,0.0013299131
3503,10.1021/ja400069s,105,6(a),203,Pb0.96Ba0.03Na0.01Se1,Pb0.96Ba0.03Na0.01Se1,819,22992,0.0013048,0.00022828,0.9798,0.99828,0.0000434934,0.0013317003
3503,10.1021/ja400069s,105,6(a),203,Pb0.96Ba0.03Na0.01Se1,Pb0.96Ba0.03Na0.01Se1,819.5,22944,0.0013057,0.00022848,0.97916,0.99936,0.0000435844,0.0013334899
3503,10.1021/ja400069s,105,6(a),203,Pb0.96Ba0.03Na0.01Se1,Pb0.96Ba0.03Na0.01Se1,820,22896,0.0013065,0.00022869,0.97853,1.0004,0.0000436758,0.001335166
3503,10.1021/ja400069s,105,6(a),203,Pb0.96Ba0.03Na0.01Se1,Pb0.96Ba0.03Na0.01Se1,820.5,22849,0.0013074,0.00022889,0.97789,1.0015,0.0000437656,0.0013369602
3503,10.1021/ja400069s,105,6(a),203,Pb0.96Ba0.03Na0.01Se1,Pb0.96Ba0.03Na0.01Se1,821,22801,0.0013082,0.0002291,0.97726,1.0026,0.0000438577,0.0013386407
3503,10.1021/ja400069s,105,6(a),203,Pb0.96Ba0.03Na0.01Se1,Pb0.96Ba0.03Na0.01Se1,821.5,22754,0.0013091,0.00022931,0.97663,1.0037,0.0000439483,0.0013404257
3503,10.1021/ja400069s,105,6(a),203,Pb0.96Ba0.03Na0.01Se1,Pb0.96Ba0.03Na0.01Se1,822,22707,0.00131,0.00022951,0.976,1.0047,0.0000440393,0.0013422131
3503,10.1021/ja400069s,105,6(a),203,Pb0.96Ba0.03Na0.01Se1,Pb0.96Ba0.03Na0.01Se1,822.5,22660,0.0013108,0.00022972,0.97537,1.0058,0.0000441306,0.0013439003
3503,10.1021/ja400069s,105,6(a),203,Pb0.96Ba0.03Na0.01Se1,Pb0.96Ba0.03Na0.01Se1,823,22613,0.0013117,0.00022993,0.97474,1.0069,0.0000442223,0.0013456922
3503,10.1021/ja400069s,105,6(a),203,Pb0.96Ba0.03Na0.01Se1,Pb0.96Ba0.03Na0.01Se1,823.5,22566,0.0013126,0.00023013,0.97412,1.008,0.0000443145,0.0013474726
3503,10.1021/ja400069s,105,6(a),203,Pb0.96Ba0.03Na0.01Se1,Pb0.96Ba0.03Na0.01Se1,824,22520,0.0013134,0.00023034,0.97349,1.009,0.000044405,0.0013491664
3503,10.1021/ja400069s,105,6(a),203,Pb0.96Ba0.03Na0.01Se1,Pb0.96Ba0.03Na0.01Se1,824.5,22473,0.0013143,0.00023055,0.97287,1.0101,0.0000444978,0.0013509513
3503,10.1021/ja400069s,105,6(a),203,Pb0.96Ba0.03Na0.01Se1,Pb0.96Ba0.03Na0.01Se1,825,22427,0.0013152,0.00023075,0.97224,1.0112,0.0000445891,0.0013527524
3503,10.1021/ja400069s,105,6(a),203,Pb0.96Ba0.03Na0.01Se1,Pb0.96Ba0.03Na0.01Se1,825.5,22381,0.001316,0.00023096,0.97162,1.0123,0.0000446808,0.001354439
3503,10.1021/ja400069s,105,6(a),203,Pb0.96Ba0.03Na0.01Se1,Pb0.96Ba0.03Na0.01Se1,826,22335,0.0013169,0.00023117,0.971,1.0133,0.0000447728,0.0013562307
3503,10.1021/ja400069s,105,6(a),203,Pb0.96Ba0.03Na0.01Se1,Pb0.96Ba0.03Na0.01Se1,826.5,22290,0.0013177,0.00023138,0.97038,1.0144,0.0000448632,0.0013579216
3503,10.1021/ja400069s,105,6(a),203,Pb0.96Ba0.03Na0.01Se1,Pb0.96Ba0.03Na0.01Se1,827,22244,0.0013186,0.00023158,0.96976,1.0155,0.0000449559,0.0013597179
3503,10.1021/ja400069s,105,6(a),203,Pb0.96Ba0.03Na0.01Se1,Pb0.96Ba0.03Na0.01Se1,827.5,22199,0.0013195,0.00023179,0.96915,1.0166,0.0000450471,0.0013615023
3503,10.1021/ja400069s,105,6(a),203,Pb0.96Ba0.03Na0.01Se1,Pb0.96Ba0.03Na0.01Se1,828,22154,0.0013203,0.000232,0.96853,1.0177,0.0000451386,0.0013631999
3503,10.1021/ja400069s,105,6(a),203,Pb0.96Ba0.03Na0.01Se1,Pb0.96Ba0.03Na0.01Se1,828.5,22109,0.0013212,0.00023221,0.96792,1.0187,0.0000452304,0.0013649888
3503,10.1021/ja400069s,105,6(a),203,Pb0.96Ba0.03Na0.01Se1,Pb0.96Ba0.03Na0.01Se1,829,22064,0.0013221,0.00023241,0.9673,1.0198,0.0000453227,0.0013667942
3503,10.1021/ja400069s,105,6(a),203,Pb0.96Ba0.03Na0.01Se1,Pb0.96Ba0.03Na0.01Se1,829.5,22020,0.0013229,0.00023262,0.96669,1.0209,0.0000454133,0.0013684842
3503,10.1021/ja400069s,105,6(a),203,Pb0.96Ba0.03Na0.01Se1,Pb0.96Ba0.03Na0.01Se1,830,21975,0.0013238,0.00023283,0.96608,1.022,0.0000455063,0.0013702799
3503,10.1021/ja400069s,105,6(a),203,Pb0.96Ba0.03Na0.01Se1,Pb0.96Ba0.03Na0.01Se1,830.5,21931,0.0013246,0.00023304,0.96547,1.023,0.0000455976,0.0013719743
3503,10.1021/ja400069s,105,6(a),203,Pb0.96Ba0.03Na0.01Se1,Pb0.96Ba0.03Na0.01Se1,831,21887,0.0013255,0.00023325,0.96487,1.0241,0.0000456892,0.0013737602
3503,10.1021/ja400069s,105,6(a),203,Pb0.96Ba0.03Na0.01Se1,Pb0.96Ba0.03Na0.01Se1,831.5,21843,0.0013264,0.00023346,0.96426,1.0252,0.0000457813,0.0013755626
3503,10.1021/ja400069s,105,6(a),203,Pb0.96Ba0.03Na0.01Se1,Pb0.96Ba0.03Na0.01Se1,832,21799,0.0013272,0.00023367,0.96365,1.0263,0.0000458737,0.0013772635
3503,10.1021/ja400069s,105,6(a),203,Pb0.96Ba0.03Na0.01Se1,Pb0.96Ba0.03Na0.01Se1,832.5,21755,0.0013281,0.00023388,0.96305,1.0273,0.0000459664,0.0013790561
3503,10.1021/ja400069s,105,6(a),203,Pb0.96Ba0.03Na0.01Se1,Pb0.96Ba0.03Na0.01Se1,833,21712,0.001329,0.00023409,0.96245,1.0284,0.0000460575,0.001380851
3503,10.1021/ja400069s,105,6(a),203,Pb0.96Ba0.03Na0.01Se1,Pb0.96Ba0.03Na0.01Se1,833.5,21668,0.0013298,0.0002343,0.96185,1.0295,0.000046151,0.0013825441
3503,10.1021/ja400069s,105,6(a),203,Pb0.96Ba0.03Na0.01Se1,Pb0.96Ba0.03Na0.01Se1,834,21625,0.0013307,0.00023451,0.96125,1.0306,0.0000462428,0.0013843433
3503,10.1021/ja400069s,105,6(a),203,Pb0.96Ba0.03Na0.01Se1,Pb0.96Ba0.03Na0.01Se1,834.5,21582,0.0013316,0.00023472,0.96065,1.0316,0.0000463349,0.0013861448
3503,10.1021/ja400069s,105,6(a),203,Pb0.96Ba0.03Na0.01Se1,Pb0.96Ba0.03Na0.01Se1,835,21540,0.0013324,0.00023493,0.96005,1.0327,0.0000464253,0.0013878444
3503,10.1021/ja400069s,105,6(a),203,Pb0.96Ba0.03Na0.01Se1,Pb0.96Ba0.03Na0.01Se1,835.5,21497,0.0013333,0.00023514,0.95945,1.0338,0.0000465181,0.0013896503
3503,10.1021/ja400069s,105,6(a),203,Pb0.96Ba0.03Na0.01Se1,Pb0.96Ba0.03Na0.01Se1,836,21454,0.0013341,0.00023535,0.95886,1.0349,0.0000466114,0.0013913397
3503,10.1021/ja400069s,105,6(a),203,Pb0.96Ba0.03Na0.01Se1,Pb0.96Ba0.03Na0.01Se1,836.5,21412,0.001335,0.00023556,0.95826,1.0359,0.0000467028,0.0013931501
3503,10.1021/ja400069s,105,6(a),203,Pb0.96Ba0.03Na0.01Se1,Pb0.96Ba0.03Na0.01Se1,837,21370,0.0013359,0.00023577,0.95767,1.037,0.0000467946,0.0013949482
3503,10.1021/ja400069s,105,6(a),203,Pb0.96Ba0.03Na0.01Se1,Pb0.96Ba0.03Na0.01Se1,837.5,21328,0.0013367,0.00023598,0.95708,1.0381,0.0000468867,0.001396644
3503,10.1021/ja400069s,105,6(a),203,Pb0.96Ba0.03Na0.01Se1,Pb0.96Ba0.03Na0.01Se1,838,21286,0.0013376,0.00023619,0.95649,1.0392,0.0000469792,0.0013984464
3503,10.1021/ja400069s,105,6(a),203,Pb0.96Ba0.03Na0.01Se1,Pb0.96Ba0.03Na0.01Se1,838.5,21245,0.0013385,0.0002364,0.9559,1.0402,0.0000470699,0.0014002511
3503,10.1021/ja400069s,105,6(a),203,Pb0.96Ba0.03Na0.01Se1,Pb0.96Ba0.03Na0.01Se1,839,21203,0.0013393,0.00023662,0.95532,1.0413,0.0000471631,0.0014019386
3503,10.1021/ja400069s,105,6(a),203,Pb0.96Ba0.03Na0.01Se1,Pb0.96Ba0.03Na0.01Se1,839.5,21162,0.0013402,0.00023683,0.95473,1.0424,0.0000472545,0.0014037477
3503,10.1021/ja400069s,105,6(a),203,Pb0.96Ba0.03Na0.01Se1,Pb0.96Ba0.03Na0.01Se1,840,21121,0.0013411,0.00023704,0.95415,1.0435,0.0000473462,0.0014055442
3503,10.1021/ja400069s,105,6(a),203,Pb0.96Ba0.03Na0.01Se1,Pb0.96Ba0.03Na0.01Se1,840.5,21080,0.0013419,0.00023725,0.95356,1.0446,0.0000474383,0.0014072528
3503,10.1021/ja400069s,105,6(a),203,Pb0.96Ba0.03Na0.01Se1,Pb0.96Ba0.03Na0.01Se1,841,21039,0.0013428,0.00023747,0.95298,1.0456,0.0000475308,0.0014090537
3503,10.1021/ja400069s,105,6(a),203,Pb0.96Ba0.03Na0.01Se1,Pb0.96Ba0.03Na0.01Se1,841.5,20999,0.0013436,0.00023768,0.9524,1.0467,0.0000476213,0.0014107518
3503,10.1021/ja400069s,105,6(a),203,Pb0.96Ba0.03Na0.01Se1,Pb0.96Ba0.03Na0.01Se1,842,20958,0.0013445,0.00023789,0.95182,1.0478,0.0000477145,0.001412557
3503,10.1021/ja400069s,105,6(a),203,Pb0.96Ba0.03Na0.01Se1,Pb0.96Ba0.03Na0.01Se1,842.5,20918,0.0013454,0.00023811,0.95124,1.0489,0.0000478057,0.0014143644
3503,10.1021/ja400069s,105,6(a),203,Pb0.96Ba0.03Na0.01Se1,Pb0.96Ba0.03Na0.01Se1,843,20878,0.0013462,0.00023832,0.95067,1.0499,0.0000478973,0.0014160539