sid,DOI,figureid,fignum,sampleid,samplename,composition,Temperature,Electrical conductivity,Power factor,Seebeck coefficient,Thermal conductivity,ZT,Electrical resistivity,Figure of merit Z
3503,10.1021/ja400069s,105,6(a),179,Pb0.95Sr0.04Na0.01Se1,Pb0.95Sr0.04Na0.01Se1,396,170350,0.00051182,0.000054852,2.4045,0.018384,0.0000058703,0.0002128592
3503,10.1021/ja400069s,105,6(a),179,Pb0.95Sr0.04Na0.01Se1,Pb0.95Sr0.04Na0.01Se1,396.5,170010,0.0005125,0.000054958,2.4018,0.019405,0.000005882,0.0002133816
3503,10.1021/ja400069s,105,6(a),179,Pb0.95Sr0.04Na0.01Se1,Pb0.95Sr0.04Na0.01Se1,397,169670,0.00051318,0.000055063,2.3991,0.020426,0.0000058938,0.0002139052
3503,10.1021/ja400069s,105,6(a),179,Pb0.95Sr0.04Na0.01Se1,Pb0.95Sr0.04Na0.01Se1,397.5,169330,0.00051387,0.000055169,2.3965,0.021447,0.0000059056,0.0002144252
3503,10.1021/ja400069s,105,6(a),179,Pb0.95Sr0.04Na0.01Se1,Pb0.95Sr0.04Na0.01Se1,398,168990,0.00051455,0.000055275,2.3938,0.022469,0.0000059175,0.0002149511
3503,10.1021/ja400069s,105,6(a),179,Pb0.95Sr0.04Na0.01Se1,Pb0.95Sr0.04Na0.01Se1,398.5,168650,0.00051523,0.000055381,2.3912,0.02349,0.0000059294,0.0002154692
3503,10.1021/ja400069s,105,6(a),179,Pb0.95Sr0.04Na0.01Se1,Pb0.95Sr0.04Na0.01Se1,399,168310,0.00051591,0.000055488,2.3885,0.024511,0.0000059414,0.0002159975
3503,10.1021/ja400069s,105,6(a),179,Pb0.95Sr0.04Na0.01Se1,Pb0.95Sr0.04Na0.01Se1,399.5,167970,0.00051659,0.000055595,2.3859,0.025532,0.0000059534,0.0002165179
3503,10.1021/ja400069s,105,6(a),179,Pb0.95Sr0.04Na0.01Se1,Pb0.95Sr0.04Na0.01Se1,400,167640,0.00051728,0.000055701,2.3833,0.026553,0.0000059652,0.0002170436
3503,10.1021/ja400069s,105,6(a),179,Pb0.95Sr0.04Na0.01Se1,Pb0.95Sr0.04Na0.01Se1,400.5,167300,0.00051796,0.000055809,2.3806,0.027574,0.0000059773,0.0002175754
3503,10.1021/ja400069s,105,6(a),179,Pb0.95Sr0.04Na0.01Se1,Pb0.95Sr0.04Na0.01Se1,401,166960,0.00051864,0.000055916,2.378,0.028596,0.0000059895,0.0002180992
3503,10.1021/ja400069s,105,6(a),179,Pb0.95Sr0.04Na0.01Se1,Pb0.95Sr0.04Na0.01Se1,401.5,166630,0.00051932,0.000056023,2.3754,0.029617,0.0000060013,0.0002186242
3503,10.1021/ja400069s,105,6(a),179,Pb0.95Sr0.04Na0.01Se1,Pb0.95Sr0.04Na0.01Se1,402,166290,0.00052,0.000056131,2.3727,0.030638,0.0000060136,0.0002191596
3503,10.1021/ja400069s,105,6(a),179,Pb0.95Sr0.04Na0.01Se1,Pb0.95Sr0.04Na0.01Se1,402.5,165960,0.00052068,0.000056239,2.3701,0.031659,0.0000060255,0.0002196869
3503,10.1021/ja400069s,105,6(a),179,Pb0.95Sr0.04Na0.01Se1,Pb0.95Sr0.04Na0.01Se1,403,165620,0.00052137,0.000056347,2.3675,0.03268,0.0000060379,0.0002202196
3503,10.1021/ja400069s,105,6(a),179,Pb0.95Sr0.04Na0.01Se1,Pb0.95Sr0.04Na0.01Se1,403.5,165290,0.00052205,0.000056456,2.3649,0.033702,0.00000605,0.0002207493
3503,10.1021/ja400069s,105,6(a),179,Pb0.95Sr0.04Na0.01Se1,Pb0.95Sr0.04Na0.01Se1,404,164960,0.00052273,0.000056565,2.3623,0.034723,0.0000060621,0.0002212801
3503,10.1021/ja400069s,105,6(a),179,Pb0.95Sr0.04Na0.01Se1,Pb0.95Sr0.04Na0.01Se1,404.5,164620,0.00052341,0.000056673,2.3596,0.035744,0.0000060746,0.0002218215
3503,10.1021/ja400069s,105,6(a),179,Pb0.95Sr0.04Na0.01Se1,Pb0.95Sr0.04Na0.01Se1,405,164290,0.00052409,0.000056782,2.357,0.036765,0.0000060868,0.0002223547
3503,10.1021/ja400069s,105,6(a),179,Pb0.95Sr0.04Na0.01Se1,Pb0.95Sr0.04Na0.01Se1,405.5,163960,0.00052477,0.000056892,2.3544,0.037786,0.000006099,0.0002228891
3503,10.1021/ja400069s,105,6(a),179,Pb0.95Sr0.04Na0.01Se1,Pb0.95Sr0.04Na0.01Se1,406,163630,0.00052546,0.000057001,2.3518,0.038807,0.0000061113,0.0002234289
3503,10.1021/ja400069s,105,6(a),179,Pb0.95Sr0.04Na0.01Se1,Pb0.95Sr0.04Na0.01Se1,406.5,163300,0.00052614,0.000057111,2.3492,0.039829,0.0000061237,0.0002239656
3503,10.1021/ja400069s,105,6(a),179,Pb0.95Sr0.04Na0.01Se1,Pb0.95Sr0.04Na0.01Se1,407,162970,0.00052682,0.000057221,2.3466,0.04085,0.0000061361,0.0002245035
3503,10.1021/ja400069s,105,6(a),179,Pb0.95Sr0.04Na0.01Se1,Pb0.95Sr0.04Na0.01Se1,407.5,162640,0.0005275,0.000057331,2.344,0.041871,0.0000061485,0.0002250427
3503,10.1021/ja400069s,105,6(a),179,Pb0.95Sr0.04Na0.01Se1,Pb0.95Sr0.04Na0.01Se1,408,162310,0.00052818,0.000057441,2.3414,0.042892,0.000006161,0.000225583
3503,10.1021/ja400069s,105,6(a),179,Pb0.95Sr0.04Na0.01Se1,Pb0.95Sr0.04Na0.01Se1,408.5,161980,0.00052887,0.000057552,2.3388,0.043913,0.0000061736,0.0002261288
3503,10.1021/ja400069s,105,6(a),179,Pb0.95Sr0.04Na0.01Se1,Pb0.95Sr0.04Na0.01Se1,409,161650,0.00052955,0.000057663,2.3362,0.044934,0.0000061862,0.0002266715
3503,10.1021/ja400069s,105,6(a),179,Pb0.95Sr0.04Na0.01Se1,Pb0.95Sr0.04Na0.01Se1,409.5,161330,0.00053023,0.000057774,2.3337,0.045956,0.0000061985,0.0002272057
3503,10.1021/ja400069s,105,6(a),179,Pb0.95Sr0.04Na0.01Se1,Pb0.95Sr0.04Na0.01Se1,410,161000,0.00053091,0.000057885,2.3311,0.046977,0.0000062112,0.0002277508
3503,10.1021/ja400069s,105,6(a),179,Pb0.95Sr0.04Na0.01Se1,Pb0.95Sr0.04Na0.01Se1,410.5,160670,0.00053159,0.000057996,2.3285,0.047998,0.0000062239,0.0002282972
3503,10.1021/ja400069s,105,6(a),179,Pb0.95Sr0.04Na0.01Se1,Pb0.95Sr0.04Na0.01Se1,411,160350,0.00053227,0.000058108,2.3259,0.049019,0.0000062364,0.0002288447
3503,10.1021/ja400069s,105,6(a),179,Pb0.95Sr0.04Na0.01Se1,Pb0.95Sr0.04Na0.01Se1,411.5,160020,0.00053296,0.00005822,2.3234,0.05004,0.0000062492,0.000229388
3503,10.1021/ja400069s,105,6(a),179,Pb0.95Sr0.04Na0.01Se1,Pb0.95Sr0.04Na0.01Se1,412,159700,0.00053364,0.000058332,2.3208,0.051061,0.0000062617,0.000229938
3503,10.1021/ja400069s,105,6(a),179,Pb0.95Sr0.04Na0.01Se1,Pb0.95Sr0.04Na0.01Se1,412.5,159370,0.00053432,0.000058444,2.3182,0.052083,0.0000062747,0.0002304892
3503,10.1021/ja400069s,105,6(a),179,Pb0.95Sr0.04Na0.01Se1,Pb0.95Sr0.04Na0.01Se1,413,159050,0.000535,0.000058557,2.3156,0.053104,0.0000062873,0.0002310416
3503,10.1021/ja400069s,105,6(a),179,Pb0.95Sr0.04Na0.01Se1,Pb0.95Sr0.04Na0.01Se1,413.5,158730,0.00053568,0.00005867,2.3131,0.054125,0.0000063,0.0002315853
3503,10.1021/ja400069s,105,6(a),179,Pb0.95Sr0.04Na0.01Se1,Pb0.95Sr0.04Na0.01Se1,414,158400,0.00053636,0.000058783,2.3105,0.055146,0.0000063131,0.0002321402
3503,10.1021/ja400069s,105,6(a),179,Pb0.95Sr0.04Na0.01Se1,Pb0.95Sr0.04Na0.01Se1,414.5,158080,0.00053705,0.000058896,2.308,0.056167,0.0000063259,0.0002326906
3503,10.1021/ja400069s,105,6(a),179,Pb0.95Sr0.04Na0.01Se1,Pb0.95Sr0.04Na0.01Se1,415,157760,0.00053773,0.000059009,2.3054,0.057188,0.0000063387,0.000233248
3503,10.1021/ja400069s,105,6(a),179,Pb0.95Sr0.04Na0.01Se1,Pb0.95Sr0.04Na0.01Se1,415.5,157440,0.00053841,0.000059123,2.3029,0.05821,0.0000063516,0.0002337965
3503,10.1021/ja400069s,105,6(a),179,Pb0.95Sr0.04Na0.01Se1,Pb0.95Sr0.04Na0.01Se1,416,157120,0.00053909,0.000059237,2.3003,0.059231,0.0000063646,0.0002343564
3503,10.1021/ja400069s,105,6(a),179,Pb0.95Sr0.04Na0.01Se1,Pb0.95Sr0.04Na0.01Se1,416.5,156800,0.00053977,0.000059351,2.2978,0.060252,0.0000063776,0.0002349073
3503,10.1021/ja400069s,105,6(a),179,Pb0.95Sr0.04Na0.01Se1,Pb0.95Sr0.04Na0.01Se1,417,156480,0.00054046,0.000059465,2.2952,0.061273,0.0000063906,0.000235474
3503,10.1021/ja400069s,105,6(a),179,Pb0.95Sr0.04Na0.01Se1,Pb0.95Sr0.04Na0.01Se1,417.5,156160,0.00054114,0.00005958,2.2927,0.062294,0.0000064037,0.0002360274
3503,10.1021/ja400069s,105,6(a),179,Pb0.95Sr0.04Na0.01Se1,Pb0.95Sr0.04Na0.01Se1,418,155840,0.00054182,0.000059695,2.2901,0.063316,0.0000064168,0.0002365923
3503,10.1021/ja400069s,105,6(a),179,Pb0.95Sr0.04Na0.01Se1,Pb0.95Sr0.04Na0.01Se1,418.5,155520,0.0005425,0.000059809,2.2876,0.064337,0.00000643,0.0002371481
3503,10.1021/ja400069s,105,6(a),179,Pb0.95Sr0.04Na0.01Se1,Pb0.95Sr0.04Na0.01Se1,419,155210,0.00054318,0.000059925,2.2851,0.065358,0.0000064429,0.0002377051
3503,10.1021/ja400069s,105,6(a),179,Pb0.95Sr0.04Na0.01Se1,Pb0.95Sr0.04Na0.01Se1,419.5,154890,0.00054386,0.00006004,2.2825,0.066379,0.0000064562,0.0002382738
3503,10.1021/ja400069s,105,6(a),179,Pb0.95Sr0.04Na0.01Se1,Pb0.95Sr0.04Na0.01Se1,420,154570,0.00054455,0.000060156,2.28,0.0674,0.0000064696,0.0002388377
3503,10.1021/ja400069s,105,6(a),179,Pb0.95Sr0.04Na0.01Se1,Pb0.95Sr0.04Na0.01Se1,420.5,154260,0.00054523,0.000060272,2.2775,0.068421,0.0000064826,0.0002393985
3503,10.1021/ja400069s,105,6(a),179,Pb0.95Sr0.04Na0.01Se1,Pb0.95Sr0.04Na0.01Se1,421,153940,0.00054591,0.000060388,2.275,0.069443,0.000006496,0.0002399604
3503,10.1021/ja400069s,105,6(a),179,Pb0.95Sr0.04Na0.01Se1,Pb0.95Sr0.04Na0.01Se1,421.5,153630,0.00054659,0.000060504,2.2725,0.070464,0.0000065091,0.0002405237
3503,10.1021/ja400069s,105,6(a),179,Pb0.95Sr0.04Na0.01Se1,Pb0.95Sr0.04Na0.01Se1,422,153310,0.00054727,0.00006062,2.2699,0.071485,0.0000065227,0.0002410987
3503,10.1021/ja400069s,105,6(a),179,Pb0.95Sr0.04Na0.01Se1,Pb0.95Sr0.04Na0.01Se1,422.5,153000,0.00054795,0.000060737,2.2674,0.072506,0.0000065359,0.0002416645
3503,10.1021/ja400069s,105,6(a),179,Pb0.95Sr0.04Na0.01Se1,Pb0.95Sr0.04Na0.01Se1,423,152680,0.00054864,0.000060854,2.2649,0.073527,0.0000065496,0.0002422359
3503,10.1021/ja400069s,105,6(a),179,Pb0.95Sr0.04Na0.01Se1,Pb0.95Sr0.04Na0.01Se1,423.5,152370,0.00054932,0.000060971,2.2624,0.074548,0.000006563,0.0002428041
3503,10.1021/ja400069s,105,6(a),179,Pb0.95Sr0.04Na0.01Se1,Pb0.95Sr0.04Na0.01Se1,424,152060,0.00055,0.000061089,2.2599,0.07557,0.0000065764,0.0002433736
3503,10.1021/ja400069s,105,6(a),179,Pb0.95Sr0.04Na0.01Se1,Pb0.95Sr0.04Na0.01Se1,424.5,151750,0.00055068,0.000061206,2.2574,0.076591,0.0000065898,0.0002439444
3503,10.1021/ja400069s,105,6(a),179,Pb0.95Sr0.04Na0.01Se1,Pb0.95Sr0.04Na0.01Se1,425,151440,0.00055136,0.000061324,2.2549,0.077612,0.0000066033,0.0002445164
3503,10.1021/ja400069s,105,6(a),179,Pb0.95Sr0.04Na0.01Se1,Pb0.95Sr0.04Na0.01Se1,425.5,151120,0.00055205,0.000061442,2.2524,0.078633,0.0000066173,0.0002450941
3503,10.1021/ja400069s,105,6(a),179,Pb0.95Sr0.04Na0.01Se1,Pb0.95Sr0.04Na0.01Se1,426,150810,0.00055273,0.00006156,2.2499,0.079654,0.0000066309,0.0002456687
3503,10.1021/ja400069s,105,6(a),179,Pb0.95Sr0.04Na0.01Se1,Pb0.95Sr0.04Na0.01Se1,426.5,150500,0.00055341,0.000061679,2.2474,0.080675,0.0000066445,0.0002462445
3503,10.1021/ja400069s,105,6(a),179,Pb0.95Sr0.04Na0.01Se1,Pb0.95Sr0.04Na0.01Se1,427,150200,0.00055409,0.000061798,2.2449,0.081697,0.0000066578,0.0002468217
3503,10.1021/ja400069s,105,6(a),179,Pb0.95Sr0.04Na0.01Se1,Pb0.95Sr0.04Na0.01Se1,427.5,149890,0.00055477,0.000061917,2.2424,0.082718,0.0000066716,0.0002474001
3503,10.1021/ja400069s,105,6(a),179,Pb0.95Sr0.04Na0.01Se1,Pb0.95Sr0.04Na0.01Se1,428,149580,0.00055545,0.000062036,2.24,0.083739,0.0000066854,0.0002479688
3503,10.1021/ja400069s,105,6(a),179,Pb0.95Sr0.04Na0.01Se1,Pb0.95Sr0.04Na0.01Se1,428.5,149270,0.00055614,0.000062155,2.2375,0.08476,0.0000066993,0.0002485542
3503,10.1021/ja400069s,105,6(a),179,Pb0.95Sr0.04Na0.01Se1,Pb0.95Sr0.04Na0.01Se1,429,148960,0.00055682,0.000062275,2.235,0.085781,0.0000067132,0.0002491365
3503,10.1021/ja400069s,105,6(a),179,Pb0.95Sr0.04Na0.01Se1,Pb0.95Sr0.04Na0.01Se1,429.5,148660,0.0005575,0.000062395,2.2325,0.086802,0.0000067268,0.00024972
3503,10.1021/ja400069s,105,6(a),179,Pb0.95Sr0.04Na0.01Se1,Pb0.95Sr0.04Na0.01Se1,430,148350,0.00055818,0.000062515,2.23,0.087824,0.0000067408,0.0002503049
3503,10.1021/ja400069s,105,6(a),179,Pb0.95Sr0.04Na0.01Se1,Pb0.95Sr0.04Na0.01Se1,430.5,148040,0.00055886,0.000062635,2.2276,0.088845,0.0000067549,0.0002508799
3503,10.1021/ja400069s,105,6(a),179,Pb0.95Sr0.04Na0.01Se1,Pb0.95Sr0.04Na0.01Se1,431,147740,0.00055954,0.000062755,2.2251,0.089866,0.0000067686,0.0002514673
3503,10.1021/ja400069s,105,6(a),179,Pb0.95Sr0.04Na0.01Se1,Pb0.95Sr0.04Na0.01Se1,431.5,147430,0.00056023,0.000062876,2.2226,0.090887,0.0000067829,0.0002520606
3503,10.1021/ja400069s,105,6(a),179,Pb0.95Sr0.04Na0.01Se1,Pb0.95Sr0.04Na0.01Se1,432,147130,0.00056091,0.000062997,2.2202,0.091908,0.0000067967,0.0002526394
3503,10.1021/ja400069s,105,6(a),179,Pb0.95Sr0.04Na0.01Se1,Pb0.95Sr0.04Na0.01Se1,432.5,146830,0.00056159,0.000063118,2.2177,0.09293,0.0000068106,0.0002532308
3503,10.1021/ja400069s,105,6(a),179,Pb0.95Sr0.04Na0.01Se1,Pb0.95Sr0.04Na0.01Se1,433,146520,0.00056227,0.00006324,2.2153,0.093951,0.000006825,0.0002538121
3503,10.1021/ja400069s,105,6(a),179,Pb0.95Sr0.04Na0.01Se1,Pb0.95Sr0.04Na0.01Se1,433.5,146220,0.00056295,0.000063361,2.2128,0.094972,0.000006839,0.0002544062
3503,10.1021/ja400069s,105,6(a),179,Pb0.95Sr0.04Na0.01Se1,Pb0.95Sr0.04Na0.01Se1,434,145920,0.00056364,0.000063483,2.2104,0.095993,0.0000068531,0.0002549946
3503,10.1021/ja400069s,105,6(a),179,Pb0.95Sr0.04Na0.01Se1,Pb0.95Sr0.04Na0.01Se1,434.5,145620,0.00056432,0.000063605,2.2079,0.097014,0.0000068672,0.0002555913
3503,10.1021/ja400069s,105,6(a),179,Pb0.95Sr0.04Na0.01Se1,Pb0.95Sr0.04Na0.01Se1,435,145310,0.000565,0.000063727,2.2055,0.098035,0.0000068818,0.0002561777
3503,10.1021/ja400069s,105,6(a),179,Pb0.95Sr0.04Na0.01Se1,Pb0.95Sr0.04Na0.01Se1,435.5,145010,0.00056568,0.00006385,2.203,0.099057,0.0000068961,0.0002567771
3503,10.1021/ja400069s,105,6(a),179,Pb0.95Sr0.04Na0.01Se1,Pb0.95Sr0.04Na0.01Se1,436,144710,0.00056636,0.000063973,2.2006,0.10008,0.0000069104,0.0002573662
3503,10.1021/ja400069s,105,6(a),179,Pb0.95Sr0.04Na0.01Se1,Pb0.95Sr0.04Na0.01Se1,436.5,144410,0.00056704,0.000064096,2.1981,0.1011,0.0000069247,0.0002579682
3503,10.1021/ja400069s,105,6(a),179,Pb0.95Sr0.04Na0.01Se1,Pb0.95Sr0.04Na0.01Se1,437,144110,0.00056773,0.000064219,2.1957,0.10212,0.0000069391,0.0002585645
3503,10.1021/ja400069s,105,6(a),179,Pb0.95Sr0.04Na0.01Se1,Pb0.95Sr0.04Na0.01Se1,437.5,143820,0.00056841,0.000064342,2.1933,0.10314,0.0000069531,0.0002591574
3503,10.1021/ja400069s,105,6(a),179,Pb0.95Sr0.04Na0.01Se1,Pb0.95Sr0.04Na0.01Se1,438,143520,0.00056909,0.000064466,2.1908,0.10416,0.0000069677,0.0002597636
3503,10.1021/ja400069s,105,6(a),179,Pb0.95Sr0.04Na0.01Se1,Pb0.95Sr0.04Na0.01Se1,438.5,143220,0.00056977,0.00006459,2.1884,0.10518,0.0000069823,0.0002603592
3503,10.1021/ja400069s,105,6(a),179,Pb0.95Sr0.04Na0.01Se1,Pb0.95Sr0.04Na0.01Se1,439,142920,0.00057045,0.000064714,2.186,0.1062,0.0000069969,0.0002609561
3503,10.1021/ja400069s,105,6(a),179,Pb0.95Sr0.04Na0.01Se1,Pb0.95Sr0.04Na0.01Se1,439.5,142630,0.00057113,0.000064838,2.1836,0.10723,0.0000070111,0.0002615543
3503,10.1021/ja400069s,105,6(a),179,Pb0.95Sr0.04Na0.01Se1,Pb0.95Sr0.04Na0.01Se1,440,142330,0.00057182,0.000064963,2.1811,0.10825,0.0000070259,0.0002621705
3503,10.1021/ja400069s,105,6(a),179,Pb0.95Sr0.04Na0.01Se1,Pb0.95Sr0.04Na0.01Se1,440.5,142030,0.0005725,0.000065087,2.1787,0.10927,0.0000070408,0.0002627714
3503,10.1021/ja400069s,105,6(a),179,Pb0.95Sr0.04Na0.01Se1,Pb0.95Sr0.04Na0.01Se1,441,141740,0.00057318,0.000065212,2.1763,0.11029,0.0000070552,0.0002633736
3503,10.1021/ja400069s,105,6(a),179,Pb0.95Sr0.04Na0.01Se1,Pb0.95Sr0.04Na0.01Se1,441.5,141440,0.00057386,0.000065337,2.1739,0.11131,0.0000070701,0.0002639772
3503,10.1021/ja400069s,105,6(a),179,Pb0.95Sr0.04Na0.01Se1,Pb0.95Sr0.04Na0.01Se1,442,141150,0.00057454,0.000065463,2.1715,0.11233,0.0000070847,0.0002645821
3503,10.1021/ja400069s,105,6(a),179,Pb0.95Sr0.04Na0.01Se1,Pb0.95Sr0.04Na0.01Se1,442.5,140850,0.00057523,0.000065588,2.1691,0.11335,0.0000070998,0.0002651929
3503,10.1021/ja400069s,105,6(a),179,Pb0.95Sr0.04Na0.01Se1,Pb0.95Sr0.04Na0.01Se1,443,140560,0.00057591,0.000065714,2.1667,0.11437,0.0000071144,0.0002658005
3503,10.1021/ja400069s,105,6(a),179,Pb0.95Sr0.04Na0.01Se1,Pb0.95Sr0.04Na0.01Se1,443.5,140270,0.00057659,0.00006584,2.1643,0.1154,0.0000071291,0.0002664095
3503,10.1021/ja400069s,105,6(a),179,Pb0.95Sr0.04Na0.01Se1,Pb0.95Sr0.04Na0.01Se1,444,139980,0.00057727,0.000065967,2.1619,0.11642,0.0000071439,0.0002670198
3503,10.1021/ja400069s,105,6(a),179,Pb0.95Sr0.04Na0.01Se1,Pb0.95Sr0.04Na0.01Se1,444.5,139680,0.00057795,0.000066093,2.1595,0.11744,0.0000071592,0.0002676314
3503,10.1021/ja400069s,105,6(a),179,Pb0.95Sr0.04Na0.01Se1,Pb0.95Sr0.04Na0.01Se1,445,139390,0.00057863,0.00006622,2.1571,0.11846,0.0000071741,0.0002682444
3503,10.1021/ja400069s,105,6(a),179,Pb0.95Sr0.04Na0.01Se1,Pb0.95Sr0.04Na0.01Se1,445.5,139100,0.00057932,0.000066347,2.1547,0.11948,0.0000071891,0.0002688634
3503,10.1021/ja400069s,105,6(a),179,Pb0.95Sr0.04Na0.01Se1,Pb0.95Sr0.04Na0.01Se1,446,138810,0.00058,0.000066474,2.1523,0.1205,0.0000072041,0.0002694792
3503,10.1021/ja400069s,105,6(a),179,Pb0.95Sr0.04Na0.01Se1,Pb0.95Sr0.04Na0.01Se1,446.5,138520,0.00058068,0.000066602,2.1499,0.12152,0.0000072192,0.0002700963
3503,10.1021/ja400069s,105,6(a),179,Pb0.95Sr0.04Na0.01Se1,Pb0.95Sr0.04Na0.01Se1,447,138230,0.00058136,0.000066729,2.1475,0.12254,0.0000072343,0.0002707148
3503,10.1021/ja400069s,105,6(a),179,Pb0.95Sr0.04Na0.01Se1,Pb0.95Sr0.04Na0.01Se1,447.5,137940,0.00058204,0.000066857,2.1451,0.12356,0.0000072495,0.0002713347
3503,10.1021/ja400069s,105,6(a),179,Pb0.95Sr0.04Na0.01Se1,Pb0.95Sr0.04Na0.01Se1,448,137660,0.00058272,0.000066985,2.1427,0.12459,0.0000072643,0.0002719559
3503,10.1021/ja400069s,105,6(a),179,Pb0.95Sr0.04Na0.01Se1,Pb0.95Sr0.04Na0.01Se1,448.5,137370,0.00058341,0.000067114,2.1404,0.12561,0.0000072796,0.0002725705
3503,10.1021/ja400069s,105,6(a),179,Pb0.95Sr0.04Na0.01Se1,Pb0.95Sr0.04Na0.01Se1,449,137080,0.00058409,0.000067242,2.138,0.12663,0.000007295,0.0002731946
3503,10.1021/ja400069s,105,6(a),179,Pb0.95Sr0.04Na0.01Se1,Pb0.95Sr0.04Na0.01Se1,449.5,136790,0.00058477,0.000067371,2.1356,0.12765,0.0000073105,0.00027382
3503,10.1021/ja400069s,105,6(a),179,Pb0.95Sr0.04Na0.01Se1,Pb0.95Sr0.04Na0.01Se1,450,136510,0.00058545,0.0000675,2.1333,0.12867,0.0000073255,0.000274434
3503,10.1021/ja400069s,105,6(a),179,Pb0.95Sr0.04Na0.01Se1,Pb0.95Sr0.04Na0.01Se1,450.5,136220,0.00058613,0.000067629,2.1309,0.12969,0.0000073411,0.0002750622
3503,10.1021/ja400069s,105,6(a),179,Pb0.95Sr0.04Na0.01Se1,Pb0.95Sr0.04Na0.01Se1,451,135940,0.00058682,0.000067759,2.1285,0.13071,0.0000073562,0.0002756965
3503,10.1021/ja400069s,105,6(a),179,Pb0.95Sr0.04Na0.01Se1,Pb0.95Sr0.04Na0.01Se1,451.5,135650,0.0005875,0.000067889,2.1262,0.13173,0.0000073719,0.0002763146
3503,10.1021/ja400069s,105,6(a),179,Pb0.95Sr0.04Na0.01Se1,Pb0.95Sr0.04Na0.01Se1,452,135370,0.00058818,0.000068018,2.1238,0.13276,0.0000073872,0.000276947
3503,10.1021/ja400069s,105,6(a),179,Pb0.95Sr0.04Na0.01Se1,Pb0.95Sr0.04Na0.01Se1,452.5,135080,0.00058886,0.000068149,2.1214,0.13378,0.000007403,0.0002775808
3503,10.1021/ja400069s,105,6(a),179,Pb0.95Sr0.04Na0.01Se1,Pb0.95Sr0.04Na0.01Se1,453,134800,0.00058954,0.000068279,2.1191,0.1348,0.0000074184,0.000278203
3503,10.1021/ja400069s,105,6(a),179,Pb0.95Sr0.04Na0.01Se1,Pb0.95Sr0.04Na0.01Se1,453.5,134520,0.00059022,0.00006841,2.1167,0.13582,0.0000074338,0.0002788397
3503,10.1021/ja400069s,105,6(a),179,Pb0.95Sr0.04Na0.01Se1,Pb0.95Sr0.04Na0.01Se1,454,134230,0.00059091,0.00006854,2.1144,0.13684,0.0000074499,0.0002794694
3503,10.1021/ja400069s,105,6(a),179,Pb0.95Sr0.04Na0.01Se1,Pb0.95Sr0.04Na0.01Se1,454.5,133950,0.00059159,0.000068671,2.112,0.13786,0.0000074655,0.0002801089
3503,10.1021/ja400069s,105,6(a),179,Pb0.95Sr0.04Na0.01Se1,Pb0.95Sr0.04Na0.01Se1,455,133670,0.00059227,0.000068803,2.1097,0.13888,0.0000074811,0.0002807366
3503,10.1021/ja400069s,105,6(a),179,Pb0.95Sr0.04Na0.01Se1,Pb0.95Sr0.04Na0.01Se1,455.5,133390,0.00059295,0.000068934,2.1074,0.1399,0.0000074968,0.0002813657
3503,10.1021/ja400069s,105,6(a),179,Pb0.95Sr0.04Na0.01Se1,Pb0.95Sr0.04Na0.01Se1,456,133110,0.00059363,0.000069066,2.105,0.14092,0.0000075126,0.0002820095
3503,10.1021/ja400069s,105,6(a),179,Pb0.95Sr0.04Na0.01Se1,Pb0.95Sr0.04Na0.01Se1,456.5,132830,0.00059431,0.000069198,2.1027,0.14195,0.0000075284,0.0002826414
3503,10.1021/ja400069s,105,6(a),179,Pb0.95Sr0.04Na0.01Se1,Pb0.95Sr0.04Na0.01Se1,457,132550,0.000595,0.00006933,2.1003,0.14297,0.0000075443,0.0002832929
3503,10.1021/ja400069s,105,6(a),179,Pb0.95Sr0.04Na0.01Se1,Pb0.95Sr0.04Na0.01Se1,457.5,132270,0.00059568,0.000069462,2.098,0.14399,0.0000075603,0.0002839276
3503,10.1021/ja400069s,105,6(a),179,Pb0.95Sr0.04Na0.01Se1,Pb0.95Sr0.04Na0.01Se1,458,131990,0.00059636,0.000069595,2.0957,0.14501,0.0000075763,0.0002845636
3503,10.1021/ja400069s,105,6(a),179,Pb0.95Sr0.04Na0.01Se1,Pb0.95Sr0.04Na0.01Se1,458.5,131710,0.00059704,0.000069728,2.0934,0.14603,0.0000075924,0.0002852011
3503,10.1021/ja400069s,105,6(a),179,Pb0.95Sr0.04Na0.01Se1,Pb0.95Sr0.04Na0.01Se1,459,131430,0.00059772,0.000069861,2.091,0.14705,0.0000076086,0.0002858537