sid,DOI,figureid,fignum,sampleid,samplename,composition,Temperature,Electrical conductivity,Power factor,Seebeck coefficient,Thermal conductivity,ZT,Electrical resistivity,Figure of merit Z
3503,10.1021/ja400069s,105,6(a),381,Pb0.98Ba0.01Na0.01Se1,Pb0.98Ba0.01Na0.01Se1,351,225350,0.00035969,0.000034529,3.146,-0.078549,0.0000044375,0.0001143325
3503,10.1021/ja400069s,105,6(a),381,Pb0.98Ba0.01Na0.01Se1,Pb0.98Ba0.01Na0.01Se1,351.5,224930,0.00036068,0.000034613,3.1426,-0.077578,0.0000044458,0.0001147712
3503,10.1021/ja400069s,105,6(a),381,Pb0.98Ba0.01Na0.01Se1,Pb0.98Ba0.01Na0.01Se1,352,224500,0.00036167,0.000034698,3.1391,-0.076607,0.0000044543,0.0001152146
3503,10.1021/ja400069s,105,6(a),381,Pb0.98Ba0.01Na0.01Se1,Pb0.98Ba0.01Na0.01Se1,352.5,224080,0.00036267,0.000034782,3.1356,-0.075636,0.0000044627,0.0001156621
3503,10.1021/ja400069s,105,6(a),381,Pb0.98Ba0.01Na0.01Se1,Pb0.98Ba0.01Na0.01Se1,353,223650,0.00036366,0.000034868,3.1321,-0.074664,0.0000044713,0.0001161074
3503,10.1021/ja400069s,105,6(a),381,Pb0.98Ba0.01Na0.01Se1,Pb0.98Ba0.01Na0.01Se1,353.5,223230,0.00036465,0.000034953,3.1286,-0.073693,0.0000044797,0.0001165537
3503,10.1021/ja400069s,105,6(a),381,Pb0.98Ba0.01Na0.01Se1,Pb0.98Ba0.01Na0.01Se1,354,222800,0.00036564,0.000035039,3.1252,-0.072722,0.0000044883,0.0001169973
3503,10.1021/ja400069s,105,6(a),381,Pb0.98Ba0.01Na0.01Se1,Pb0.98Ba0.01Na0.01Se1,354.5,222380,0.00036663,0.000035125,3.1217,-0.071751,0.0000044968,0.0001174456
3503,10.1021/ja400069s,105,6(a),381,Pb0.98Ba0.01Na0.01Se1,Pb0.98Ba0.01Na0.01Se1,355,221960,0.00036763,0.000035212,3.1182,-0.070779,0.0000045053,0.0001178981
3503,10.1021/ja400069s,105,6(a),381,Pb0.98Ba0.01Na0.01Se1,Pb0.98Ba0.01Na0.01Se1,355.5,221530,0.00036862,0.000035298,3.1148,-0.069808,0.0000045141,0.0001183447
3503,10.1021/ja400069s,105,6(a),381,Pb0.98Ba0.01Na0.01Se1,Pb0.98Ba0.01Na0.01Se1,356,221110,0.00036961,0.000035386,3.1113,-0.068837,0.0000045226,0.000118796
3503,10.1021/ja400069s,105,6(a),381,Pb0.98Ba0.01Na0.01Se1,Pb0.98Ba0.01Na0.01Se1,356.5,220690,0.0003706,0.000035473,3.1078,-0.067865,0.0000045312,0.0001192483
3503,10.1021/ja400069s,105,6(a),381,Pb0.98Ba0.01Na0.01Se1,Pb0.98Ba0.01Na0.01Se1,357,220270,0.00037159,0.000035561,3.1044,-0.066894,0.0000045399,0.0001196978
3503,10.1021/ja400069s,105,6(a),381,Pb0.98Ba0.01Na0.01Se1,Pb0.98Ba0.01Na0.01Se1,357.5,219850,0.00037258,0.000035649,3.1009,-0.065923,0.0000045486,0.0001201522
3503,10.1021/ja400069s,105,6(a),381,Pb0.98Ba0.01Na0.01Se1,Pb0.98Ba0.01Na0.01Se1,358,219430,0.00037358,0.000035738,3.0974,-0.064952,0.0000045573,0.0001206108
3503,10.1021/ja400069s,105,6(a),381,Pb0.98Ba0.01Na0.01Se1,Pb0.98Ba0.01Na0.01Se1,358.5,219010,0.00037457,0.000035827,3.094,-0.06398,0.000004566,0.0001210633
3503,10.1021/ja400069s,105,6(a),381,Pb0.98Ba0.01Na0.01Se1,Pb0.98Ba0.01Na0.01Se1,359,218590,0.00037556,0.000035916,3.0905,-0.063009,0.0000045748,0.0001215208
3503,10.1021/ja400069s,105,6(a),381,Pb0.98Ba0.01Na0.01Se1,Pb0.98Ba0.01Na0.01Se1,359.5,218170,0.00037655,0.000036006,3.0871,-0.062038,0.0000045836,0.0001219753
3503,10.1021/ja400069s,105,6(a),381,Pb0.98Ba0.01Na0.01Se1,Pb0.98Ba0.01Na0.01Se1,360,217760,0.00037754,0.000036096,3.0837,-0.061067,0.0000045922,0.0001224308
3503,10.1021/ja400069s,105,6(a),381,Pb0.98Ba0.01Na0.01Se1,Pb0.98Ba0.01Na0.01Se1,360.5,217340,0.00037854,0.000036186,3.0802,-0.060095,0.0000046011,0.0001228946
3503,10.1021/ja400069s,105,6(a),381,Pb0.98Ba0.01Na0.01Se1,Pb0.98Ba0.01Na0.01Se1,361,216920,0.00037953,0.000036277,3.0768,-0.059124,0.00000461,0.0001233522
3503,10.1021/ja400069s,105,6(a),381,Pb0.98Ba0.01Na0.01Se1,Pb0.98Ba0.01Na0.01Se1,361.5,216510,0.00038052,0.000036368,3.0733,-0.058153,0.0000046187,0.0001238148
3503,10.1021/ja400069s,105,6(a),381,Pb0.98Ba0.01Na0.01Se1,Pb0.98Ba0.01Na0.01Se1,362,216090,0.00038151,0.000036459,3.0699,-0.057182,0.0000046277,0.0001242744
3503,10.1021/ja400069s,105,6(a),381,Pb0.98Ba0.01Na0.01Se1,Pb0.98Ba0.01Na0.01Se1,362.5,215680,0.0003825,0.000036551,3.0665,-0.05621,0.0000046365,0.000124735
3503,10.1021/ja400069s,105,6(a),381,Pb0.98Ba0.01Na0.01Se1,Pb0.98Ba0.01Na0.01Se1,363,215260,0.00038349,0.000036643,3.063,-0.055239,0.0000046455,0.0001252008
3503,10.1021/ja400069s,105,6(a),381,Pb0.98Ba0.01Na0.01Se1,Pb0.98Ba0.01Na0.01Se1,363.5,214850,0.00038449,0.000036735,3.0596,-0.054268,0.0000046544,0.0001256668
3503,10.1021/ja400069s,105,6(a),381,Pb0.98Ba0.01Na0.01Se1,Pb0.98Ba0.01Na0.01Se1,364,214430,0.00038548,0.000036828,3.0562,-0.053297,0.0000046635,0.0001261305
3503,10.1021/ja400069s,105,6(a),381,Pb0.98Ba0.01Na0.01Se1,Pb0.98Ba0.01Na0.01Se1,364.5,214020,0.00038647,0.000036921,3.0527,-0.052325,0.0000046725,0.0001265994
3503,10.1021/ja400069s,105,6(a),381,Pb0.98Ba0.01Na0.01Se1,Pb0.98Ba0.01Na0.01Se1,365,213610,0.00038746,0.000037014,3.0493,-0.051354,0.0000046814,0.0001270652
3503,10.1021/ja400069s,105,6(a),381,Pb0.98Ba0.01Na0.01Se1,Pb0.98Ba0.01Na0.01Se1,365.5,213200,0.00038845,0.000037108,3.0459,-0.050383,0.0000046904,0.0001275321
3503,10.1021/ja400069s,105,6(a),381,Pb0.98Ba0.01Na0.01Se1,Pb0.98Ba0.01Na0.01Se1,366,212790,0.00038945,0.000037202,3.0425,-0.049411,0.0000046995,0.0001280033
3503,10.1021/ja400069s,105,6(a),381,Pb0.98Ba0.01Na0.01Se1,Pb0.98Ba0.01Na0.01Se1,366.5,212370,0.00039044,0.000037296,3.0391,-0.04844,0.0000047088,0.0001284722
3503,10.1021/ja400069s,105,6(a),381,Pb0.98Ba0.01Na0.01Se1,Pb0.98Ba0.01Na0.01Se1,367,211960,0.00039143,0.000037391,3.0357,-0.047469,0.0000047179,0.0001289423
3503,10.1021/ja400069s,105,6(a),381,Pb0.98Ba0.01Na0.01Se1,Pb0.98Ba0.01Na0.01Se1,367.5,211550,0.00039242,0.000037486,3.0322,-0.046498,0.000004727,0.0001294176
3503,10.1021/ja400069s,105,6(a),381,Pb0.98Ba0.01Na0.01Se1,Pb0.98Ba0.01Na0.01Se1,368,211150,0.00039341,0.000037582,3.0288,-0.045526,0.000004736,0.0001298897
3503,10.1021/ja400069s,105,6(a),381,Pb0.98Ba0.01Na0.01Se1,Pb0.98Ba0.01Na0.01Se1,368.5,210740,0.00039441,0.000037677,3.0254,-0.044555,0.0000047452,0.0001303662
3503,10.1021/ja400069s,105,6(a),381,Pb0.98Ba0.01Na0.01Se1,Pb0.98Ba0.01Na0.01Se1,369,210330,0.0003954,0.000037773,3.022,-0.043584,0.0000047544,0.0001308405
3503,10.1021/ja400069s,105,6(a),381,Pb0.98Ba0.01Na0.01Se1,Pb0.98Ba0.01Na0.01Se1,369.5,209920,0.00039639,0.00003787,3.0186,-0.042613,0.0000047637,0.0001313158
3503,10.1021/ja400069s,105,6(a),381,Pb0.98Ba0.01Na0.01Se1,Pb0.98Ba0.01Na0.01Se1,370,209510,0.00039738,0.000037966,3.0152,-0.041641,0.000004773,0.0001317923
3503,10.1021/ja400069s,105,6(a),381,Pb0.98Ba0.01Na0.01Se1,Pb0.98Ba0.01Na0.01Se1,370.5,209110,0.00039837,0.000038063,3.0118,-0.04067,0.0000047822,0.0001322697
3503,10.1021/ja400069s,105,6(a),381,Pb0.98Ba0.01Na0.01Se1,Pb0.98Ba0.01Na0.01Se1,371,208700,0.00039936,0.000038161,3.0084,-0.039699,0.0000047916,0.0001327483
3503,10.1021/ja400069s,105,6(a),381,Pb0.98Ba0.01Na0.01Se1,Pb0.98Ba0.01Na0.01Se1,371.5,208300,0.00040036,0.000038258,3.0051,-0.038728,0.0000048008,0.0001332268
3503,10.1021/ja400069s,105,6(a),381,Pb0.98Ba0.01Na0.01Se1,Pb0.98Ba0.01Na0.01Se1,372,207890,0.00040135,0.000038356,3.0017,-0.037756,0.0000048102,0.0001337076
3503,10.1021/ja400069s,105,6(a),381,Pb0.98Ba0.01Na0.01Se1,Pb0.98Ba0.01Na0.01Se1,372.5,207490,0.00040234,0.000038455,2.9983,-0.036785,0.0000048195,0.0001341894
3503,10.1021/ja400069s,105,6(a),381,Pb0.98Ba0.01Na0.01Se1,Pb0.98Ba0.01Na0.01Se1,373,207080,0.00040333,0.000038553,2.9949,-0.035814,0.0000048291,0.0001346723
3503,10.1021/ja400069s,105,6(a),381,Pb0.98Ba0.01Na0.01Se1,Pb0.98Ba0.01Na0.01Se1,373.5,206680,0.00040432,0.000038652,2.9915,-0.034843,0.0000048384,0.0001351563
3503,10.1021/ja400069s,105,6(a),381,Pb0.98Ba0.01Na0.01Se1,Pb0.98Ba0.01Na0.01Se1,374,206280,0.00040532,0.000038752,2.9881,-0.033871,0.0000048478,0.0001356447
3503,10.1021/ja400069s,105,6(a),381,Pb0.98Ba0.01Na0.01Se1,Pb0.98Ba0.01Na0.01Se1,374.5,205870,0.00040631,0.000038851,2.9848,-0.0329,0.0000048574,0.0001361264
3503,10.1021/ja400069s,105,6(a),381,Pb0.98Ba0.01Na0.01Se1,Pb0.98Ba0.01Na0.01Se1,375,205470,0.0004073,0.000038951,2.9814,-0.031929,0.0000048669,0.0001366137
3503,10.1021/ja400069s,105,6(a),381,Pb0.98Ba0.01Na0.01Se1,Pb0.98Ba0.01Na0.01Se1,375.5,205070,0.00040829,0.000039052,2.978,-0.030958,0.0000048764,0.0001371021
3503,10.1021/ja400069s,105,6(a),381,Pb0.98Ba0.01Na0.01Se1,Pb0.98Ba0.01Na0.01Se1,376,204670,0.00040928,0.000039152,2.9747,-0.029986,0.0000048859,0.000137587
3503,10.1021/ja400069s,105,6(a),381,Pb0.98Ba0.01Na0.01Se1,Pb0.98Ba0.01Na0.01Se1,376.5,204270,0.00041028,0.000039253,2.9713,-0.029015,0.0000048955,0.000138081
3503,10.1021/ja400069s,105,6(a),381,Pb0.98Ba0.01Na0.01Se1,Pb0.98Ba0.01Na0.01Se1,377,203870,0.00041127,0.000039354,2.9679,-0.028044,0.0000049051,0.0001385727
3503,10.1021/ja400069s,105,6(a),381,Pb0.98Ba0.01Na0.01Se1,Pb0.98Ba0.01Na0.01Se1,377.5,203470,0.00041226,0.000039456,2.9646,-0.027072,0.0000049147,0.0001390609
3503,10.1021/ja400069s,105,6(a),381,Pb0.98Ba0.01Na0.01Se1,Pb0.98Ba0.01Na0.01Se1,378,203070,0.00041325,0.000039558,2.9612,-0.026101,0.0000049244,0.0001395549
3503,10.1021/ja400069s,105,6(a),381,Pb0.98Ba0.01Na0.01Se1,Pb0.98Ba0.01Na0.01Se1,378.5,202670,0.00041424,0.00003966,2.9578,-0.02513,0.0000049341,0.00014005
3503,10.1021/ja400069s,105,6(a),381,Pb0.98Ba0.01Na0.01Se1,Pb0.98Ba0.01Na0.01Se1,379,202280,0.00041523,0.000039763,2.9545,-0.024159,0.0000049436,0.0001405415
3503,10.1021/ja400069s,105,6(a),381,Pb0.98Ba0.01Na0.01Se1,Pb0.98Ba0.01Na0.01Se1,379.5,201880,0.00041623,0.000039865,2.9511,-0.023187,0.0000049534,0.0001410423
3503,10.1021/ja400069s,105,6(a),381,Pb0.98Ba0.01Na0.01Se1,Pb0.98Ba0.01Na0.01Se1,380,201480,0.00041722,0.000039969,2.9478,-0.022216,0.0000049633,0.0001415361
3503,10.1021/ja400069s,105,6(a),381,Pb0.98Ba0.01Na0.01Se1,Pb0.98Ba0.01Na0.01Se1,380.5,201090,0.00041821,0.000040072,2.9445,-0.021245,0.0000049729,0.0001420309
3503,10.1021/ja400069s,105,6(a),381,Pb0.98Ba0.01Na0.01Se1,Pb0.98Ba0.01Na0.01Se1,381,200690,0.0004192,0.000040176,2.9411,-0.020274,0.0000049828,0.0001425317
3503,10.1021/ja400069s,105,6(a),381,Pb0.98Ba0.01Na0.01Se1,Pb0.98Ba0.01Na0.01Se1,381.5,200300,0.00042019,0.00004028,2.9378,-0.019302,0.0000049925,0.0001430288
3503,10.1021/ja400069s,105,6(a),381,Pb0.98Ba0.01Na0.01Se1,Pb0.98Ba0.01Na0.01Se1,382,199900,0.00042119,0.000040385,2.9344,-0.018331,0.0000050025,0.0001435353
3503,10.1021/ja400069s,105,6(a),381,Pb0.98Ba0.01Na0.01Se1,Pb0.98Ba0.01Na0.01Se1,382.5,199510,0.00042218,0.000040489,2.9311,-0.01736,0.0000050123,0.0001440347
3503,10.1021/ja400069s,105,6(a),381,Pb0.98Ba0.01Na0.01Se1,Pb0.98Ba0.01Na0.01Se1,383,199120,0.00042317,0.000040594,2.9278,-0.016389,0.0000050221,0.0001445351
3503,10.1021/ja400069s,105,6(a),381,Pb0.98Ba0.01Na0.01Se1,Pb0.98Ba0.01Na0.01Se1,383.5,198720,0.00042416,0.0000407,2.9244,-0.015417,0.0000050322,0.0001450417
3503,10.1021/ja400069s,105,6(a),381,Pb0.98Ba0.01Na0.01Se1,Pb0.98Ba0.01Na0.01Se1,384,198330,0.00042515,0.000040805,2.9211,-0.014446,0.0000050421,0.0001455445
3503,10.1021/ja400069s,105,6(a),381,Pb0.98Ba0.01Na0.01Se1,Pb0.98Ba0.01Na0.01Se1,384.5,197940,0.00042614,0.000040912,2.9178,-0.013475,0.000005052,0.0001460484
3503,10.1021/ja400069s,105,6(a),381,Pb0.98Ba0.01Na0.01Se1,Pb0.98Ba0.01Na0.01Se1,385,197550,0.00042714,0.000041018,2.9145,-0.012504,0.000005062,0.0001465569
3503,10.1021/ja400069s,105,6(a),381,Pb0.98Ba0.01Na0.01Se1,Pb0.98Ba0.01Na0.01Se1,385.5,197160,0.00042813,0.000041125,2.9111,-0.011532,0.000005072,0.0001470681
3503,10.1021/ja400069s,105,6(a),381,Pb0.98Ba0.01Na0.01Se1,Pb0.98Ba0.01Na0.01Se1,386,196770,0.00042912,0.000041231,2.9078,-0.010561,0.0000050821,0.0001475755
3503,10.1021/ja400069s,105,6(a),381,Pb0.98Ba0.01Na0.01Se1,Pb0.98Ba0.01Na0.01Se1,386.5,196380,0.00043011,0.000041339,2.9045,-0.0095897,0.0000050922,0.000148084
3503,10.1021/ja400069s,105,6(a),381,Pb0.98Ba0.01Na0.01Se1,Pb0.98Ba0.01Na0.01Se1,387,195990,0.0004311,0.000041446,2.9012,-0.0086185,0.0000051023,0.0001485937
3503,10.1021/ja400069s,105,6(a),381,Pb0.98Ba0.01Na0.01Se1,Pb0.98Ba0.01Na0.01Se1,387.5,195600,0.0004321,0.000041554,2.8979,-0.0076472,0.0000051125,0.000149108
3503,10.1021/ja400069s,105,6(a),381,Pb0.98Ba0.01Na0.01Se1,Pb0.98Ba0.01Na0.01Se1,388,195220,0.00043309,0.000041662,2.8946,-0.0066759,0.0000051224,0.00014962
3503,10.1021/ja400069s,105,6(a),381,Pb0.98Ba0.01Na0.01Se1,Pb0.98Ba0.01Na0.01Se1,388.5,194830,0.00043408,0.000041771,2.8913,-0.0057047,0.0000051327,0.0001501332
3503,10.1021/ja400069s,105,6(a),381,Pb0.98Ba0.01Na0.01Se1,Pb0.98Ba0.01Na0.01Se1,389,194440,0.00043507,0.00004188,2.888,-0.0047334,0.000005143,0.0001506475
3503,10.1021/ja400069s,105,6(a),381,Pb0.98Ba0.01Na0.01Se1,Pb0.98Ba0.01Na0.01Se1,389.5,194060,0.00043606,0.000041989,2.8847,-0.0037621,0.000005153,0.000151163
3503,10.1021/ja400069s,105,6(a),381,Pb0.98Ba0.01Na0.01Se1,Pb0.98Ba0.01Na0.01Se1,390,193670,0.00043706,0.000042098,2.8814,-0.0027909,0.0000051634,0.0001516832
3503,10.1021/ja400069s,105,6(a),381,Pb0.98Ba0.01Na0.01Se1,Pb0.98Ba0.01Na0.01Se1,390.5,193290,0.00043805,0.000042208,2.8781,-0.0018196,0.0000051736,0.0001522011
3503,10.1021/ja400069s,105,6(a),381,Pb0.98Ba0.01Na0.01Se1,Pb0.98Ba0.01Na0.01Se1,391,192900,0.00043904,0.000042318,2.8748,-0.00084836,0.000005184,0.0001527202
3503,10.1021/ja400069s,105,6(a),381,Pb0.98Ba0.01Na0.01Se1,Pb0.98Ba0.01Na0.01Se1,391.5,192520,0.00044003,0.000042429,2.8715,0.0001229,0.0000051943,0.0001532405
3503,10.1021/ja400069s,105,6(a),381,Pb0.98Ba0.01Na0.01Se1,Pb0.98Ba0.01Na0.01Se1,392,192140,0.00044102,0.000042539,2.8682,0.0010942,0.0000052045,0.0001537619
3503,10.1021/ja400069s,105,6(a),381,Pb0.98Ba0.01Na0.01Se1,Pb0.98Ba0.01Na0.01Se1,392.5,191750,0.00044201,0.00004265,2.8649,0.0020654,0.0000052151,0.0001542846
3503,10.1021/ja400069s,105,6(a),381,Pb0.98Ba0.01Na0.01Se1,Pb0.98Ba0.01Na0.01Se1,393,191370,0.00044301,0.000042762,2.8617,0.0030367,0.0000052255,0.0001548066
3503,10.1021/ja400069s,105,6(a),381,Pb0.98Ba0.01Na0.01Se1,Pb0.98Ba0.01Na0.01Se1,393.5,190990,0.000444,0.000042873,2.8584,0.004008,0.0000052359,0.0001553317
3503,10.1021/ja400069s,105,6(a),381,Pb0.98Ba0.01Na0.01Se1,Pb0.98Ba0.01Na0.01Se1,394,190610,0.00044499,0.000042985,2.8551,0.0049792,0.0000052463,0.0001558579
3503,10.1021/ja400069s,105,6(a),381,Pb0.98Ba0.01Na0.01Se1,Pb0.98Ba0.01Na0.01Se1,394.5,190230,0.00044598,0.000043097,2.8518,0.0059505,0.0000052568,0.0001563854
3503,10.1021/ja400069s,105,6(a),381,Pb0.98Ba0.01Na0.01Se1,Pb0.98Ba0.01Na0.01Se1,395,189850,0.00044697,0.00004321,2.8486,0.0069217,0.0000052673,0.0001569087
3503,10.1021/ja400069s,105,6(a),381,Pb0.98Ba0.01Na0.01Se1,Pb0.98Ba0.01Na0.01Se1,395.5,189470,0.00044797,0.000043323,2.8453,0.007893,0.0000052779,0.0001574421
3503,10.1021/ja400069s,105,6(a),381,Pb0.98Ba0.01Na0.01Se1,Pb0.98Ba0.01Na0.01Se1,396,189090,0.00044896,0.000043436,2.842,0.0088643,0.0000052885,0.0001579733
3503,10.1021/ja400069s,105,6(a),381,Pb0.98Ba0.01Na0.01Se1,Pb0.98Ba0.01Na0.01Se1,396.5,188710,0.00044995,0.000043549,2.8388,0.0098355,0.0000052991,0.0001585001
3503,10.1021/ja400069s,105,6(a),381,Pb0.98Ba0.01Na0.01Se1,Pb0.98Ba0.01Na0.01Se1,397,188340,0.00045094,0.000043663,2.8355,0.010807,0.0000053095,0.0001590337
3503,10.1021/ja400069s,105,6(a),381,Pb0.98Ba0.01Na0.01Se1,Pb0.98Ba0.01Na0.01Se1,397.5,187960,0.00045193,0.000043777,2.8322,0.011778,0.0000053203,0.0001595685
3503,10.1021/ja400069s,105,6(a),381,Pb0.98Ba0.01Na0.01Se1,Pb0.98Ba0.01Na0.01Se1,398,187580,0.00045292,0.000043891,2.829,0.012749,0.0000053311,0.000160099
3503,10.1021/ja400069s,105,6(a),381,Pb0.98Ba0.01Na0.01Se1,Pb0.98Ba0.01Na0.01Se1,398.5,187210,0.00045392,0.000044006,2.8257,0.013721,0.0000053416,0.0001606398
3503,10.1021/ja400069s,105,6(a),381,Pb0.98Ba0.01Na0.01Se1,Pb0.98Ba0.01Na0.01Se1,399,186830,0.00045491,0.000044121,2.8225,0.014692,0.0000053525,0.0001611727
3503,10.1021/ja400069s,105,6(a),381,Pb0.98Ba0.01Na0.01Se1,Pb0.98Ba0.01Na0.01Se1,399.5,186460,0.0004559,0.000044236,2.8192,0.015663,0.0000053631,0.0001617125
3503,10.1021/ja400069s,105,6(a),381,Pb0.98Ba0.01Na0.01Se1,Pb0.98Ba0.01Na0.01Se1,400,186080,0.00045689,0.000044351,2.816,0.016634,0.000005374,0.0001622479
3503,10.1021/ja400069s,105,6(a),381,Pb0.98Ba0.01Na0.01Se1,Pb0.98Ba0.01Na0.01Se1,400.5,185710,0.00045788,0.000044467,2.8128,0.017606,0.0000053847,0.0001627844
3503,10.1021/ja400069s,105,6(a),381,Pb0.98Ba0.01Na0.01Se1,Pb0.98Ba0.01Na0.01Se1,401,185340,0.00045888,0.000044583,2.8095,0.018577,0.0000053955,0.0001633316
3503,10.1021/ja400069s,105,6(a),381,Pb0.98Ba0.01Na0.01Se1,Pb0.98Ba0.01Na0.01Se1,401.5,184960,0.00045987,0.0000447,2.8063,0.019548,0.0000054066,0.0001638706
3503,10.1021/ja400069s,105,6(a),381,Pb0.98Ba0.01Na0.01Se1,Pb0.98Ba0.01Na0.01Se1,402,184590,0.00046086,0.000044817,2.8031,0.020519,0.0000054174,0.0001644108
3503,10.1021/ja400069s,105,6(a),381,Pb0.98Ba0.01Na0.01Se1,Pb0.98Ba0.01Na0.01Se1,402.5,184220,0.00046185,0.000044934,2.7998,0.021491,0.0000054283,0.0001649582
3503,10.1021/ja400069s,105,6(a),381,Pb0.98Ba0.01Na0.01Se1,Pb0.98Ba0.01Na0.01Se1,403,183850,0.00046284,0.000045051,2.7966,0.022462,0.0000054392,0.000165501
3503,10.1021/ja400069s,105,6(a),381,Pb0.98Ba0.01Na0.01Se1,Pb0.98Ba0.01Na0.01Se1,403.5,183480,0.00046384,0.000045168,2.7934,0.023433,0.0000054502,0.0001660485
3503,10.1021/ja400069s,105,6(a),381,Pb0.98Ba0.01Na0.01Se1,Pb0.98Ba0.01Na0.01Se1,404,183110,0.00046483,0.000045286,2.7901,0.024404,0.0000054612,0.0001665998
3503,10.1021/ja400069s,105,6(a),381,Pb0.98Ba0.01Na0.01Se1,Pb0.98Ba0.01Na0.01Se1,404.5,182740,0.00046582,0.000045404,2.7869,0.025376,0.0000054723,0.0001671463
3503,10.1021/ja400069s,105,6(a),381,Pb0.98Ba0.01Na0.01Se1,Pb0.98Ba0.01Na0.01Se1,405,182370,0.00046681,0.000045523,2.7837,0.026347,0.0000054834,0.0001676941
3503,10.1021/ja400069s,105,6(a),381,Pb0.98Ba0.01Na0.01Se1,Pb0.98Ba0.01Na0.01Se1,405.5,182000,0.0004678,0.000045642,2.7805,0.027318,0.0000054945,0.0001682431
3503,10.1021/ja400069s,105,6(a),381,Pb0.98Ba0.01Na0.01Se1,Pb0.98Ba0.01Na0.01Se1,406,181640,0.00046879,0.000045761,2.7773,0.02829,0.0000055054,0.0001687934
3503,10.1021/ja400069s,105,6(a),381,Pb0.98Ba0.01Na0.01Se1,Pb0.98Ba0.01Na0.01Se1,406.5,181270,0.00046979,0.00004588,2.7741,0.029261,0.0000055166,0.0001693486
3503,10.1021/ja400069s,105,6(a),381,Pb0.98Ba0.01Na0.01Se1,Pb0.98Ba0.01Na0.01Se1,407,180900,0.00047078,0.000046,2.7709,0.030232,0.0000055279,0.0001699015
3503,10.1021/ja400069s,105,6(a),381,Pb0.98Ba0.01Na0.01Se1,Pb0.98Ba0.01Na0.01Se1,407.5,180540,0.00047177,0.00004612,2.7677,0.031203,0.0000055389,0.0001704556
3503,10.1021/ja400069s,105,6(a),381,Pb0.98Ba0.01Na0.01Se1,Pb0.98Ba0.01Na0.01Se1,408,180170,0.00047276,0.00004624,2.7645,0.032175,0.0000055503,0.000171011
3503,10.1021/ja400069s,105,6(a),381,Pb0.98Ba0.01Na0.01Se1,Pb0.98Ba0.01Na0.01Se1,408.5,179810,0.00047375,0.00004636,2.7613,0.033146,0.0000055614,0.0001715677
3503,10.1021/ja400069s,105,6(a),381,Pb0.98Ba0.01Na0.01Se1,Pb0.98Ba0.01Na0.01Se1,409,179440,0.00047475,0.000046481,2.7581,0.034117,0.0000055729,0.0001721294
3503,10.1021/ja400069s,105,6(a),381,Pb0.98Ba0.01Na0.01Se1,Pb0.98Ba0.01Na0.01Se1,409.5,179080,0.00047574,0.000046602,2.7549,0.035088,0.0000055841,0.0001726887
3503,10.1021/ja400069s,105,6(a),381,Pb0.98Ba0.01Na0.01Se1,Pb0.98Ba0.01Na0.01Se1,410,178720,0.00047673,0.000046724,2.7517,0.03606,0.0000055953,0.0001732493
3503,10.1021/ja400069s,105,6(a),381,Pb0.98Ba0.01Na0.01Se1,Pb0.98Ba0.01Na0.01Se1,410.5,178350,0.00047772,0.000046845,2.7485,0.037031,0.000005607,0.0001738112
3503,10.1021/ja400069s,105,6(a),381,Pb0.98Ba0.01Na0.01Se1,Pb0.98Ba0.01Na0.01Se1,411,177990,0.00047871,0.000046967,2.7453,0.038002,0.0000056183,0.0001743744
3503,10.1021/ja400069s,105,6(a),381,Pb0.98Ba0.01Na0.01Se1,Pb0.98Ba0.01Na0.01Se1,411.5,177630,0.00047971,0.00004709,2.7421,0.038973,0.0000056297,0.0001749426
3503,10.1021/ja400069s,105,6(a),381,Pb0.98Ba0.01Na0.01Se1,Pb0.98Ba0.01Na0.01Se1,412,177270,0.0004807,0.000047212,2.739,0.039945,0.0000056411,0.000175502
3503,10.1021/ja400069s,105,6(a),381,Pb0.98Ba0.01Na0.01Se1,Pb0.98Ba0.01Na0.01Se1,412.5,176910,0.00048169,0.000047335,2.7358,0.040916,0.0000056526,0.0001760692
3503,10.1021/ja400069s,105,6(a),381,Pb0.98Ba0.01Na0.01Se1,Pb0.98Ba0.01Na0.01Se1,413,176550,0.00048268,0.000047458,2.7326,0.041887,0.0000056641,0.0001766376
3503,10.1021/ja400069s,105,6(a),381,Pb0.98Ba0.01Na0.01Se1,Pb0.98Ba0.01Na0.01Se1,413.5,176190,0.00048367,0.000047581,2.7294,0.042858,0.0000056757,0.0001772074