sid,DOI,figureid,fignum,sampleid,samplename,composition,Temperature,Electrical conductivity,Power factor,Seebeck coefficient,Thermal conductivity,ZT,Electrical resistivity,Figure of merit Z
3503,10.1021/ja400069s,105,6(a),203,Pb0.96Ba0.03Na0.01Se1,Pb0.96Ba0.03Na0.01Se1,520,82041,0.00078856,0.00010017,1.5929,0.35484,0.000012189,0.0004950468
3503,10.1021/ja400069s,105,6(a),203,Pb0.96Ba0.03Na0.01Se1,Pb0.96Ba0.03Na0.01Se1,520.5,81886,0.00078943,0.00010037,1.5914,0.35592,0.0000122121,0.0004960601
3503,10.1021/ja400069s,105,6(a),203,Pb0.96Ba0.03Na0.01Se1,Pb0.96Ba0.03Na0.01Se1,521,81732,0.00079029,0.00010058,1.5899,0.35699,0.0000122351,0.000497069
3503,10.1021/ja400069s,105,6(a),203,Pb0.96Ba0.03Na0.01Se1,Pb0.96Ba0.03Na0.01Se1,521.5,81578,0.00079115,0.00010078,1.5883,0.35807,0.0000122582,0.0004981112
3503,10.1021/ja400069s,105,6(a),203,Pb0.96Ba0.03Na0.01Se1,Pb0.96Ba0.03Na0.01Se1,522,81424,0.00079202,0.00010098,1.5868,0.35915,0.0000122814,0.0004991303
3503,10.1021/ja400069s,105,6(a),203,Pb0.96Ba0.03Na0.01Se1,Pb0.96Ba0.03Na0.01Se1,522.5,81271,0.00079288,0.00010118,1.5853,0.36022,0.0000123045,0.0005001451
3503,10.1021/ja400069s,105,6(a),203,Pb0.96Ba0.03Na0.01Se1,Pb0.96Ba0.03Na0.01Se1,523,81118,0.00079374,0.00010138,1.5838,0.3613,0.0000123277,0.0005011618
3503,10.1021/ja400069s,105,6(a),203,Pb0.96Ba0.03Na0.01Se1,Pb0.96Ba0.03Na0.01Se1,523.5,80965,0.00079461,0.00010158,1.5823,0.36237,0.000012351,0.0005021867
3503,10.1021/ja400069s,105,6(a),203,Pb0.96Ba0.03Na0.01Se1,Pb0.96Ba0.03Na0.01Se1,524,80812,0.00079547,0.00010179,1.5807,0.36345,0.0000123744,0.0005032391
3503,10.1021/ja400069s,105,6(a),203,Pb0.96Ba0.03Na0.01Se1,Pb0.96Ba0.03Na0.01Se1,524.5,80659,0.00079633,0.00010199,1.5792,0.36453,0.0000123979,0.0005042617
3503,10.1021/ja400069s,105,6(a),203,Pb0.96Ba0.03Na0.01Se1,Pb0.96Ba0.03Na0.01Se1,525,80507,0.00079719,0.00010219,1.5777,0.3656,0.0000124213,0.0005052862
3503,10.1021/ja400069s,105,6(a),203,Pb0.96Ba0.03Na0.01Se1,Pb0.96Ba0.03Na0.01Se1,525.5,80354,0.00079806,0.00010239,1.5762,0.36668,0.0000124449,0.000506319
3503,10.1021/ja400069s,105,6(a),203,Pb0.96Ba0.03Na0.01Se1,Pb0.96Ba0.03Na0.01Se1,526,80202,0.00079892,0.0001026,1.5747,0.36775,0.0000124685,0.0005073474
3503,10.1021/ja400069s,105,6(a),203,Pb0.96Ba0.03Na0.01Se1,Pb0.96Ba0.03Na0.01Se1,526.5,80051,0.00079978,0.0001028,1.5732,0.36883,0.000012492,0.0005083778
3503,10.1021/ja400069s,105,6(a),203,Pb0.96Ba0.03Na0.01Se1,Pb0.96Ba0.03Na0.01Se1,527,79899,0.00080065,0.000103,1.5717,0.36991,0.0000125158,0.0005094166
3503,10.1021/ja400069s,105,6(a),203,Pb0.96Ba0.03Na0.01Se1,Pb0.96Ba0.03Na0.01Se1,527.5,79747,0.00080151,0.00010321,1.5702,0.37098,0.0000125397,0.0005104509
3503,10.1021/ja400069s,105,6(a),203,Pb0.96Ba0.03Na0.01Se1,Pb0.96Ba0.03Na0.01Se1,528,79596,0.00080237,0.00010341,1.5687,0.37206,0.0000125634,0.0005114872
3503,10.1021/ja400069s,105,6(a),203,Pb0.96Ba0.03Na0.01Se1,Pb0.96Ba0.03Na0.01Se1,528.5,79445,0.00080324,0.00010362,1.5672,0.37313,0.0000125873,0.0005125319
3503,10.1021/ja400069s,105,6(a),203,Pb0.96Ba0.03Na0.01Se1,Pb0.96Ba0.03Na0.01Se1,529,79295,0.0008041,0.00010382,1.5657,0.37421,0.0000126111,0.0005135722
3503,10.1021/ja400069s,105,6(a),203,Pb0.96Ba0.03Na0.01Se1,Pb0.96Ba0.03Na0.01Se1,529.5,79144,0.00080496,0.00010402,1.5642,0.37529,0.0000126352,0.0005146145
3503,10.1021/ja400069s,105,6(a),203,Pb0.96Ba0.03Na0.01Se1,Pb0.96Ba0.03Na0.01Se1,530,78994,0.00080583,0.00010423,1.5627,0.37636,0.0000126592,0.0005156652
3503,10.1021/ja400069s,105,6(a),203,Pb0.96Ba0.03Na0.01Se1,Pb0.96Ba0.03Na0.01Se1,530.5,78843,0.00080669,0.00010443,1.5613,0.37744,0.0000126834,0.0005166784
3503,10.1021/ja400069s,105,6(a),203,Pb0.96Ba0.03Na0.01Se1,Pb0.96Ba0.03Na0.01Se1,531,78693,0.00080755,0.00010464,1.5598,0.37851,0.0000127076,0.0005177266
3503,10.1021/ja400069s,105,6(a),203,Pb0.96Ba0.03Na0.01Se1,Pb0.96Ba0.03Na0.01Se1,531.5,78544,0.00080842,0.00010484,1.5583,0.37959,0.0000127317,0.0005187833
3503,10.1021/ja400069s,105,6(a),203,Pb0.96Ba0.03Na0.01Se1,Pb0.96Ba0.03Na0.01Se1,532,78394,0.00080928,0.00010505,1.5568,0.38067,0.0000127561,0.0005198356
3503,10.1021/ja400069s,105,6(a),203,Pb0.96Ba0.03Na0.01Se1,Pb0.96Ba0.03Na0.01Se1,532.5,78245,0.00081014,0.00010526,1.5553,0.38174,0.0000127804,0.0005208899
3503,10.1021/ja400069s,105,6(a),203,Pb0.96Ba0.03Na0.01Se1,Pb0.96Ba0.03Na0.01Se1,533,78096,0.00081101,0.00010546,1.5539,0.38282,0.0000128048,0.000521919
3503,10.1021/ja400069s,105,6(a),203,Pb0.96Ba0.03Na0.01Se1,Pb0.96Ba0.03Na0.01Se1,533.5,77947,0.00081187,0.00010567,1.5524,0.38389,0.0000128292,0.0005229773
3503,10.1021/ja400069s,105,6(a),203,Pb0.96Ba0.03Na0.01Se1,Pb0.96Ba0.03Na0.01Se1,534,77798,0.00081273,0.00010587,1.5509,0.38497,0.0000128538,0.0005240377
3503,10.1021/ja400069s,105,6(a),203,Pb0.96Ba0.03Na0.01Se1,Pb0.96Ba0.03Na0.01Se1,534.5,77649,0.0008136,0.00010608,1.5494,0.38605,0.0000128785,0.0005251065
3503,10.1021/ja400069s,105,6(a),203,Pb0.96Ba0.03Na0.01Se1,Pb0.96Ba0.03Na0.01Se1,535,77501,0.00081446,0.00010629,1.548,0.38712,0.0000129031,0.000526137
3503,10.1021/ja400069s,105,6(a),203,Pb0.96Ba0.03Na0.01Se1,Pb0.96Ba0.03Na0.01Se1,535.5,77353,0.00081532,0.00010649,1.5465,0.3882,0.0000129277,0.0005272034
3503,10.1021/ja400069s,105,6(a),203,Pb0.96Ba0.03Na0.01Se1,Pb0.96Ba0.03Na0.01Se1,536,77205,0.00081619,0.0001067,1.5451,0.38927,0.0000129525,0.0005282441
3503,10.1021/ja400069s,105,6(a),203,Pb0.96Ba0.03Na0.01Se1,Pb0.96Ba0.03Na0.01Se1,536.5,77057,0.00081705,0.00010691,1.5436,0.39035,0.0000129774,0.0005293146
3503,10.1021/ja400069s,105,6(a),203,Pb0.96Ba0.03Na0.01Se1,Pb0.96Ba0.03Na0.01Se1,537,76910,0.00081791,0.00010712,1.5421,0.39143,0.0000130022,0.0005303871
3503,10.1021/ja400069s,105,6(a),203,Pb0.96Ba0.03Na0.01Se1,Pb0.96Ba0.03Na0.01Se1,537.5,76763,0.00081878,0.00010732,1.5407,0.3925,0.0000130271,0.0005314338
3503,10.1021/ja400069s,105,6(a),203,Pb0.96Ba0.03Na0.01Se1,Pb0.96Ba0.03Na0.01Se1,538,76616,0.00081964,0.00010753,1.5392,0.39358,0.0000130521,0.0005325104
3503,10.1021/ja400069s,105,6(a),203,Pb0.96Ba0.03Na0.01Se1,Pb0.96Ba0.03Na0.01Se1,538.5,76469,0.0008205,0.00010774,1.5378,0.39465,0.0000130772,0.0005335544
3503,10.1021/ja400069s,105,6(a),203,Pb0.96Ba0.03Na0.01Se1,Pb0.96Ba0.03Na0.01Se1,539,76322,0.00082137,0.00010795,1.5363,0.39573,0.0000131024,0.0005346417
3503,10.1021/ja400069s,105,6(a),203,Pb0.96Ba0.03Na0.01Se1,Pb0.96Ba0.03Na0.01Se1,539.5,76176,0.00082223,0.00010816,1.5349,0.39681,0.0000131275,0.0005356896
3503,10.1021/ja400069s,105,6(a),203,Pb0.96Ba0.03Na0.01Se1,Pb0.96Ba0.03Na0.01Se1,540,76029,0.00082309,0.00010837,1.5334,0.39788,0.0000131529,0.0005367745
3503,10.1021/ja400069s,105,6(a),203,Pb0.96Ba0.03Na0.01Se1,Pb0.96Ba0.03Na0.01Se1,540.5,75883,0.00082396,0.00010857,1.532,0.39896,0.0000131782,0.0005378329
3503,10.1021/ja400069s,105,6(a),203,Pb0.96Ba0.03Na0.01Se1,Pb0.96Ba0.03Na0.01Se1,541,75737,0.00082482,0.00010878,1.5306,0.40003,0.0000132036,0.0005388867
3503,10.1021/ja400069s,105,6(a),203,Pb0.96Ba0.03Na0.01Se1,Pb0.96Ba0.03Na0.01Se1,541.5,75592,0.00082568,0.00010899,1.5291,0.40111,0.0000132289,0.0005399778
3503,10.1021/ja400069s,105,6(a),203,Pb0.96Ba0.03Na0.01Se1,Pb0.96Ba0.03Na0.01Se1,542,75446,0.00082655,0.0001092,1.5277,0.40219,0.0000132545,0.0005410421
3503,10.1021/ja400069s,105,6(a),203,Pb0.96Ba0.03Na0.01Se1,Pb0.96Ba0.03Na0.01Se1,542.5,75301,0.00082741,0.00010941,1.5263,0.40326,0.00001328,0.0005421018
3503,10.1021/ja400069s,105,6(a),203,Pb0.96Ba0.03Na0.01Se1,Pb0.96Ba0.03Na0.01Se1,543,75156,0.00082827,0.00010962,1.5248,0.40434,0.0000133057,0.0005431991
3503,10.1021/ja400069s,105,6(a),203,Pb0.96Ba0.03Na0.01Se1,Pb0.96Ba0.03Na0.01Se1,543.5,75011,0.00082914,0.00010983,1.5234,0.40541,0.0000133314,0.0005442694
3503,10.1021/ja400069s,105,6(a),203,Pb0.96Ba0.03Na0.01Se1,Pb0.96Ba0.03Na0.01Se1,544,74867,0.00083,0.00011004,1.522,0.40649,0.000013357,0.0005453351
3503,10.1021/ja400069s,105,6(a),203,Pb0.96Ba0.03Na0.01Se1,Pb0.96Ba0.03Na0.01Se1,544.5,74722,0.00083086,0.00011025,1.5205,0.40757,0.0000133829,0.0005464387
3503,10.1021/ja400069s,105,6(a),203,Pb0.96Ba0.03Na0.01Se1,Pb0.96Ba0.03Na0.01Se1,545,74578,0.00083173,0.00011046,1.5191,0.40864,0.0000134088,0.000547515
3503,10.1021/ja400069s,105,6(a),203,Pb0.96Ba0.03Na0.01Se1,Pb0.96Ba0.03Na0.01Se1,545.5,74434,0.00083259,0.00011067,1.5177,0.40972,0.0000134347,0.0005485867
3503,10.1021/ja400069s,105,6(a),203,Pb0.96Ba0.03Na0.01Se1,Pb0.96Ba0.03Na0.01Se1,546,74290,0.00083345,0.00011088,1.5163,0.41079,0.0000134608,0.0005496604
3503,10.1021/ja400069s,105,6(a),203,Pb0.96Ba0.03Na0.01Se1,Pb0.96Ba0.03Na0.01Se1,546.5,74147,0.00083432,0.00011109,1.5149,0.41187,0.0000134867,0.0005507426
3503,10.1021/ja400069s,105,6(a),203,Pb0.96Ba0.03Na0.01Se1,Pb0.96Ba0.03Na0.01Se1,547,74003,0.00083518,0.00011131,1.5135,0.41295,0.000013513,0.0005518203
3503,10.1021/ja400069s,105,6(a),203,Pb0.96Ba0.03Na0.01Se1,Pb0.96Ba0.03Na0.01Se1,547.5,73860,0.00083604,0.00011152,1.512,0.41402,0.0000135391,0.0005529365
3503,10.1021/ja400069s,105,6(a),203,Pb0.96Ba0.03Na0.01Se1,Pb0.96Ba0.03Na0.01Se1,548,73717,0.00083691,0.00011173,1.5106,0.4151,0.0000135654,0.0005540249
3503,10.1021/ja400069s,105,6(a),203,Pb0.96Ba0.03Na0.01Se1,Pb0.96Ba0.03Na0.01Se1,548.5,73574,0.00083777,0.00011194,1.5092,0.41617,0.0000135918,0.0005551087
3503,10.1021/ja400069s,105,6(a),203,Pb0.96Ba0.03Na0.01Se1,Pb0.96Ba0.03Na0.01Se1,549,73432,0.00083863,0.00011215,1.5078,0.41725,0.000013618,0.0005561945
3503,10.1021/ja400069s,105,6(a),203,Pb0.96Ba0.03Na0.01Se1,Pb0.96Ba0.03Na0.01Se1,549.5,73289,0.00083949,0.00011236,1.5064,0.41833,0.0000136446,0.0005572823
3503,10.1021/ja400069s,105,6(a),203,Pb0.96Ba0.03Na0.01Se1,Pb0.96Ba0.03Na0.01Se1,550,73147,0.00084036,0.00011258,1.505,0.4194,0.0000136711,0.0005583787
3503,10.1021/ja400069s,105,6(a),203,Pb0.96Ba0.03Na0.01Se1,Pb0.96Ba0.03Na0.01Se1,550.5,73005,0.00084122,0.00011279,1.5036,0.42048,0.0000136977,0.0005594706
3503,10.1021/ja400069s,105,6(a),203,Pb0.96Ba0.03Na0.01Se1,Pb0.96Ba0.03Na0.01Se1,551,72863,0.00084208,0.000113,1.5022,0.42155,0.0000137244,0.0005605645
3503,10.1021/ja400069s,105,6(a),203,Pb0.96Ba0.03Na0.01Se1,Pb0.96Ba0.03Na0.01Se1,551.5,72722,0.00084295,0.00011321,1.5008,0.42263,0.000013751,0.0005616671
3503,10.1021/ja400069s,105,6(a),203,Pb0.96Ba0.03Na0.01Se1,Pb0.96Ba0.03Na0.01Se1,552,72580,0.00084381,0.00011343,1.4994,0.42371,0.0000137779,0.0005627651
3503,10.1021/ja400069s,105,6(a),203,Pb0.96Ba0.03Na0.01Se1,Pb0.96Ba0.03Na0.01Se1,552.5,72439,0.00084467,0.00011364,1.498,0.42478,0.0000138047,0.0005638652
3503,10.1021/ja400069s,105,6(a),203,Pb0.96Ba0.03Na0.01Se1,Pb0.96Ba0.03Na0.01Se1,553,72298,0.00084554,0.00011385,1.4967,0.42586,0.0000138316,0.0005649362
3503,10.1021/ja400069s,105,6(a),203,Pb0.96Ba0.03Na0.01Se1,Pb0.96Ba0.03Na0.01Se1,553.5,72157,0.0008464,0.00011407,1.4953,0.42693,0.0000138587,0.0005660403
3503,10.1021/ja400069s,105,6(a),203,Pb0.96Ba0.03Na0.01Se1,Pb0.96Ba0.03Na0.01Se1,554,72017,0.00084726,0.00011428,1.4939,0.42801,0.0000138856,0.0005671464
3503,10.1021/ja400069s,105,6(a),203,Pb0.96Ba0.03Na0.01Se1,Pb0.96Ba0.03Na0.01Se1,554.5,71876,0.00084813,0.00011449,1.4925,0.42909,0.0000139128,0.0005682613
3503,10.1021/ja400069s,105,6(a),203,Pb0.96Ba0.03Na0.01Se1,Pb0.96Ba0.03Na0.01Se1,555,71736,0.00084899,0.00011471,1.4911,0.43016,0.00001394,0.0005693716
3503,10.1021/ja400069s,105,6(a),203,Pb0.96Ba0.03Na0.01Se1,Pb0.96Ba0.03Na0.01Se1,555.5,71596,0.00084985,0.00011492,1.4897,0.43124,0.0000139673,0.000570484
3503,10.1021/ja400069s,105,6(a),203,Pb0.96Ba0.03Na0.01Se1,Pb0.96Ba0.03Na0.01Se1,556,71456,0.00085072,0.00011513,1.4884,0.43231,0.0000139946,0.0005715668
3503,10.1021/ja400069s,105,6(a),203,Pb0.96Ba0.03Na0.01Se1,Pb0.96Ba0.03Na0.01Se1,556.5,71317,0.00085158,0.00011535,1.487,0.43339,0.0000140219,0.0005726833
3503,10.1021/ja400069s,105,6(a),203,Pb0.96Ba0.03Na0.01Se1,Pb0.96Ba0.03Na0.01Se1,557,71177,0.00085244,0.00011556,1.4856,0.43447,0.0000140495,0.0005738018
3503,10.1021/ja400069s,105,6(a),203,Pb0.96Ba0.03Na0.01Se1,Pb0.96Ba0.03Na0.01Se1,557.5,71038,0.00085331,0.00011578,1.4842,0.43554,0.000014077,0.0005749293
3503,10.1021/ja400069s,105,6(a),203,Pb0.96Ba0.03Na0.01Se1,Pb0.96Ba0.03Na0.01Se1,558,70899,0.00085417,0.00011599,1.4829,0.43662,0.0000141046,0.0005760132
3503,10.1021/ja400069s,105,6(a),203,Pb0.96Ba0.03Na0.01Se1,Pb0.96Ba0.03Na0.01Se1,558.5,70760,0.00085503,0.00011621,1.4815,0.43769,0.0000141323,0.000577138
3503,10.1021/ja400069s,105,6(a),203,Pb0.96Ba0.03Na0.01Se1,Pb0.96Ba0.03Na0.01Se1,559,70622,0.0008559,0.00011642,1.4801,0.43877,0.0000141599,0.0005782717
3503,10.1021/ja400069s,105,6(a),203,Pb0.96Ba0.03Na0.01Se1,Pb0.96Ba0.03Na0.01Se1,559.5,70484,0.00085676,0.00011664,1.4788,0.43985,0.0000141876,0.0005793616
3503,10.1021/ja400069s,105,6(a),203,Pb0.96Ba0.03Na0.01Se1,Pb0.96Ba0.03Na0.01Se1,560,70345,0.00085762,0.00011685,1.4774,0.44092,0.0000142157,0.0005804928
3503,10.1021/ja400069s,105,6(a),203,Pb0.96Ba0.03Na0.01Se1,Pb0.96Ba0.03Na0.01Se1,560.5,70207,0.00085849,0.00011707,1.4761,0.442,0.0000142436,0.0005815934
3503,10.1021/ja400069s,105,6(a),203,Pb0.96Ba0.03Na0.01Se1,Pb0.96Ba0.03Na0.01Se1,561,70070,0.00085935,0.00011728,1.4747,0.44307,0.0000142714,0.0005827287
3503,10.1021/ja400069s,105,6(a),203,Pb0.96Ba0.03Na0.01Se1,Pb0.96Ba0.03Na0.01Se1,561.5,69932,0.00086021,0.0001175,1.4734,0.44415,0.0000142996,0.0005838265
3503,10.1021/ja400069s,105,6(a),203,Pb0.96Ba0.03Na0.01Se1,Pb0.96Ba0.03Na0.01Se1,562,69795,0.00086108,0.00011772,1.472,0.44522,0.0000143277,0.0005849728
3503,10.1021/ja400069s,105,6(a),203,Pb0.96Ba0.03Na0.01Se1,Pb0.96Ba0.03Na0.01Se1,562.5,69657,0.00086194,0.00011793,1.4707,0.4463,0.0000143561,0.0005860747
3503,10.1021/ja400069s,105,6(a),203,Pb0.96Ba0.03Na0.01Se1,Pb0.96Ba0.03Na0.01Se1,563,69520,0.0008628,0.00011815,1.4693,0.44738,0.0000143843,0.0005872184
3503,10.1021/ja400069s,105,6(a),203,Pb0.96Ba0.03Na0.01Se1,Pb0.96Ba0.03Na0.01Se1,563.5,69384,0.00086367,0.00011836,1.468,0.44845,0.0000144125,0.0005883311
3503,10.1021/ja400069s,105,6(a),203,Pb0.96Ba0.03Na0.01Se1,Pb0.96Ba0.03Na0.01Se1,564,69247,0.00086453,0.00011858,1.4666,0.44953,0.0000144411,0.0005894791
3503,10.1021/ja400069s,105,6(a),203,Pb0.96Ba0.03Na0.01Se1,Pb0.96Ba0.03Na0.01Se1,564.5,69111,0.00086539,0.0001188,1.4653,0.4506,0.0000144695,0.000590589
3503,10.1021/ja400069s,105,6(a),203,Pb0.96Ba0.03Na0.01Se1,Pb0.96Ba0.03Na0.01Se1,565,68975,0.00086626,0.00011901,1.4639,0.45168,0.000014498,0.0005917481
3503,10.1021/ja400069s,105,6(a),203,Pb0.96Ba0.03Na0.01Se1,Pb0.96Ba0.03Na0.01Se1,565.5,68839,0.00086712,0.00011923,1.4626,0.45276,0.0000145266,0.000592862
3503,10.1021/ja400069s,105,6(a),203,Pb0.96Ba0.03Na0.01Se1,Pb0.96Ba0.03Na0.01Se1,566,68703,0.00086798,0.00011945,1.4613,0.45383,0.0000145554,0.000593978
3503,10.1021/ja400069s,105,6(a),203,Pb0.96Ba0.03Na0.01Se1,Pb0.96Ba0.03Na0.01Se1,566.5,68567,0.00086885,0.00011966,1.4599,0.45491,0.0000145843,0.0005951435
3503,10.1021/ja400069s,105,6(a),203,Pb0.96Ba0.03Na0.01Se1,Pb0.96Ba0.03Na0.01Se1,567,68432,0.00086971,0.00011988,1.4586,0.45598,0.000014613,0.0005962635
3503,10.1021/ja400069s,105,6(a),203,Pb0.96Ba0.03Na0.01Se1,Pb0.96Ba0.03Na0.01Se1,567.5,68297,0.00087057,0.0001201,1.4573,0.45706,0.0000146419,0.0005973856
3503,10.1021/ja400069s,105,6(a),203,Pb0.96Ba0.03Na0.01Se1,Pb0.96Ba0.03Na0.01Se1,568,68162,0.00087144,0.00012032,1.4559,0.45814,0.0000146709,0.0005985576
3503,10.1021/ja400069s,105,6(a),203,Pb0.96Ba0.03Na0.01Se1,Pb0.96Ba0.03Na0.01Se1,568.5,68027,0.0008723,0.00012053,1.4546,0.45921,0.0000147,0.0005996838
3503,10.1021/ja400069s,105,6(a),203,Pb0.96Ba0.03Na0.01Se1,Pb0.96Ba0.03Na0.01Se1,569,67892,0.00087316,0.00012075,1.4533,0.46029,0.0000147293,0.0006008119
3503,10.1021/ja400069s,105,6(a),203,Pb0.96Ba0.03Na0.01Se1,Pb0.96Ba0.03Na0.01Se1,569.5,67758,0.00087403,0.00012097,1.452,0.46136,0.0000147584,0.000601949
3503,10.1021/ja400069s,105,6(a),203,Pb0.96Ba0.03Na0.01Se1,Pb0.96Ba0.03Na0.01Se1,570,67624,0.00087489,0.00012119,1.4506,0.46244,0.0000147876,0.0006031228
3503,10.1021/ja400069s,105,6(a),203,Pb0.96Ba0.03Na0.01Se1,Pb0.96Ba0.03Na0.01Se1,570.5,67490,0.00087575,0.00012141,1.4493,0.46352,0.000014817,0.0006042572
3503,10.1021/ja400069s,105,6(a),203,Pb0.96Ba0.03Na0.01Se1,Pb0.96Ba0.03Na0.01Se1,571,67356,0.00087662,0.00012162,1.448,0.46459,0.0000148465,0.0006054006
3503,10.1021/ja400069s,105,6(a),203,Pb0.96Ba0.03Na0.01Se1,Pb0.96Ba0.03Na0.01Se1,571.5,67222,0.00087748,0.00012184,1.4467,0.46567,0.0000148761,0.000606539
3503,10.1021/ja400069s,105,6(a),203,Pb0.96Ba0.03Na0.01Se1,Pb0.96Ba0.03Na0.01Se1,572,67089,0.00087834,0.00012206,1.4454,0.46674,0.0000149056,0.0006076795
3503,10.1021/ja400069s,105,6(a),203,Pb0.96Ba0.03Na0.01Se1,Pb0.96Ba0.03Na0.01Se1,572.5,66956,0.00087921,0.00012228,1.4441,0.46782,0.0000149352,0.000608829
3503,10.1021/ja400069s,105,6(a),203,Pb0.96Ba0.03Na0.01Se1,Pb0.96Ba0.03Na0.01Se1,573,66823,0.00088007,0.0001225,1.4428,0.4689,0.0000149649,0.0006099737
3503,10.1021/ja400069s,105,6(a),203,Pb0.96Ba0.03Na0.01Se1,Pb0.96Ba0.03Na0.01Se1,573.5,66690,0.00088093,0.00012272,1.4414,0.46997,0.0000149948,0.0006111628
3503,10.1021/ja400069s,105,6(a),203,Pb0.96Ba0.03Na0.01Se1,Pb0.96Ba0.03Na0.01Se1,574,66557,0.00088179,0.00012294,1.4401,0.47105,0.0000150247,0.0006123116
3503,10.1021/ja400069s,105,6(a),203,Pb0.96Ba0.03Na0.01Se1,Pb0.96Ba0.03Na0.01Se1,574.5,66425,0.00088266,0.00012315,1.4388,0.47212,0.0000150546,0.0006134696
3503,10.1021/ja400069s,105,6(a),203,Pb0.96Ba0.03Na0.01Se1,Pb0.96Ba0.03Na0.01Se1,575,66292,0.00088352,0.00012337,1.4375,0.4732,0.0000150848,0.0006146226
3503,10.1021/ja400069s,105,6(a),203,Pb0.96Ba0.03Na0.01Se1,Pb0.96Ba0.03Na0.01Se1,575.5,66160,0.00088438,0.00012359,1.4362,0.47428,0.0000151149,0.0006157777
3503,10.1021/ja400069s,105,6(a),203,Pb0.96Ba0.03Na0.01Se1,Pb0.96Ba0.03Na0.01Se1,576,66028,0.00088525,0.00012381,1.4349,0.47535,0.0000151451,0.0006169419
3503,10.1021/ja400069s,105,6(a),203,Pb0.96Ba0.03Na0.01Se1,Pb0.96Ba0.03Na0.01Se1,576.5,65897,0.00088611,0.00012403,1.4336,0.47643,0.0000151752,0.0006181013
3503,10.1021/ja400069s,105,6(a),203,Pb0.96Ba0.03Na0.01Se1,Pb0.96Ba0.03Na0.01Se1,577,65765,0.00088697,0.00012425,1.4323,0.4775,0.0000152057,0.0006192627
3503,10.1021/ja400069s,105,6(a),203,Pb0.96Ba0.03Na0.01Se1,Pb0.96Ba0.03Na0.01Se1,577.5,65634,0.00088784,0.00012447,1.4311,0.47858,0.000015236,0.0006203899
3503,10.1021/ja400069s,105,6(a),203,Pb0.96Ba0.03Na0.01Se1,Pb0.96Ba0.03Na0.01Se1,578,65503,0.0008887,0.00012469,1.4298,0.47966,0.0000152665,0.0006215555
3503,10.1021/ja400069s,105,6(a),203,Pb0.96Ba0.03Na0.01Se1,Pb0.96Ba0.03Na0.01Se1,578.5,65372,0.00088956,0.00012491,1.4285,0.48073,0.0000152971,0.0006227231
3503,10.1021/ja400069s,105,6(a),203,Pb0.96Ba0.03Na0.01Se1,Pb0.96Ba0.03Na0.01Se1,579,65241,0.00089043,0.00012513,1.4272,0.48181,0.0000153278,0.0006238999
3503,10.1021/ja400069s,105,6(a),203,Pb0.96Ba0.03Na0.01Se1,Pb0.96Ba0.03Na0.01Se1,579.5,65111,0.00089129,0.00012535,1.4259,0.48288,0.0000153584,0.0006250719
3503,10.1021/ja400069s,105,6(a),203,Pb0.96Ba0.03Na0.01Se1,Pb0.96Ba0.03Na0.01Se1,580,64981,0.00089215,0.00012557,1.4246,0.48396,0.0000153891,0.000626246
3503,10.1021/ja400069s,105,6(a),203,Pb0.96Ba0.03Na0.01Se1,Pb0.96Ba0.03Na0.01Se1,580.5,64851,0.00089302,0.00012579,1.4233,0.48504,0.00001542,0.0006274292
3503,10.1021/ja400069s,105,6(a),203,Pb0.96Ba0.03Na0.01Se1,Pb0.96Ba0.03Na0.01Se1,581,64721,0.00089388,0.00012601,1.4221,0.48611,0.0000154509,0.0006285634
3503,10.1021/ja400069s,105,6(a),203,Pb0.96Ba0.03Na0.01Se1,Pb0.96Ba0.03Na0.01Se1,581.5,64591,0.00089474,0.00012623,1.4208,0.48719,0.000015482,0.0006297438
3503,10.1021/ja400069s,105,6(a),203,Pb0.96Ba0.03Na0.01Se1,Pb0.96Ba0.03Na0.01Se1,582,64461,0.00089561,0.00012645,1.4195,0.48826,0.0000155133,0.0006309334
3503,10.1021/ja400069s,105,6(a),203,Pb0.96Ba0.03Na0.01Se1,Pb0.96Ba0.03Na0.01Se1,582.5,64332,0.00089647,0.00012667,1.4182,0.48934,0.0000155444,0.0006321182
3503,10.1021/ja400069s,105,6(a),203,Pb0.96Ba0.03Na0.01Se1,Pb0.96Ba0.03Na0.01Se1,583,64203,0.00089733,0.00012689,1.417,0.49042,0.0000155756,0.0006332604
3503,10.1021/ja400069s,105,6(a),203,Pb0.96Ba0.03Na0.01Se1,Pb0.96Ba0.03Na0.01Se1,583.5,64074,0.0008982,0.00012711,1.4157,0.49149,0.000015607,0.0006344565
3503,10.1021/ja400069s,105,6(a),203,Pb0.96Ba0.03Na0.01Se1,Pb0.96Ba0.03Na0.01Se1,584,63945,0.00089906,0.00012734,1.4144,0.49257,0.0000156384,0.0006356476