sid,DOI,figureid,fignum,sampleid,samplename,composition,Temperature,Electrical conductivity,Power factor,Seebeck coefficient,Thermal conductivity,ZT,Electrical resistivity,Figure of merit Z
3503,10.1021/ja400069s,105,6(a),286,Pb0.98Sr0.01Na0.01Se1,Pb0.98Sr0.01Na0.01Se1,490.5,148150,0.00066826,0.000067046,2.4392,0.19074,0.0000067499,0.0002739669
3503,10.1021/ja400069s,105,6(a),286,Pb0.98Sr0.01Na0.01Se1,Pb0.98Sr0.01Na0.01Se1,491,147860,0.00066928,0.000067196,2.4364,0.19171,0.0000067632,0.0002747004
3503,10.1021/ja400069s,105,6(a),286,Pb0.98Sr0.01Na0.01Se1,Pb0.98Sr0.01Na0.01Se1,491.5,147570,0.00067029,0.000067346,2.4335,0.19269,0.0000067764,0.0002754428
3503,10.1021/ja400069s,105,6(a),286,Pb0.98Sr0.01Na0.01Se1,Pb0.98Sr0.01Na0.01Se1,492,147280,0.00067131,0.000067496,2.4307,0.19366,0.0000067898,0.0002761797
3503,10.1021/ja400069s,105,6(a),286,Pb0.98Sr0.01Na0.01Se1,Pb0.98Sr0.01Na0.01Se1,492.5,146990,0.00067232,0.000067646,2.4278,0.19464,0.0000068032,0.0002769256
3503,10.1021/ja400069s,105,6(a),286,Pb0.98Sr0.01Na0.01Se1,Pb0.98Sr0.01Na0.01Se1,493,146700,0.00067334,0.000067797,2.425,0.19561,0.0000068166,0.000277666
3503,10.1021/ja400069s,105,6(a),286,Pb0.98Sr0.01Na0.01Se1,Pb0.98Sr0.01Na0.01Se1,493.5,146410,0.00067435,0.000067948,2.4222,0.19659,0.0000068301,0.0002784039
3503,10.1021/ja400069s,105,6(a),286,Pb0.98Sr0.01Na0.01Se1,Pb0.98Sr0.01Na0.01Se1,494,146120,0.00067537,0.000068099,2.4193,0.19756,0.0000068437,0.0002791593
3503,10.1021/ja400069s,105,6(a),286,Pb0.98Sr0.01Na0.01Se1,Pb0.98Sr0.01Na0.01Se1,494.5,145830,0.00067638,0.000068251,2.4165,0.19854,0.0000068573,0.0002799007
3503,10.1021/ja400069s,105,6(a),286,Pb0.98Sr0.01Na0.01Se1,Pb0.98Sr0.01Na0.01Se1,495,145540,0.0006774,0.000068403,2.4137,0.19951,0.000006871,0.000280648
3503,10.1021/ja400069s,105,6(a),286,Pb0.98Sr0.01Na0.01Se1,Pb0.98Sr0.01Na0.01Se1,495.5,145260,0.00067841,0.000068555,2.4108,0.20048,0.0000068842,0.0002814045
3503,10.1021/ja400069s,105,6(a),286,Pb0.98Sr0.01Na0.01Se1,Pb0.98Sr0.01Na0.01Se1,496,144970,0.00067943,0.000068707,2.408,0.20146,0.000006898,0.0002821553
3503,10.1021/ja400069s,105,6(a),286,Pb0.98Sr0.01Na0.01Se1,Pb0.98Sr0.01Na0.01Se1,496.5,144680,0.00068044,0.000068859,2.4052,0.20243,0.0000069118,0.0002829037
3503,10.1021/ja400069s,105,6(a),286,Pb0.98Sr0.01Na0.01Se1,Pb0.98Sr0.01Na0.01Se1,497,144400,0.00068146,0.000069012,2.4024,0.20341,0.0000069252,0.000283658
3503,10.1021/ja400069s,105,6(a),286,Pb0.98Sr0.01Na0.01Se1,Pb0.98Sr0.01Na0.01Se1,497.5,144110,0.00068248,0.000069165,2.3996,0.20438,0.0000069391,0.0002844141
3503,10.1021/ja400069s,105,6(a),286,Pb0.98Sr0.01Na0.01Se1,Pb0.98Sr0.01Na0.01Se1,498,143820,0.00068349,0.000069319,2.3967,0.20536,0.0000069531,0.0002851796
3503,10.1021/ja400069s,105,6(a),286,Pb0.98Sr0.01Na0.01Se1,Pb0.98Sr0.01Na0.01Se1,498.5,143540,0.00068451,0.000069472,2.3939,0.20633,0.0000069667,0.0002859393
3503,10.1021/ja400069s,105,6(a),286,Pb0.98Sr0.01Na0.01Se1,Pb0.98Sr0.01Na0.01Se1,499,143250,0.00068552,0.000069626,2.3911,0.20731,0.0000069808,0.0002866965
3503,10.1021/ja400069s,105,6(a),286,Pb0.98Sr0.01Na0.01Se1,Pb0.98Sr0.01Na0.01Se1,499.5,142970,0.00068654,0.00006978,2.3883,0.20828,0.0000069945,0.0002874597
3503,10.1021/ja400069s,105,6(a),286,Pb0.98Sr0.01Na0.01Se1,Pb0.98Sr0.01Na0.01Se1,500,142690,0.00068755,0.000069934,2.3855,0.20926,0.0000070082,0.0002882205
3503,10.1021/ja400069s,105,6(a),286,Pb0.98Sr0.01Na0.01Se1,Pb0.98Sr0.01Na0.01Se1,500.5,142400,0.00068857,0.000070089,2.3827,0.21023,0.0000070225,0.0002889873
3503,10.1021/ja400069s,105,6(a),286,Pb0.98Sr0.01Na0.01Se1,Pb0.98Sr0.01Na0.01Se1,501,142120,0.00068958,0.000070244,2.3799,0.21121,0.0000070363,0.0002897517
3503,10.1021/ja400069s,105,6(a),286,Pb0.98Sr0.01Na0.01Se1,Pb0.98Sr0.01Na0.01Se1,501.5,141840,0.0006906,0.000070399,2.3771,0.21218,0.0000070502,0.0002905221
3503,10.1021/ja400069s,105,6(a),286,Pb0.98Sr0.01Na0.01Se1,Pb0.98Sr0.01Na0.01Se1,502,141550,0.00069161,0.000070554,2.3744,0.21316,0.0000070646,0.0002912778
3503,10.1021/ja400069s,105,6(a),286,Pb0.98Sr0.01Na0.01Se1,Pb0.98Sr0.01Na0.01Se1,502.5,141270,0.00069263,0.00007071,2.3716,0.21413,0.0000070786,0.0002920518
3503,10.1021/ja400069s,105,6(a),286,Pb0.98Sr0.01Na0.01Se1,Pb0.98Sr0.01Na0.01Se1,503,140990,0.00069364,0.000070866,2.3688,0.21511,0.0000070927,0.0002928234
3503,10.1021/ja400069s,105,6(a),286,Pb0.98Sr0.01Na0.01Se1,Pb0.98Sr0.01Na0.01Se1,503.5,140710,0.00069466,0.000071022,2.366,0.21608,0.0000071068,0.000293601
3503,10.1021/ja400069s,105,6(a),286,Pb0.98Sr0.01Na0.01Se1,Pb0.98Sr0.01Na0.01Se1,504,140430,0.00069567,0.000071179,2.3632,0.21706,0.000007121,0.0002943763
3503,10.1021/ja400069s,105,6(a),286,Pb0.98Sr0.01Na0.01Se1,Pb0.98Sr0.01Na0.01Se1,504.5,140150,0.00069669,0.000071335,2.3605,0.21803,0.0000071352,0.0002951451
3503,10.1021/ja400069s,105,6(a),286,Pb0.98Sr0.01Na0.01Se1,Pb0.98Sr0.01Na0.01Se1,505,139870,0.0006977,0.000071492,2.3577,0.21901,0.0000071495,0.000295924
3503,10.1021/ja400069s,105,6(a),286,Pb0.98Sr0.01Na0.01Se1,Pb0.98Sr0.01Na0.01Se1,505.5,139590,0.00069872,0.000071649,2.3549,0.21998,0.0000071638,0.000296709
3503,10.1021/ja400069s,105,6(a),286,Pb0.98Sr0.01Na0.01Se1,Pb0.98Sr0.01Na0.01Se1,506,139310,0.00069974,0.000071807,2.3522,0.22096,0.0000071782,0.0002974832
3503,10.1021/ja400069s,105,6(a),286,Pb0.98Sr0.01Na0.01Se1,Pb0.98Sr0.01Na0.01Se1,506.5,139030,0.00070075,0.000071964,2.3494,0.22193,0.0000071927,0.0002982676
3503,10.1021/ja400069s,105,6(a),286,Pb0.98Sr0.01Na0.01Se1,Pb0.98Sr0.01Na0.01Se1,507,138750,0.00070177,0.000072122,2.3466,0.22291,0.0000072072,0.0002990582
3503,10.1021/ja400069s,105,6(a),286,Pb0.98Sr0.01Na0.01Se1,Pb0.98Sr0.01Na0.01Se1,507.5,138470,0.00070278,0.000072281,2.3439,0.22388,0.0000072218,0.0002998336
3503,10.1021/ja400069s,105,6(a),286,Pb0.98Sr0.01Na0.01Se1,Pb0.98Sr0.01Na0.01Se1,508,138190,0.0007038,0.000072439,2.3411,0.22486,0.0000072364,0.0003006279
3503,10.1021/ja400069s,105,6(a),286,Pb0.98Sr0.01Na0.01Se1,Pb0.98Sr0.01Na0.01Se1,508.5,137920,0.00070481,0.000072598,2.3384,0.22583,0.0000072506,0.0003014069
3503,10.1021/ja400069s,105,6(a),286,Pb0.98Sr0.01Na0.01Se1,Pb0.98Sr0.01Na0.01Se1,509,137640,0.00070583,0.000072757,2.3356,0.22681,0.0000072653,0.000302205
3503,10.1021/ja400069s,105,6(a),286,Pb0.98Sr0.01Na0.01Se1,Pb0.98Sr0.01Na0.01Se1,509.5,137360,0.00070684,0.000072916,2.3329,0.22778,0.0000072801,0.0003029877
3503,10.1021/ja400069s,105,6(a),286,Pb0.98Sr0.01Na0.01Se1,Pb0.98Sr0.01Na0.01Se1,510,137090,0.00070786,0.000073075,2.3302,0.22875,0.0000072945,0.0003037765
3503,10.1021/ja400069s,105,6(a),286,Pb0.98Sr0.01Na0.01Se1,Pb0.98Sr0.01Na0.01Se1,510.5,136810,0.00070887,0.000073235,2.3274,0.22973,0.0000073094,0.0003045759
3503,10.1021/ja400069s,105,6(a),286,Pb0.98Sr0.01Na0.01Se1,Pb0.98Sr0.01Na0.01Se1,511,136540,0.00070989,0.000073395,2.3247,0.2307,0.0000073239,0.0003053684
3503,10.1021/ja400069s,105,6(a),286,Pb0.98Sr0.01Na0.01Se1,Pb0.98Sr0.01Na0.01Se1,511.5,136260,0.0007109,0.000073555,2.322,0.23168,0.0000073389,0.0003061585
3503,10.1021/ja400069s,105,6(a),286,Pb0.98Sr0.01Na0.01Se1,Pb0.98Sr0.01Na0.01Se1,512,135990,0.00071192,0.000073716,2.3192,0.23265,0.0000073535,0.0003069679
3503,10.1021/ja400069s,105,6(a),286,Pb0.98Sr0.01Na0.01Se1,Pb0.98Sr0.01Na0.01Se1,512.5,135710,0.00071293,0.000073876,2.3165,0.23363,0.0000073687,0.0003077617
3503,10.1021/ja400069s,105,6(a),286,Pb0.98Sr0.01Na0.01Se1,Pb0.98Sr0.01Na0.01Se1,513,135440,0.00071395,0.000074037,2.3138,0.2346,0.0000073833,0.0003085617
3503,10.1021/ja400069s,105,6(a),286,Pb0.98Sr0.01Na0.01Se1,Pb0.98Sr0.01Na0.01Se1,513.5,135160,0.00071497,0.000074199,2.3111,0.23558,0.0000073986,0.0003093635
3503,10.1021/ja400069s,105,6(a),286,Pb0.98Sr0.01Na0.01Se1,Pb0.98Sr0.01Na0.01Se1,514,134890,0.00071598,0.00007436,2.3083,0.23655,0.0000074134,0.0003101763
3503,10.1021/ja400069s,105,6(a),286,Pb0.98Sr0.01Na0.01Se1,Pb0.98Sr0.01Na0.01Se1,514.5,134620,0.000717,0.000074522,2.3056,0.23753,0.0000074283,0.000310982
3503,10.1021/ja400069s,105,6(a),286,Pb0.98Sr0.01Na0.01Se1,Pb0.98Sr0.01Na0.01Se1,515,134350,0.00071801,0.000074684,2.3029,0.2385,0.0000074432,0.0003117851
3503,10.1021/ja400069s,105,6(a),286,Pb0.98Sr0.01Na0.01Se1,Pb0.98Sr0.01Na0.01Se1,515.5,134070,0.00071903,0.000074846,2.3002,0.23948,0.0000074588,0.0003125946
3503,10.1021/ja400069s,105,6(a),286,Pb0.98Sr0.01Na0.01Se1,Pb0.98Sr0.01Na0.01Se1,516,133800,0.00072004,0.000075008,2.2975,0.24045,0.0000074738,0.0003134015
3503,10.1021/ja400069s,105,6(a),286,Pb0.98Sr0.01Na0.01Se1,Pb0.98Sr0.01Na0.01Se1,516.5,133530,0.00072106,0.000075171,2.2948,0.24143,0.000007489,0.0003142147
3503,10.1021/ja400069s,105,6(a),286,Pb0.98Sr0.01Na0.01Se1,Pb0.98Sr0.01Na0.01Se1,517,133260,0.00072207,0.000075334,2.2921,0.2424,0.0000075041,0.0003150255
3503,10.1021/ja400069s,105,6(a),286,Pb0.98Sr0.01Na0.01Se1,Pb0.98Sr0.01Na0.01Se1,517.5,132990,0.00072309,0.000075497,2.2894,0.24338,0.0000075194,0.0003158426
3503,10.1021/ja400069s,105,6(a),286,Pb0.98Sr0.01Na0.01Se1,Pb0.98Sr0.01Na0.01Se1,518,132720,0.0007241,0.000075661,2.2867,0.24435,0.0000075347,0.0003166572
3503,10.1021/ja400069s,105,6(a),286,Pb0.98Sr0.01Na0.01Se1,Pb0.98Sr0.01Na0.01Se1,518.5,132450,0.00072512,0.000075824,2.284,0.24533,0.00000755,0.0003174781
3503,10.1021/ja400069s,105,6(a),286,Pb0.98Sr0.01Na0.01Se1,Pb0.98Sr0.01Na0.01Se1,519,132180,0.00072613,0.000075988,2.2813,0.2463,0.0000075654,0.0003182966
3503,10.1021/ja400069s,105,6(a),286,Pb0.98Sr0.01Na0.01Se1,Pb0.98Sr0.01Na0.01Se1,519.5,131910,0.00072715,0.000076152,2.2787,0.24728,0.0000075809,0.0003191074
3503,10.1021/ja400069s,105,6(a),286,Pb0.98Sr0.01Na0.01Se1,Pb0.98Sr0.01Na0.01Se1,520,131640,0.00072816,0.000076317,2.276,0.24825,0.0000075965,0.0003199297
3503,10.1021/ja400069s,105,6(a),286,Pb0.98Sr0.01Na0.01Se1,Pb0.98Sr0.01Na0.01Se1,520.5,131380,0.00072918,0.000076481,2.2733,0.24923,0.0000076115,0.0003207584
3503,10.1021/ja400069s,105,6(a),286,Pb0.98Sr0.01Na0.01Se1,Pb0.98Sr0.01Na0.01Se1,521,131110,0.00073019,0.000076646,2.2706,0.2502,0.0000076272,0.0003215846
3503,10.1021/ja400069s,105,6(a),286,Pb0.98Sr0.01Na0.01Se1,Pb0.98Sr0.01Na0.01Se1,521.5,130840,0.00073121,0.000076811,2.268,0.25118,0.0000076429,0.000322403
3503,10.1021/ja400069s,105,6(a),286,Pb0.98Sr0.01Na0.01Se1,Pb0.98Sr0.01Na0.01Se1,522,130580,0.00073223,0.000076977,2.2653,0.25215,0.0000076581,0.0003232375
3503,10.1021/ja400069s,105,6(a),286,Pb0.98Sr0.01Na0.01Se1,Pb0.98Sr0.01Na0.01Se1,522.5,130310,0.00073324,0.000077142,2.2626,0.25313,0.000007674,0.0003240697
3503,10.1021/ja400069s,105,6(a),286,Pb0.98Sr0.01Na0.01Se1,Pb0.98Sr0.01Na0.01Se1,523,130040,0.00073426,0.000077308,2.26,0.2541,0.0000076899,0.0003248938
3503,10.1021/ja400069s,105,6(a),286,Pb0.98Sr0.01Na0.01Se1,Pb0.98Sr0.01Na0.01Se1,523.5,129780,0.00073527,0.000077474,2.2573,0.25508,0.0000077053,0.0003257299
3503,10.1021/ja400069s,105,6(a),286,Pb0.98Sr0.01Na0.01Se1,Pb0.98Sr0.01Na0.01Se1,524,129510,0.00073629,0.000077641,2.2547,0.25605,0.0000077214,0.0003265579
3503,10.1021/ja400069s,105,6(a),286,Pb0.98Sr0.01Na0.01Se1,Pb0.98Sr0.01Na0.01Se1,524.5,129250,0.0007373,0.000077807,2.252,0.25703,0.0000077369,0.0003273979
3503,10.1021/ja400069s,105,6(a),286,Pb0.98Sr0.01Na0.01Se1,Pb0.98Sr0.01Na0.01Se1,525,128980,0.00073832,0.000077974,2.2494,0.258,0.0000077531,0.0003282298
3503,10.1021/ja400069s,105,6(a),286,Pb0.98Sr0.01Na0.01Se1,Pb0.98Sr0.01Na0.01Se1,525.5,128720,0.00073933,0.000078141,2.2467,0.25897,0.0000077688,0.0003290738
3503,10.1021/ja400069s,105,6(a),286,Pb0.98Sr0.01Na0.01Se1,Pb0.98Sr0.01Na0.01Se1,526,128450,0.00074035,0.000078308,2.2441,0.25995,0.0000077851,0.0003299095
3503,10.1021/ja400069s,105,6(a),286,Pb0.98Sr0.01Na0.01Se1,Pb0.98Sr0.01Na0.01Se1,526.5,128190,0.00074136,0.000078476,2.2414,0.26092,0.0000078009,0.0003307576
3503,10.1021/ja400069s,105,6(a),286,Pb0.98Sr0.01Na0.01Se1,Pb0.98Sr0.01Na0.01Se1,527,127930,0.00074238,0.000078644,2.2388,0.2619,0.0000078168,0.0003315973
3503,10.1021/ja400069s,105,6(a),286,Pb0.98Sr0.01Na0.01Se1,Pb0.98Sr0.01Na0.01Se1,527.5,127660,0.00074339,0.000078812,2.2361,0.26287,0.0000078333,0.0003324494
3503,10.1021/ja400069s,105,6(a),286,Pb0.98Sr0.01Na0.01Se1,Pb0.98Sr0.01Na0.01Se1,528,127400,0.00074441,0.00007898,2.2335,0.26385,0.0000078493,0.000333293
3503,10.1021/ja400069s,105,6(a),286,Pb0.98Sr0.01Na0.01Se1,Pb0.98Sr0.01Na0.01Se1,528.5,127140,0.00074542,0.000079148,2.2309,0.26482,0.0000078653,0.0003341342
3503,10.1021/ja400069s,105,6(a),286,Pb0.98Sr0.01Na0.01Se1,Pb0.98Sr0.01Na0.01Se1,529,126880,0.00074644,0.000079317,2.2283,0.2658,0.0000078815,0.0003349818
3503,10.1021/ja400069s,105,6(a),286,Pb0.98Sr0.01Na0.01Se1,Pb0.98Sr0.01Na0.01Se1,529.5,126620,0.00074746,0.000079486,2.2256,0.26677,0.0000078976,0.0003358465
3503,10.1021/ja400069s,105,6(a),286,Pb0.98Sr0.01Na0.01Se1,Pb0.98Sr0.01Na0.01Se1,530,126360,0.00074847,0.000079655,2.223,0.26775,0.0000079139,0.0003366937
3503,10.1021/ja400069s,105,6(a),286,Pb0.98Sr0.01Na0.01Se1,Pb0.98Sr0.01Na0.01Se1,530.5,126100,0.00074949,0.000079824,2.2204,0.26872,0.0000079302,0.0003375473
3503,10.1021/ja400069s,105,6(a),286,Pb0.98Sr0.01Na0.01Se1,Pb0.98Sr0.01Na0.01Se1,531,125840,0.0007505,0.000079994,2.2178,0.2697,0.0000079466,0.0003383984
3503,10.1021/ja400069s,105,6(a),286,Pb0.98Sr0.01Na0.01Se1,Pb0.98Sr0.01Na0.01Se1,531.5,125580,0.00075152,0.000080164,2.2152,0.27067,0.0000079631,0.000339256
3503,10.1021/ja400069s,105,6(a),286,Pb0.98Sr0.01Na0.01Se1,Pb0.98Sr0.01Na0.01Se1,532,125320,0.00075253,0.000080334,2.2126,0.27165,0.0000079796,0.0003401112
3503,10.1021/ja400069s,105,6(a),286,Pb0.98Sr0.01Na0.01Se1,Pb0.98Sr0.01Na0.01Se1,532.5,125060,0.00075355,0.000080504,2.21,0.27262,0.0000079962,0.0003409729
3503,10.1021/ja400069s,105,6(a),286,Pb0.98Sr0.01Na0.01Se1,Pb0.98Sr0.01Na0.01Se1,533,124800,0.00075456,0.000080675,2.2074,0.2736,0.0000080128,0.000341832
3503,10.1021/ja400069s,105,6(a),286,Pb0.98Sr0.01Na0.01Se1,Pb0.98Sr0.01Na0.01Se1,533.5,124540,0.00075558,0.000080846,2.2048,0.27457,0.0000080295,0.0003426978
3503,10.1021/ja400069s,105,6(a),286,Pb0.98Sr0.01Na0.01Se1,Pb0.98Sr0.01Na0.01Se1,534,124280,0.00075659,0.000081017,2.2022,0.27555,0.0000080463,0.000343561
3503,10.1021/ja400069s,105,6(a),286,Pb0.98Sr0.01Na0.01Se1,Pb0.98Sr0.01Na0.01Se1,534.5,124030,0.00075761,0.000081188,2.1996,0.27652,0.0000080626,0.0003444308
3503,10.1021/ja400069s,105,6(a),286,Pb0.98Sr0.01Na0.01Se1,Pb0.98Sr0.01Na0.01Se1,535,123770,0.00075862,0.000081359,2.197,0.2775,0.0000080795,0.0003452981
3503,10.1021/ja400069s,105,6(a),286,Pb0.98Sr0.01Na0.01Se1,Pb0.98Sr0.01Na0.01Se1,535.5,123510,0.00075964,0.000081531,2.1944,0.27847,0.0000080965,0.0003461721
3503,10.1021/ja400069s,105,6(a),286,Pb0.98Sr0.01Na0.01Se1,Pb0.98Sr0.01Na0.01Se1,536,123260,0.00076065,0.000081703,2.1918,0.27945,0.0000081129,0.0003470435
3503,10.1021/ja400069s,105,6(a),286,Pb0.98Sr0.01Na0.01Se1,Pb0.98Sr0.01Na0.01Se1,536.5,123000,0.00076167,0.000081875,2.1892,0.28042,0.0000081301,0.0003479216
3503,10.1021/ja400069s,105,6(a),286,Pb0.98Sr0.01Na0.01Se1,Pb0.98Sr0.01Na0.01Se1,537,122750,0.00076268,0.000082047,2.1867,0.2814,0.0000081466,0.0003487813
3503,10.1021/ja400069s,105,6(a),286,Pb0.98Sr0.01Na0.01Se1,Pb0.98Sr0.01Na0.01Se1,537.5,122490,0.0007637,0.00008222,2.1841,0.28237,0.0000081639,0.0003496635
3503,10.1021/ja400069s,105,6(a),286,Pb0.98Sr0.01Na0.01Se1,Pb0.98Sr0.01Na0.01Se1,538,122240,0.00076472,0.000082393,2.1815,0.28335,0.0000081806,0.0003505478
3503,10.1021/ja400069s,105,6(a),286,Pb0.98Sr0.01Na0.01Se1,Pb0.98Sr0.01Na0.01Se1,538.5,121980,0.00076573,0.000082566,2.1789,0.28432,0.0000081981,0.0003514296
3503,10.1021/ja400069s,105,6(a),286,Pb0.98Sr0.01Na0.01Se1,Pb0.98Sr0.01Na0.01Se1,539,121730,0.00076675,0.000082739,2.1764,0.2853,0.0000082149,0.000352302
3503,10.1021/ja400069s,105,6(a),286,Pb0.98Sr0.01Na0.01Se1,Pb0.98Sr0.01Na0.01Se1,539.5,121470,0.00076776,0.000082913,2.1738,0.28627,0.0000082325,0.000353188
3503,10.1021/ja400069s,105,6(a),286,Pb0.98Sr0.01Na0.01Se1,Pb0.98Sr0.01Na0.01Se1,540,121220,0.00076878,0.000083086,2.1712,0.28724,0.0000082495,0.0003540807
3503,10.1021/ja400069s,105,6(a),286,Pb0.98Sr0.01Na0.01Se1,Pb0.98Sr0.01Na0.01Se1,540.5,120970,0.00076979,0.00008326,2.1687,0.28822,0.0000082665,0.0003549546
3503,10.1021/ja400069s,105,6(a),286,Pb0.98Sr0.01Na0.01Se1,Pb0.98Sr0.01Na0.01Se1,541,120720,0.00077081,0.000083434,2.1661,0.28919,0.0000082836,0.0003558515
3503,10.1021/ja400069s,105,6(a),286,Pb0.98Sr0.01Na0.01Se1,Pb0.98Sr0.01Na0.01Se1,541.5,120460,0.00077182,0.000083609,2.1636,0.29017,0.0000083015,0.0003567295
3503,10.1021/ja400069s,105,6(a),286,Pb0.98Sr0.01Na0.01Se1,Pb0.98Sr0.01Na0.01Se1,542,120210,0.00077284,0.000083783,2.161,0.29114,0.0000083188,0.0003576307
3503,10.1021/ja400069s,105,6(a),286,Pb0.98Sr0.01Na0.01Se1,Pb0.98Sr0.01Na0.01Se1,542.5,119960,0.00077385,0.000083958,2.1585,0.29212,0.0000083361,0.0003585129
3503,10.1021/ja400069s,105,6(a),286,Pb0.98Sr0.01Na0.01Se1,Pb0.98Sr0.01Na0.01Se1,543,119710,0.00077487,0.000084133,2.1559,0.29309,0.0000083535,0.0003594183
3503,10.1021/ja400069s,105,6(a),286,Pb0.98Sr0.01Na0.01Se1,Pb0.98Sr0.01Na0.01Se1,543.5,119460,0.00077588,0.000084309,2.1534,0.29407,0.000008371,0.0003603046
3503,10.1021/ja400069s,105,6(a),286,Pb0.98Sr0.01Na0.01Se1,Pb0.98Sr0.01Na0.01Se1,544,119210,0.0007769,0.000084484,2.1509,0.29504,0.0000083886,0.0003611976
3503,10.1021/ja400069s,105,6(a),286,Pb0.98Sr0.01Na0.01Se1,Pb0.98Sr0.01Na0.01Se1,544.5,118960,0.00077791,0.00008466,2.1483,0.29602,0.0000084062,0.0003621049
3503,10.1021/ja400069s,105,6(a),286,Pb0.98Sr0.01Na0.01Se1,Pb0.98Sr0.01Na0.01Se1,545,118710,0.00077893,0.000084836,2.1458,0.29699,0.0000084239,0.0003630021
3503,10.1021/ja400069s,105,6(a),286,Pb0.98Sr0.01Na0.01Se1,Pb0.98Sr0.01Na0.01Se1,545.5,118460,0.00077994,0.000085012,2.1433,0.29797,0.0000084417,0.0003638968
3503,10.1021/ja400069s,105,6(a),286,Pb0.98Sr0.01Na0.01Se1,Pb0.98Sr0.01Na0.01Se1,546,118210,0.00078096,0.000085188,2.1408,0.29894,0.0000084595,0.0003647982
3503,10.1021/ja400069s,105,6(a),286,Pb0.98Sr0.01Na0.01Se1,Pb0.98Sr0.01Na0.01Se1,546.5,117960,0.00078198,0.000085365,2.1382,0.29992,0.0000084774,0.0003657188
3503,10.1021/ja400069s,105,6(a),286,Pb0.98Sr0.01Na0.01Se1,Pb0.98Sr0.01Na0.01Se1,547,117720,0.00078299,0.000085542,2.1357,0.30089,0.0000084947,0.0003666198
3503,10.1021/ja400069s,105,6(a),286,Pb0.98Sr0.01Na0.01Se1,Pb0.98Sr0.01Na0.01Se1,547.5,117470,0.00078401,0.000085719,2.1332,0.30187,0.0000085128,0.0003675277
3503,10.1021/ja400069s,105,6(a),286,Pb0.98Sr0.01Na0.01Se1,Pb0.98Sr0.01Na0.01Se1,548,117220,0.00078502,0.000085896,2.1307,0.30284,0.000008531,0.0003684329
3503,10.1021/ja400069s,105,6(a),286,Pb0.98Sr0.01Na0.01Se1,Pb0.98Sr0.01Na0.01Se1,548.5,116980,0.00078604,0.000086073,2.1282,0.30382,0.0000085485,0.000369345
3503,10.1021/ja400069s,105,6(a),286,Pb0.98Sr0.01Na0.01Se1,Pb0.98Sr0.01Na0.01Se1,549,116730,0.00078705,0.000086251,2.1257,0.30479,0.0000085668,0.0003702545
3503,10.1021/ja400069s,105,6(a),286,Pb0.98Sr0.01Na0.01Se1,Pb0.98Sr0.01Na0.01Se1,549.5,116480,0.00078807,0.000086429,2.1232,0.30577,0.0000085852,0.0003711709
3503,10.1021/ja400069s,105,6(a),286,Pb0.98Sr0.01Na0.01Se1,Pb0.98Sr0.01Na0.01Se1,550,116240,0.00078908,0.000086607,2.1207,0.30674,0.0000086029,0.0003720847
3503,10.1021/ja400069s,105,6(a),286,Pb0.98Sr0.01Na0.01Se1,Pb0.98Sr0.01Na0.01Se1,550.5,115990,0.0007901,0.000086785,2.1182,0.30772,0.0000086214,0.0003730054
3503,10.1021/ja400069s,105,6(a),286,Pb0.98Sr0.01Na0.01Se1,Pb0.98Sr0.01Na0.01Se1,551,115750,0.00079111,0.000086964,2.1157,0.30869,0.0000086393,0.0003739235
3503,10.1021/ja400069s,105,6(a),286,Pb0.98Sr0.01Na0.01Se1,Pb0.98Sr0.01Na0.01Se1,551.5,115500,0.00079213,0.000087142,2.1132,0.30967,0.000008658,0.0003748486
3503,10.1021/ja400069s,105,6(a),286,Pb0.98Sr0.01Na0.01Se1,Pb0.98Sr0.01Na0.01Se1,552,115260,0.00079314,0.000087321,2.1107,0.31064,0.000008676,0.0003757711
3503,10.1021/ja400069s,105,6(a),286,Pb0.98Sr0.01Na0.01Se1,Pb0.98Sr0.01Na0.01Se1,552.5,115010,0.00079416,0.0000875,2.1082,0.31162,0.0000086949,0.0003767005
3503,10.1021/ja400069s,105,6(a),286,Pb0.98Sr0.01Na0.01Se1,Pb0.98Sr0.01Na0.01Se1,553,114770,0.00079517,0.00008768,2.1057,0.31259,0.0000087131,0.0003776274
3503,10.1021/ja400069s,105,6(a),286,Pb0.98Sr0.01Na0.01Se1,Pb0.98Sr0.01Na0.01Se1,553.5,114530,0.00079619,0.000087859,2.1032,0.31357,0.0000087313,0.0003785612