sid,DOI,figureid,fignum,sampleid,samplename,composition,Temperature,Electrical conductivity,Power factor,Seebeck coefficient,Thermal conductivity,ZT,Electrical resistivity,Figure of merit Z
3503,10.1021/ja400069s,105,6(a),203,Pb0.96Ba0.03Na0.01Se1,Pb0.96Ba0.03Na0.01Se1,714,36680,0.0011235,0.00018499,1.1392,0.77233,0.0000272628,0.0009862184
3503,10.1021/ja400069s,105,6(a),203,Pb0.96Ba0.03Na0.01Se1,Pb0.96Ba0.03Na0.01Se1,714.5,36598,0.0011244,0.00018521,1.1383,0.7734,0.0000273239,0.0009877888
3503,10.1021/ja400069s,105,6(a),203,Pb0.96Ba0.03Na0.01Se1,Pb0.96Ba0.03Na0.01Se1,715,36516,0.0011252,0.00018542,1.1374,0.77448,0.0000273853,0.0009892738
3503,10.1021/ja400069s,105,6(a),203,Pb0.96Ba0.03Na0.01Se1,Pb0.96Ba0.03Na0.01Se1,715.5,36434,0.0011261,0.00018563,1.1366,0.77555,0.0000274469,0.0009907619
3503,10.1021/ja400069s,105,6(a),203,Pb0.96Ba0.03Na0.01Se1,Pb0.96Ba0.03Na0.01Se1,716,36353,0.001127,0.00018585,1.1357,0.77663,0.000027508,0.0009923395
3503,10.1021/ja400069s,105,6(a),203,Pb0.96Ba0.03Na0.01Se1,Pb0.96Ba0.03Na0.01Se1,716.5,36271,0.0011278,0.00018606,1.1348,0.77771,0.0000275702,0.0009938315
3503,10.1021/ja400069s,105,6(a),203,Pb0.96Ba0.03Na0.01Se1,Pb0.96Ba0.03Na0.01Se1,717,36190,0.0011287,0.00018627,1.1339,0.77878,0.0000276319,0.0009954141
3503,10.1021/ja400069s,105,6(a),203,Pb0.96Ba0.03Na0.01Se1,Pb0.96Ba0.03Na0.01Se1,717.5,36108,0.0011296,0.00018649,1.1331,0.77986,0.0000276947,0.0009969111
3503,10.1021/ja400069s,105,6(a),203,Pb0.96Ba0.03Na0.01Se1,Pb0.96Ba0.03Na0.01Se1,718,36027,0.0011304,0.0001867,1.1322,0.78093,0.000027757,0.0009984102
3503,10.1021/ja400069s,105,6(a),203,Pb0.96Ba0.03Na0.01Se1,Pb0.96Ba0.03Na0.01Se1,718.5,35946,0.0011313,0.00018691,1.1313,0.78201,0.0000278195,0.001
3503,10.1021/ja400069s,105,6(a),203,Pb0.96Ba0.03Na0.01Se1,Pb0.96Ba0.03Na0.01Se1,719,35866,0.0011321,0.00018712,1.1305,0.78309,0.0000278816,0.0010014153
3503,10.1021/ja400069s,105,6(a),203,Pb0.96Ba0.03Na0.01Se1,Pb0.96Ba0.03Na0.01Se1,719.5,35785,0.001133,0.00018734,1.1296,0.78416,0.0000279447,0.0010030099
3503,10.1021/ja400069s,105,6(a),203,Pb0.96Ba0.03Na0.01Se1,Pb0.96Ba0.03Na0.01Se1,720,35705,0.0011339,0.00018755,1.1287,0.78524,0.0000280073,0.0010046071
3503,10.1021/ja400069s,105,6(a),203,Pb0.96Ba0.03Na0.01Se1,Pb0.96Ba0.03Na0.01Se1,720.5,35624,0.0011347,0.00018776,1.1279,0.78631,0.000028071,0.0010060289
3503,10.1021/ja400069s,105,6(a),203,Pb0.96Ba0.03Na0.01Se1,Pb0.96Ba0.03Na0.01Se1,721,35544,0.0011356,0.00018797,1.127,0.78739,0.0000281341,0.0010076309
3503,10.1021/ja400069s,105,6(a),203,Pb0.96Ba0.03Na0.01Se1,Pb0.96Ba0.03Na0.01Se1,721.5,35464,0.0011365,0.00018819,1.1261,0.78847,0.0000281976,0.0010092354
3503,10.1021/ja400069s,105,6(a),203,Pb0.96Ba0.03Na0.01Se1,Pb0.96Ba0.03Na0.01Se1,722,35385,0.0011373,0.0001884,1.1253,0.78954,0.0000282606,0.0010106638
3503,10.1021/ja400069s,105,6(a),203,Pb0.96Ba0.03Na0.01Se1,Pb0.96Ba0.03Na0.01Se1,722.5,35305,0.0011382,0.00018861,1.1244,0.79062,0.0000283246,0.0010122732
3503,10.1021/ja400069s,105,6(a),203,Pb0.96Ba0.03Na0.01Se1,Pb0.96Ba0.03Na0.01Se1,723,35225,0.001139,0.00018882,1.1236,0.79169,0.0000283889,0.0010137059
3503,10.1021/ja400069s,105,6(a),203,Pb0.96Ba0.03Na0.01Se1,Pb0.96Ba0.03Na0.01Se1,723.5,35146,0.0011399,0.00018904,1.1227,0.79277,0.0000284527,0.0010153202
3503,10.1021/ja400069s,105,6(a),203,Pb0.96Ba0.03Na0.01Se1,Pb0.96Ba0.03Na0.01Se1,724,35067,0.0011408,0.00018925,1.1218,0.79385,0.0000285168,0.0010169371
3503,10.1021/ja400069s,105,6(a),203,Pb0.96Ba0.03Na0.01Se1,Pb0.96Ba0.03Na0.01Se1,724.5,34988,0.0011416,0.00018946,1.121,0.79492,0.0000285812,0.0010183764
3503,10.1021/ja400069s,105,6(a),203,Pb0.96Ba0.03Na0.01Se1,Pb0.96Ba0.03Na0.01Se1,725,34909,0.0011425,0.00018967,1.1201,0.796,0.0000286459,0.0010199982
3503,10.1021/ja400069s,105,6(a),203,Pb0.96Ba0.03Na0.01Se1,Pb0.96Ba0.03Na0.01Se1,725.5,34831,0.0011434,0.00018988,1.1193,0.79707,0.0000287101,0.0010215313
3503,10.1021/ja400069s,105,6(a),203,Pb0.96Ba0.03Na0.01Se1,Pb0.96Ba0.03Na0.01Se1,726,34752,0.0011442,0.00019009,1.1184,0.79815,0.0000287753,0.0010230687
3503,10.1021/ja400069s,105,6(a),203,Pb0.96Ba0.03Na0.01Se1,Pb0.96Ba0.03Na0.01Se1,726.5,34674,0.0011451,0.0001903,1.1176,0.79923,0.0000288401,0.0010246063
3503,10.1021/ja400069s,105,6(a),203,Pb0.96Ba0.03Na0.01Se1,Pb0.96Ba0.03Na0.01Se1,727,34596,0.001146,0.00019051,1.1167,0.8003,0.0000289051,0.001026238
3503,10.1021/ja400069s,105,6(a),203,Pb0.96Ba0.03Na0.01Se1,Pb0.96Ba0.03Na0.01Se1,727.5,34518,0.0011468,0.00019073,1.1159,0.80138,0.0000289704,0.0010276907
3503,10.1021/ja400069s,105,6(a),203,Pb0.96Ba0.03Na0.01Se1,Pb0.96Ba0.03Na0.01Se1,728,34440,0.0011477,0.00019094,1.115,0.80245,0.000029036,0.0010293274
3503,10.1021/ja400069s,105,6(a),203,Pb0.96Ba0.03Na0.01Se1,Pb0.96Ba0.03Na0.01Se1,728.5,34363,0.0011485,0.00019115,1.1142,0.80353,0.0000291011,0.0010307844
3503,10.1021/ja400069s,105,6(a),203,Pb0.96Ba0.03Na0.01Se1,Pb0.96Ba0.03Na0.01Se1,729,34285,0.0011494,0.00019136,1.1133,0.8046,0.0000291673,0.0010324261
3503,10.1021/ja400069s,105,6(a),203,Pb0.96Ba0.03Na0.01Se1,Pb0.96Ba0.03Na0.01Se1,729.5,34208,0.0011503,0.00019157,1.1125,0.80568,0.0000292329,0.0010339775
3503,10.1021/ja400069s,105,6(a),203,Pb0.96Ba0.03Na0.01Se1,Pb0.96Ba0.03Na0.01Se1,730,34131,0.0011511,0.00019178,1.1117,0.80676,0.0000292989,0.0010354412
3503,10.1021/ja400069s,105,6(a),203,Pb0.96Ba0.03Na0.01Se1,Pb0.96Ba0.03Na0.01Se1,730.5,34054,0.001152,0.00019199,1.1108,0.80783,0.0000293651,0.0010370904
3503,10.1021/ja400069s,105,6(a),203,Pb0.96Ba0.03Na0.01Se1,Pb0.96Ba0.03Na0.01Se1,731,33977,0.0011529,0.0001922,1.11,0.80891,0.0000294317,0.0010386486
3503,10.1021/ja400069s,105,6(a),203,Pb0.96Ba0.03Na0.01Se1,Pb0.96Ba0.03Na0.01Se1,731.5,33900,0.0011537,0.00019241,1.1091,0.80998,0.0000294985,0.0010402128
3503,10.1021/ja400069s,105,6(a),203,Pb0.96Ba0.03Na0.01Se1,Pb0.96Ba0.03Na0.01Se1,732,33824,0.0011546,0.00019262,1.1083,0.81106,0.0000295648,0.0010417757
3503,10.1021/ja400069s,105,6(a),203,Pb0.96Ba0.03Na0.01Se1,Pb0.96Ba0.03Na0.01Se1,732.5,33748,0.0011554,0.00019283,1.1075,0.81214,0.0000296314,0.0010432506
3503,10.1021/ja400069s,105,6(a),203,Pb0.96Ba0.03Na0.01Se1,Pb0.96Ba0.03Na0.01Se1,733,33671,0.0011563,0.00019304,1.1066,0.81321,0.0000296991,0.0010449123
3503,10.1021/ja400069s,105,6(a),203,Pb0.96Ba0.03Na0.01Se1,Pb0.96Ba0.03Na0.01Se1,733.5,33595,0.0011572,0.00019325,1.1058,0.81429,0.0000297663,0.0010464822
3503,10.1021/ja400069s,105,6(a),203,Pb0.96Ba0.03Na0.01Se1,Pb0.96Ba0.03Na0.01Se1,734,33520,0.001158,0.00019346,1.105,0.81536,0.0000298329,0.0010479638
3503,10.1021/ja400069s,105,6(a),203,Pb0.96Ba0.03Na0.01Se1,Pb0.96Ba0.03Na0.01Se1,734.5,33444,0.0011589,0.00019367,1.1041,0.81644,0.0000299007,0.0010496332
3503,10.1021/ja400069s,105,6(a),203,Pb0.96Ba0.03Na0.01Se1,Pb0.96Ba0.03Na0.01Se1,735,33368,0.0011598,0.00019388,1.1033,0.81752,0.0000299688,0.00105121
3503,10.1021/ja400069s,105,6(a),203,Pb0.96Ba0.03Na0.01Se1,Pb0.96Ba0.03Na0.01Se1,735.5,33293,0.0011606,0.00019409,1.1025,0.81859,0.0000300363,0.0010526984
3503,10.1021/ja400069s,105,6(a),203,Pb0.96Ba0.03Na0.01Se1,Pb0.96Ba0.03Na0.01Se1,736,33218,0.0011615,0.0001943,1.1016,0.81967,0.0000301042,0.0010543755
3503,10.1021/ja400069s,105,6(a),203,Pb0.96Ba0.03Na0.01Se1,Pb0.96Ba0.03Na0.01Se1,736.5,33143,0.0011624,0.00019451,1.1008,0.82074,0.0000301723,0.0010559593
3503,10.1021/ja400069s,105,6(a),203,Pb0.96Ba0.03Na0.01Se1,Pb0.96Ba0.03Na0.01Se1,737,33068,0.0011632,0.00019472,1.1,0.82182,0.0000302407,0.0010574545
3503,10.1021/ja400069s,105,6(a),203,Pb0.96Ba0.03Na0.01Se1,Pb0.96Ba0.03Na0.01Se1,737.5,32993,0.0011641,0.00019493,1.0992,0.8229,0.0000303095,0.0010590429
3503,10.1021/ja400069s,105,6(a),203,Pb0.96Ba0.03Na0.01Se1,Pb0.96Ba0.03Na0.01Se1,738,32919,0.0011649,0.00019513,1.0983,0.82397,0.0000303776,0.0010606392
3503,10.1021/ja400069s,105,6(a),203,Pb0.96Ba0.03Na0.01Se1,Pb0.96Ba0.03Na0.01Se1,738.5,32845,0.0011658,0.00019534,1.0975,0.82505,0.000030446,0.0010622323
3503,10.1021/ja400069s,105,6(a),203,Pb0.96Ba0.03Na0.01Se1,Pb0.96Ba0.03Na0.01Se1,739,32770,0.0011667,0.00019555,1.0967,0.82612,0.0000305157,0.0010638278
3503,10.1021/ja400069s,105,6(a),203,Pb0.96Ba0.03Na0.01Se1,Pb0.96Ba0.03Na0.01Se1,739.5,32696,0.0011675,0.00019576,1.0959,0.8272,0.0000305848,0.0010653344
3503,10.1021/ja400069s,105,6(a),203,Pb0.96Ba0.03Na0.01Se1,Pb0.96Ba0.03Na0.01Se1,740,32622,0.0011684,0.00019597,1.095,0.82828,0.0000306542,0.001067032
3503,10.1021/ja400069s,105,6(a),203,Pb0.96Ba0.03Na0.01Se1,Pb0.96Ba0.03Na0.01Se1,740.5,32549,0.0011693,0.00019618,1.0942,0.82935,0.0000307229,0.0010686346
3503,10.1021/ja400069s,105,6(a),203,Pb0.96Ba0.03Na0.01Se1,Pb0.96Ba0.03Na0.01Se1,741,32475,0.0011701,0.00019639,1.0934,0.83043,0.0000307929,0.0010701482
3503,10.1021/ja400069s,105,6(a),203,Pb0.96Ba0.03Na0.01Se1,Pb0.96Ba0.03Na0.01Se1,741.5,32402,0.001171,0.00019659,1.0926,0.8315,0.0000308623,0.0010717554
3503,10.1021/ja400069s,105,6(a),203,Pb0.96Ba0.03Na0.01Se1,Pb0.96Ba0.03Na0.01Se1,742,32329,0.0011719,0.0001968,1.0918,0.83258,0.000030932,0.0010733651
3503,10.1021/ja400069s,105,6(a),203,Pb0.96Ba0.03Na0.01Se1,Pb0.96Ba0.03Na0.01Se1,742.5,32256,0.0011727,0.00019701,1.091,0.83366,0.000031002,0.0010748854
3503,10.1021/ja400069s,105,6(a),203,Pb0.96Ba0.03Na0.01Se1,Pb0.96Ba0.03Na0.01Se1,743,32183,0.0011736,0.00019722,1.0901,0.83473,0.0000310723,0.0010765985
3503,10.1021/ja400069s,105,6(a),203,Pb0.96Ba0.03Na0.01Se1,Pb0.96Ba0.03Na0.01Se1,743.5,32110,0.0011744,0.00019743,1.0893,0.83581,0.0000311429,0.0010781236
3503,10.1021/ja400069s,105,6(a),203,Pb0.96Ba0.03Na0.01Se1,Pb0.96Ba0.03Na0.01Se1,744,32037,0.0011753,0.00019763,1.0885,0.83688,0.0000312139,0.0010797428
3503,10.1021/ja400069s,105,6(a),203,Pb0.96Ba0.03Na0.01Se1,Pb0.96Ba0.03Na0.01Se1,744.5,31965,0.0011762,0.00019784,1.0877,0.83796,0.0000312842,0.0010813643
3503,10.1021/ja400069s,105,6(a),203,Pb0.96Ba0.03Na0.01Se1,Pb0.96Ba0.03Na0.01Se1,745,31893,0.001177,0.00019805,1.0869,0.83904,0.0000313548,0.0010828963
3503,10.1021/ja400069s,105,6(a),203,Pb0.96Ba0.03Na0.01Se1,Pb0.96Ba0.03Na0.01Se1,745.5,31821,0.0011779,0.00019826,1.0861,0.84011,0.0000314258,0.0010845226
3503,10.1021/ja400069s,105,6(a),203,Pb0.96Ba0.03Na0.01Se1,Pb0.96Ba0.03Na0.01Se1,746,31749,0.0011788,0.00019846,1.0853,0.84119,0.0000314971,0.0010861513
3503,10.1021/ja400069s,105,6(a),203,Pb0.96Ba0.03Na0.01Se1,Pb0.96Ba0.03Na0.01Se1,746.5,31677,0.0011796,0.00019867,1.0845,0.84226,0.0000315686,0.0010876902
3503,10.1021/ja400069s,105,6(a),203,Pb0.96Ba0.03Na0.01Se1,Pb0.96Ba0.03Na0.01Se1,747,31605,0.0011805,0.00019888,1.0837,0.84334,0.0000316406,0.0010893236
3503,10.1021/ja400069s,105,6(a),203,Pb0.96Ba0.03Na0.01Se1,Pb0.96Ba0.03Na0.01Se1,747.5,31534,0.0011813,0.00019909,1.0829,0.84442,0.0000317118,0.0010908671
3503,10.1021/ja400069s,105,6(a),203,Pb0.96Ba0.03Na0.01Se1,Pb0.96Ba0.03Na0.01Se1,748,31463,0.0011822,0.00019929,1.0821,0.84549,0.0000317834,0.0010925053
3503,10.1021/ja400069s,105,6(a),203,Pb0.96Ba0.03Na0.01Se1,Pb0.96Ba0.03Na0.01Se1,748.5,31392,0.0011831,0.0001995,1.0813,0.84657,0.0000318552,0.0010941459
3503,10.1021/ja400069s,105,6(a),203,Pb0.96Ba0.03Na0.01Se1,Pb0.96Ba0.03Na0.01Se1,749,31321,0.0011839,0.00019971,1.0805,0.84764,0.0000319275,0.0010956964
3503,10.1021/ja400069s,105,6(a),203,Pb0.96Ba0.03Na0.01Se1,Pb0.96Ba0.03Na0.01Se1,749.5,31250,0.0011848,0.00019991,1.0797,0.84872,0.000032,0.0010973419
3503,10.1021/ja400069s,105,6(a),203,Pb0.96Ba0.03Na0.01Se1,Pb0.96Ba0.03Na0.01Se1,750,31179,0.0011857,0.00020012,1.0789,0.8498,0.0000320729,0.0010989897
3503,10.1021/ja400069s,105,6(a),203,Pb0.96Ba0.03Na0.01Se1,Pb0.96Ba0.03Na0.01Se1,750.5,31109,0.0011865,0.00020033,1.0781,0.85087,0.000032145,0.0011005473
3503,10.1021/ja400069s,105,6(a),203,Pb0.96Ba0.03Na0.01Se1,Pb0.96Ba0.03Na0.01Se1,751,31039,0.0011874,0.00020053,1.0773,0.85195,0.0000322175,0.0011021999
3503,10.1021/ja400069s,105,6(a),203,Pb0.96Ba0.03Na0.01Se1,Pb0.96Ba0.03Na0.01Se1,751.5,30969,0.0011883,0.00020074,1.0765,0.85302,0.0000322904,0.0011038551
3503,10.1021/ja400069s,105,6(a),203,Pb0.96Ba0.03Na0.01Se1,Pb0.96Ba0.03Na0.01Se1,752,30899,0.0011891,0.00020095,1.0757,0.8541,0.0000323635,0.0011054197
3503,10.1021/ja400069s,105,6(a),203,Pb0.96Ba0.03Na0.01Se1,Pb0.96Ba0.03Na0.01Se1,752.5,30829,0.00119,0.00020115,1.0749,0.85518,0.000032437,0.0011070797
3503,10.1021/ja400069s,105,6(a),203,Pb0.96Ba0.03Na0.01Se1,Pb0.96Ba0.03Na0.01Se1,753,30759,0.0011908,0.00020136,1.0741,0.85625,0.0000325108,0.0011086491
3503,10.1021/ja400069s,105,6(a),203,Pb0.96Ba0.03Na0.01Se1,Pb0.96Ba0.03Na0.01Se1,753.5,30690,0.0011917,0.00020157,1.0733,0.85733,0.0000325839,0.001110314
3503,10.1021/ja400069s,105,6(a),203,Pb0.96Ba0.03Na0.01Se1,Pb0.96Ba0.03Na0.01Se1,754,30620,0.0011926,0.00020177,1.0725,0.8584,0.0000326584,0.0011119814
3503,10.1021/ja400069s,105,6(a),203,Pb0.96Ba0.03Na0.01Se1,Pb0.96Ba0.03Na0.01Se1,754.5,30551,0.0011934,0.00020198,1.0718,0.85948,0.0000327322,0.001113454
3503,10.1021/ja400069s,105,6(a),203,Pb0.96Ba0.03Na0.01Se1,Pb0.96Ba0.03Na0.01Se1,755,30482,0.0011943,0.00020218,1.071,0.86056,0.0000328062,0.0011151261
3503,10.1021/ja400069s,105,6(a),203,Pb0.96Ba0.03Na0.01Se1,Pb0.96Ba0.03Na0.01Se1,755.5,30413,0.0011952,0.00020239,1.0702,0.86163,0.0000328807,0.0011168006
3503,10.1021/ja400069s,105,6(a),203,Pb0.96Ba0.03Na0.01Se1,Pb0.96Ba0.03Na0.01Se1,756,30345,0.001196,0.0002026,1.0694,0.86271,0.0000329544,0.0011183841
3503,10.1021/ja400069s,105,6(a),203,Pb0.96Ba0.03Na0.01Se1,Pb0.96Ba0.03Na0.01Se1,756.5,30276,0.0011969,0.0002028,1.0686,0.86378,0.0000330295,0.0011200636
3503,10.1021/ja400069s,105,6(a),203,Pb0.96Ba0.03Na0.01Se1,Pb0.96Ba0.03Na0.01Se1,757,30208,0.0011977,0.00020301,1.0678,0.86486,0.0000331038,0.001121652
3503,10.1021/ja400069s,105,6(a),203,Pb0.96Ba0.03Na0.01Se1,Pb0.96Ba0.03Na0.01Se1,757.5,30140,0.0011986,0.00020321,1.0671,0.86594,0.0000331785,0.0011232312
3503,10.1021/ja400069s,105,6(a),203,Pb0.96Ba0.03Na0.01Se1,Pb0.96Ba0.03Na0.01Se1,758,30072,0.0011995,0.00020342,1.0663,0.86701,0.0000332535,0.0011249179
3503,10.1021/ja400069s,105,6(a),203,Pb0.96Ba0.03Na0.01Se1,Pb0.96Ba0.03Na0.01Se1,758.5,30004,0.0012003,0.00020362,1.0655,0.86809,0.0000333289,0.0011265134
3503,10.1021/ja400069s,105,6(a),203,Pb0.96Ba0.03Na0.01Se1,Pb0.96Ba0.03Na0.01Se1,759,29936,0.0012012,0.00020383,1.0647,0.86916,0.0000334046,0.0011282051
3503,10.1021/ja400069s,105,6(a),203,Pb0.96Ba0.03Na0.01Se1,Pb0.96Ba0.03Na0.01Se1,759.5,29869,0.0012021,0.00020403,1.064,0.87024,0.0000334795,0.0011297932
3503,10.1021/ja400069s,105,6(a),203,Pb0.96Ba0.03Na0.01Se1,Pb0.96Ba0.03Na0.01Se1,760,29801,0.0012029,0.00020424,1.0632,0.87132,0.0000335559,0.0011313958
3503,10.1021/ja400069s,105,6(a),203,Pb0.96Ba0.03Na0.01Se1,Pb0.96Ba0.03Na0.01Se1,760.5,29734,0.0012038,0.00020444,1.0624,0.87239,0.0000336315,0.0011330949
3503,10.1021/ja400069s,105,6(a),203,Pb0.96Ba0.03Na0.01Se1,Pb0.96Ba0.03Na0.01Se1,761,29667,0.0012047,0.00020465,1.0616,0.87347,0.0000337075,0.0011347965
3503,10.1021/ja400069s,105,6(a),203,Pb0.96Ba0.03Na0.01Se1,Pb0.96Ba0.03Na0.01Se1,761.5,29600,0.0012055,0.00020485,1.0609,0.87454,0.0000337838,0.0011362994
3503,10.1021/ja400069s,105,6(a),203,Pb0.96Ba0.03Na0.01Se1,Pb0.96Ba0.03Na0.01Se1,762,29533,0.0012064,0.00020506,1.0601,0.87562,0.0000338604,0.0011380058
3503,10.1021/ja400069s,105,6(a),203,Pb0.96Ba0.03Na0.01Se1,Pb0.96Ba0.03Na0.01Se1,762.5,29467,0.0012072,0.00020526,1.0593,0.8767,0.0000339363,0.0011396205
3503,10.1021/ja400069s,105,6(a),203,Pb0.96Ba0.03Na0.01Se1,Pb0.96Ba0.03Na0.01Se1,763,29400,0.0012081,0.00020547,1.0586,0.87777,0.0000340136,0.0011412243
3503,10.1021/ja400069s,105,6(a),203,Pb0.96Ba0.03Na0.01Se1,Pb0.96Ba0.03Na0.01Se1,763.5,29334,0.001209,0.00020567,1.0578,0.87885,0.0000340901,0.0011429382
3503,10.1021/ja400069s,105,6(a),203,Pb0.96Ba0.03Na0.01Se1,Pb0.96Ba0.03Na0.01Se1,764,29268,0.0012098,0.00020588,1.057,0.87992,0.000034167,0.0011445601
3503,10.1021/ja400069s,105,6(a),203,Pb0.96Ba0.03Na0.01Se1,Pb0.96Ba0.03Na0.01Se1,764.5,29202,0.0012107,0.00020608,1.0563,0.881,0.0000342442,0.0011461706
3503,10.1021/ja400069s,105,6(a),203,Pb0.96Ba0.03Na0.01Se1,Pb0.96Ba0.03Na0.01Se1,765,29137,0.0012116,0.00020629,1.0555,0.88208,0.0000343206,0.001147892
3503,10.1021/ja400069s,105,6(a),203,Pb0.96Ba0.03Na0.01Se1,Pb0.96Ba0.03Na0.01Se1,765.5,29071,0.0012124,0.00020649,1.0547,0.88315,0.0000343985,0.0011495212
3503,10.1021/ja400069s,105,6(a),203,Pb0.96Ba0.03Na0.01Se1,Pb0.96Ba0.03Na0.01Se1,766,29006,0.0012133,0.0002067,1.054,0.88423,0.0000344756,0.0011511385
3503,10.1021/ja400069s,105,6(a),203,Pb0.96Ba0.03Na0.01Se1,Pb0.96Ba0.03Na0.01Se1,766.5,28940,0.0012142,0.0002069,1.0532,0.8853,0.0000345543,0.0011528675
3503,10.1021/ja400069s,105,6(a),203,Pb0.96Ba0.03Na0.01Se1,Pb0.96Ba0.03Na0.01Se1,767,28875,0.001215,0.00020711,1.0525,0.88638,0.000034632,0.0011543943
3503,10.1021/ja400069s,105,6(a),203,Pb0.96Ba0.03Na0.01Se1,Pb0.96Ba0.03Na0.01Se1,767.5,28810,0.0012159,0.00020731,1.0517,0.88746,0.0000347102,0.0011561282
3503,10.1021/ja400069s,105,6(a),203,Pb0.96Ba0.03Na0.01Se1,Pb0.96Ba0.03Na0.01Se1,768,28745,0.0012167,0.00020751,1.0509,0.88853,0.0000347887,0.0011577695
3503,10.1021/ja400069s,105,6(a),203,Pb0.96Ba0.03Na0.01Se1,Pb0.96Ba0.03Na0.01Se1,768.5,28681,0.0012176,0.00020772,1.0502,0.88961,0.0000348663,0.0011593982
3503,10.1021/ja400069s,105,6(a),203,Pb0.96Ba0.03Na0.01Se1,Pb0.96Ba0.03Na0.01Se1,769,28616,0.0012185,0.00020792,1.0494,0.89068,0.0000349455,0.0011611397
3503,10.1021/ja400069s,105,6(a),203,Pb0.96Ba0.03Na0.01Se1,Pb0.96Ba0.03Na0.01Se1,769.5,28552,0.0012193,0.00020813,1.0487,0.89176,0.0000350238,0.0011626776
3503,10.1021/ja400069s,105,6(a),203,Pb0.96Ba0.03Na0.01Se1,Pb0.96Ba0.03Na0.01Se1,770,28488,0.0012202,0.00020833,1.0479,0.89284,0.0000351025,0.0011644241
3503,10.1021/ja400069s,105,6(a),203,Pb0.96Ba0.03Na0.01Se1,Pb0.96Ba0.03Na0.01Se1,770.5,28424,0.0012211,0.00020853,1.0472,0.89391,0.0000351815,0.0011660619
3503,10.1021/ja400069s,105,6(a),203,Pb0.96Ba0.03Na0.01Se1,Pb0.96Ba0.03Na0.01Se1,771,28360,0.0012219,0.00020874,1.0464,0.89499,0.0000352609,0.0011677179
3503,10.1021/ja400069s,105,6(a),203,Pb0.96Ba0.03Na0.01Se1,Pb0.96Ba0.03Na0.01Se1,771.5,28297,0.0012228,0.00020894,1.0457,0.89606,0.0000353394,0.0011693602
3503,10.1021/ja400069s,105,6(a),203,Pb0.96Ba0.03Na0.01Se1,Pb0.96Ba0.03Na0.01Se1,772,28233,0.0012236,0.00020915,1.0449,0.89714,0.0000354195,0.0011710212
3503,10.1021/ja400069s,105,6(a),203,Pb0.96Ba0.03Na0.01Se1,Pb0.96Ba0.03Na0.01Se1,772.5,28170,0.0012245,0.00020935,1.0442,0.89822,0.0000354988,0.0011726681
3503,10.1021/ja400069s,105,6(a),203,Pb0.96Ba0.03Na0.01Se1,Pb0.96Ba0.03Na0.01Se1,773,28107,0.0012254,0.00020955,1.0434,0.89929,0.0000355783,0.0011744297
3503,10.1021/ja400069s,105,6(a),203,Pb0.96Ba0.03Na0.01Se1,Pb0.96Ba0.03Na0.01Se1,773.5,28044,0.0012262,0.00020976,1.0427,0.90037,0.0000356583,0.0011759854
3503,10.1021/ja400069s,105,6(a),203,Pb0.96Ba0.03Na0.01Se1,Pb0.96Ba0.03Na0.01Se1,774,27981,0.0012271,0.00020996,1.042,0.90144,0.0000357385,0.0011776392
3503,10.1021/ja400069s,105,6(a),203,Pb0.96Ba0.03Na0.01Se1,Pb0.96Ba0.03Na0.01Se1,774.5,27918,0.001228,0.00021016,1.0412,0.90252,0.0000358192,0.0011794084
3503,10.1021/ja400069s,105,6(a),203,Pb0.96Ba0.03Na0.01Se1,Pb0.96Ba0.03Na0.01Se1,775,27856,0.0012288,0.00021037,1.0405,0.9036,0.0000358989,0.0011809707
3503,10.1021/ja400069s,105,6(a),203,Pb0.96Ba0.03Na0.01Se1,Pb0.96Ba0.03Na0.01Se1,775.5,27793,0.0012297,0.00021057,1.0397,0.90467,0.0000359803,0.001182745
3503,10.1021/ja400069s,105,6(a),203,Pb0.96Ba0.03Na0.01Se1,Pb0.96Ba0.03Na0.01Se1,776,27731,0.0012306,0.00021077,1.039,0.90575,0.0000360607,0.0011844081
3503,10.1021/ja400069s,105,6(a),203,Pb0.96Ba0.03Na0.01Se1,Pb0.96Ba0.03Na0.01Se1,776.5,27669,0.0012314,0.00021098,1.0383,0.90682,0.0000361415,0.0011859771
3503,10.1021/ja400069s,105,6(a),203,Pb0.96Ba0.03Na0.01Se1,Pb0.96Ba0.03Na0.01Se1,777,27607,0.0012323,0.00021118,1.0375,0.9079,0.0000362227,0.001187759
3503,10.1021/ja400069s,105,6(a),203,Pb0.96Ba0.03Na0.01Se1,Pb0.96Ba0.03Na0.01Se1,777.5,27545,0.0012331,0.00021138,1.0368,0.90898,0.0000363042,0.0011893326
3503,10.1021/ja400069s,105,6(a),203,Pb0.96Ba0.03Na0.01Se1,Pb0.96Ba0.03Na0.01Se1,778,27484,0.001234,0.00021159,1.036,0.91005,0.0000363848,0.0011911197
3503,10.1021/ja400069s,105,6(a),203,Pb0.96Ba0.03Na0.01Se1,Pb0.96Ba0.03Na0.01Se1,778.5,27423,0.0012349,0.00021179,1.0353,0.91113,0.0000364657,0.0011927944