sid,DOI,figureid,fignum,sampleid,samplename,composition,Temperature,Electrical conductivity,Power factor,Seebeck coefficient,Thermal conductivity,ZT,Electrical resistivity,Figure of merit Z
3503,10.1021/ja400069s,105,6(a),393,Pb0.95Ba0.04Na0.01Se1,Pb0.95Ba0.04Na0.01Se1,494,98537,0.00065037,0.00008134,1.7374,0.28406,0.0000101485,0.0003743352
3503,10.1021/ja400069s,105,6(a),393,Pb0.95Ba0.04Na0.01Se1,Pb0.95Ba0.04Na0.01Se1,494.5,98353,0.00065115,0.000081509,1.7357,0.28499,0.0000101675,0.0003751512
3503,10.1021/ja400069s,105,6(a),393,Pb0.95Ba0.04Na0.01Se1,Pb0.95Ba0.04Na0.01Se1,495,98169,0.00065192,0.000081678,1.7339,0.28593,0.0000101865,0.0003759848
3503,10.1021/ja400069s,105,6(a),393,Pb0.95Ba0.04Na0.01Se1,Pb0.95Ba0.04Na0.01Se1,495.5,97986,0.0006527,0.000081847,1.7322,0.28686,0.0000102055,0.0003768041
3503,10.1021/ja400069s,105,6(a),393,Pb0.95Ba0.04Na0.01Se1,Pb0.95Ba0.04Na0.01Se1,496,97802,0.00065347,0.000082017,1.7305,0.2878,0.0000102247,0.0003776192
3503,10.1021/ja400069s,105,6(a),393,Pb0.95Ba0.04Na0.01Se1,Pb0.95Ba0.04Na0.01Se1,496.5,97619,0.00065425,0.000082187,1.7288,0.28873,0.0000102439,0.0003784417
3503,10.1021/ja400069s,105,6(a),393,Pb0.95Ba0.04Na0.01Se1,Pb0.95Ba0.04Na0.01Se1,497,97436,0.00065502,0.000082357,1.727,0.28966,0.0000102631,0.000379282
3503,10.1021/ja400069s,105,6(a),393,Pb0.95Ba0.04Na0.01Se1,Pb0.95Ba0.04Na0.01Se1,497.5,97254,0.0006558,0.000082527,1.7253,0.2906,0.0000102824,0.0003801078
3503,10.1021/ja400069s,105,6(a),393,Pb0.95Ba0.04Na0.01Se1,Pb0.95Ba0.04Na0.01Se1,498,97071,0.00065658,0.000082698,1.7236,0.29153,0.0000103017,0.0003809353
3503,10.1021/ja400069s,105,6(a),393,Pb0.95Ba0.04Na0.01Se1,Pb0.95Ba0.04Na0.01Se1,498.5,96889,0.00065735,0.000082869,1.7219,0.29246,0.0000103211,0.0003817585
3503,10.1021/ja400069s,105,6(a),393,Pb0.95Ba0.04Na0.01Se1,Pb0.95Ba0.04Na0.01Se1,499,96707,0.00065813,0.000083041,1.7202,0.2934,0.0000103405,0.0003825892
3503,10.1021/ja400069s,105,6(a),393,Pb0.95Ba0.04Na0.01Se1,Pb0.95Ba0.04Na0.01Se1,499.5,96525,0.0006589,0.000083212,1.7185,0.29433,0.00001036,0.0003834158
3503,10.1021/ja400069s,105,6(a),393,Pb0.95Ba0.04Na0.01Se1,Pb0.95Ba0.04Na0.01Se1,500,96344,0.00065968,0.000083384,1.7168,0.29527,0.0000103795,0.0003842498
3503,10.1021/ja400069s,105,6(a),393,Pb0.95Ba0.04Na0.01Se1,Pb0.95Ba0.04Na0.01Se1,500.5,96163,0.00066045,0.000083556,1.7151,0.2962,0.000010399,0.0003850796
3503,10.1021/ja400069s,105,6(a),393,Pb0.95Ba0.04Na0.01Se1,Pb0.95Ba0.04Na0.01Se1,501,95982,0.00066123,0.000083729,1.7134,0.29713,0.0000104186,0.0003859169
3503,10.1021/ja400069s,105,6(a),393,Pb0.95Ba0.04Na0.01Se1,Pb0.95Ba0.04Na0.01Se1,501.5,95801,0.000662,0.000083901,1.7117,0.29807,0.0000104383,0.00038675
3503,10.1021/ja400069s,105,6(a),393,Pb0.95Ba0.04Na0.01Se1,Pb0.95Ba0.04Na0.01Se1,502,95620,0.00066278,0.000084075,1.71,0.299,0.0000104581,0.0003875906
3503,10.1021/ja400069s,105,6(a),393,Pb0.95Ba0.04Na0.01Se1,Pb0.95Ba0.04Na0.01Se1,502.5,95440,0.00066355,0.000084248,1.7083,0.29994,0.0000104778,0.0003884271
3503,10.1021/ja400069s,105,6(a),393,Pb0.95Ba0.04Na0.01Se1,Pb0.95Ba0.04Na0.01Se1,503,95260,0.00066433,0.000084422,1.7066,0.30087,0.0000104976,0.0003892711
3503,10.1021/ja400069s,105,6(a),393,Pb0.95Ba0.04Na0.01Se1,Pb0.95Ba0.04Na0.01Se1,503.5,95080,0.0006651,0.000084595,1.7049,0.3018,0.0000105175,0.0003901109
3503,10.1021/ja400069s,105,6(a),393,Pb0.95Ba0.04Na0.01Se1,Pb0.95Ba0.04Na0.01Se1,504,94900,0.00066588,0.00008477,1.7032,0.30274,0.0000105374,0.0003909582
3503,10.1021/ja400069s,105,6(a),393,Pb0.95Ba0.04Na0.01Se1,Pb0.95Ba0.04Na0.01Se1,504.5,94721,0.00066665,0.000084944,1.7015,0.30367,0.0000105573,0.0003918014
3503,10.1021/ja400069s,105,6(a),393,Pb0.95Ba0.04Na0.01Se1,Pb0.95Ba0.04Na0.01Se1,505,94542,0.00066743,0.000085119,1.6999,0.3046,0.0000105773,0.000392629
3503,10.1021/ja400069s,105,6(a),393,Pb0.95Ba0.04Na0.01Se1,Pb0.95Ba0.04Na0.01Se1,505.5,94363,0.0006682,0.000085294,1.6982,0.30554,0.0000105974,0.0003934754
3503,10.1021/ja400069s,105,6(a),393,Pb0.95Ba0.04Na0.01Se1,Pb0.95Ba0.04Na0.01Se1,506,94184,0.00066898,0.000085469,1.6965,0.30647,0.0000106175,0.0003943295
3503,10.1021/ja400069s,105,6(a),393,Pb0.95Ba0.04Na0.01Se1,Pb0.95Ba0.04Na0.01Se1,506.5,94006,0.00066975,0.000085645,1.6948,0.30741,0.0000106376,0.0003951794
3503,10.1021/ja400069s,105,6(a),393,Pb0.95Ba0.04Na0.01Se1,Pb0.95Ba0.04Na0.01Se1,507,93828,0.00067053,0.000085821,1.6932,0.30834,0.0000106578,0.0003960135
3503,10.1021/ja400069s,105,6(a),393,Pb0.95Ba0.04Na0.01Se1,Pb0.95Ba0.04Na0.01Se1,507.5,93650,0.0006713,0.000085997,1.6915,0.30927,0.0000106781,0.0003968667
3503,10.1021/ja400069s,105,6(a),393,Pb0.95Ba0.04Na0.01Se1,Pb0.95Ba0.04Na0.01Se1,508,93472,0.00067208,0.000086174,1.6898,0.31021,0.0000106984,0.0003977275
3503,10.1021/ja400069s,105,6(a),393,Pb0.95Ba0.04Na0.01Se1,Pb0.95Ba0.04Na0.01Se1,508.5,93295,0.00067285,0.000086351,1.6882,0.31114,0.0000107187,0.0003985606
3503,10.1021/ja400069s,105,6(a),393,Pb0.95Ba0.04Na0.01Se1,Pb0.95Ba0.04Na0.01Se1,509,93117,0.00067363,0.000086528,1.6865,0.31208,0.0000107392,0.0003994248
3503,10.1021/ja400069s,105,6(a),393,Pb0.95Ba0.04Na0.01Se1,Pb0.95Ba0.04Na0.01Se1,509.5,92940,0.00067441,0.000086705,1.6849,0.31301,0.0000107596,0.0004002671
3503,10.1021/ja400069s,105,6(a),393,Pb0.95Ba0.04Na0.01Se1,Pb0.95Ba0.04Na0.01Se1,510,92764,0.00067518,0.000086883,1.6832,0.31394,0.00001078,0.0004011288
3503,10.1021/ja400069s,105,6(a),393,Pb0.95Ba0.04Na0.01Se1,Pb0.95Ba0.04Na0.01Se1,510.5,92587,0.00067596,0.000087061,1.6816,0.31488,0.0000108007,0.0004019743
3503,10.1021/ja400069s,105,6(a),393,Pb0.95Ba0.04Na0.01Se1,Pb0.95Ba0.04Na0.01Se1,511,92411,0.00067673,0.000087239,1.6799,0.31581,0.0000108212,0.0004028395
3503,10.1021/ja400069s,105,6(a),393,Pb0.95Ba0.04Na0.01Se1,Pb0.95Ba0.04Na0.01Se1,511.5,92235,0.00067751,0.000087418,1.6783,0.31674,0.0000108419,0.0004036883
3503,10.1021/ja400069s,105,6(a),393,Pb0.95Ba0.04Na0.01Se1,Pb0.95Ba0.04Na0.01Se1,512,92059,0.00067828,0.000087597,1.6766,0.31768,0.0000108626,0.0004045568
3503,10.1021/ja400069s,105,6(a),393,Pb0.95Ba0.04Na0.01Se1,Pb0.95Ba0.04Na0.01Se1,512.5,91883,0.00067906,0.000087776,1.675,0.31861,0.0000108834,0.000405409
3503,10.1021/ja400069s,105,6(a),393,Pb0.95Ba0.04Na0.01Se1,Pb0.95Ba0.04Na0.01Se1,513,91708,0.00067983,0.000087955,1.6733,0.31955,0.0000109042,0.000406281
3503,10.1021/ja400069s,105,6(a),393,Pb0.95Ba0.04Na0.01Se1,Pb0.95Ba0.04Na0.01Se1,513.5,91533,0.00068061,0.000088135,1.6717,0.32048,0.000010925,0.0004071364
3503,10.1021/ja400069s,105,6(a),393,Pb0.95Ba0.04Na0.01Se1,Pb0.95Ba0.04Na0.01Se1,514,91358,0.00068138,0.000088315,1.67,0.32141,0.0000109459,0.000408012
3503,10.1021/ja400069s,105,6(a),393,Pb0.95Ba0.04Na0.01Se1,Pb0.95Ba0.04Na0.01Se1,514.5,91183,0.00068216,0.000088495,1.6684,0.32235,0.000010967,0.0004088708
3503,10.1021/ja400069s,105,6(a),393,Pb0.95Ba0.04Na0.01Se1,Pb0.95Ba0.04Na0.01Se1,515,91009,0.00068293,0.000088676,1.6668,0.32328,0.0000109879,0.0004097252
3503,10.1021/ja400069s,105,6(a),393,Pb0.95Ba0.04Na0.01Se1,Pb0.95Ba0.04Na0.01Se1,515.5,90834,0.00068371,0.000088857,1.6652,0.32421,0.0000110091,0.0004105873
3503,10.1021/ja400069s,105,6(a),393,Pb0.95Ba0.04Na0.01Se1,Pb0.95Ba0.04Na0.01Se1,516,90660,0.00068448,0.000089038,1.6635,0.32515,0.0000110302,0.0004114698
3503,10.1021/ja400069s,105,6(a),393,Pb0.95Ba0.04Na0.01Se1,Pb0.95Ba0.04Na0.01Se1,516.5,90487,0.00068526,0.000089219,1.6619,0.32608,0.0000110513,0.0004123353
3503,10.1021/ja400069s,105,6(a),393,Pb0.95Ba0.04Na0.01Se1,Pb0.95Ba0.04Na0.01Se1,517,90313,0.00068603,0.000089401,1.6603,0.32702,0.0000110726,0.0004131964
3503,10.1021/ja400069s,105,6(a),393,Pb0.95Ba0.04Na0.01Se1,Pb0.95Ba0.04Na0.01Se1,517.5,90140,0.00068681,0.000089583,1.6587,0.32795,0.0000110939,0.0004140652
3503,10.1021/ja400069s,105,6(a),393,Pb0.95Ba0.04Na0.01Se1,Pb0.95Ba0.04Na0.01Se1,518,89967,0.00068758,0.000089765,1.657,0.32888,0.0000111152,0.0004149547
3503,10.1021/ja400069s,105,6(a),393,Pb0.95Ba0.04Na0.01Se1,Pb0.95Ba0.04Na0.01Se1,518.5,89794,0.00068836,0.000089948,1.6554,0.32982,0.0000111366,0.000415827
3503,10.1021/ja400069s,105,6(a),393,Pb0.95Ba0.04Na0.01Se1,Pb0.95Ba0.04Na0.01Se1,519,89621,0.00068913,0.000090131,1.6538,0.33075,0.0000111581,0.0004166949
3503,10.1021/ja400069s,105,6(a),393,Pb0.95Ba0.04Na0.01Se1,Pb0.95Ba0.04Na0.01Se1,519.5,89449,0.00068991,0.000090314,1.6522,0.33169,0.0000111796,0.0004175705
3503,10.1021/ja400069s,105,6(a),393,Pb0.95Ba0.04Na0.01Se1,Pb0.95Ba0.04Na0.01Se1,520,89277,0.00069068,0.000090497,1.6506,0.33262,0.0000112011,0.0004184418
3503,10.1021/ja400069s,105,6(a),393,Pb0.95Ba0.04Na0.01Se1,Pb0.95Ba0.04Na0.01Se1,520.5,89105,0.00069146,0.000090681,1.649,0.33355,0.0000112227,0.0004193208
3503,10.1021/ja400069s,105,6(a),393,Pb0.95Ba0.04Na0.01Se1,Pb0.95Ba0.04Na0.01Se1,521,88933,0.00069224,0.000090865,1.6474,0.33449,0.0000112444,0.0004202015
3503,10.1021/ja400069s,105,6(a),393,Pb0.95Ba0.04Na0.01Se1,Pb0.95Ba0.04Na0.01Se1,521.5,88762,0.00069301,0.000091049,1.6458,0.33542,0.0000112661,0.0004210779
3503,10.1021/ja400069s,105,6(a),393,Pb0.95Ba0.04Na0.01Se1,Pb0.95Ba0.04Na0.01Se1,522,88590,0.00069379,0.000091234,1.6442,0.33635,0.000011288,0.000421962
3503,10.1021/ja400069s,105,6(a),393,Pb0.95Ba0.04Na0.01Se1,Pb0.95Ba0.04Na0.01Se1,522.5,88419,0.00069456,0.000091419,1.6426,0.33729,0.0000113098,0.0004228418
3503,10.1021/ja400069s,105,6(a),393,Pb0.95Ba0.04Na0.01Se1,Pb0.95Ba0.04Na0.01Se1,523,88248,0.00069534,0.000091604,1.641,0.33822,0.0000113317,0.0004237294
3503,10.1021/ja400069s,105,6(a),393,Pb0.95Ba0.04Na0.01Se1,Pb0.95Ba0.04Na0.01Se1,523.5,88078,0.00069611,0.000091789,1.6394,0.33916,0.0000113536,0.0004246127
3503,10.1021/ja400069s,105,6(a),393,Pb0.95Ba0.04Na0.01Se1,Pb0.95Ba0.04Na0.01Se1,524,87908,0.00069689,0.000091975,1.6378,0.34009,0.0000113755,0.0004255037
3503,10.1021/ja400069s,105,6(a),393,Pb0.95Ba0.04Na0.01Se1,Pb0.95Ba0.04Na0.01Se1,524.5,87738,0.00069766,0.000092161,1.6362,0.34102,0.0000113976,0.0004263904
3503,10.1021/ja400069s,105,6(a),393,Pb0.95Ba0.04Na0.01Se1,Pb0.95Ba0.04Na0.01Se1,525,87568,0.00069844,0.000092347,1.6346,0.34196,0.0000114197,0.000427285
3503,10.1021/ja400069s,105,6(a),393,Pb0.95Ba0.04Na0.01Se1,Pb0.95Ba0.04Na0.01Se1,525.5,87398,0.00069921,0.000092534,1.6331,0.34289,0.0000114419,0.0004281489
3503,10.1021/ja400069s,105,6(a),393,Pb0.95Ba0.04Na0.01Se1,Pb0.95Ba0.04Na0.01Se1,526,87229,0.00069999,0.000092721,1.6315,0.34383,0.0000114641,0.0004290469
3503,10.1021/ja400069s,105,6(a),393,Pb0.95Ba0.04Na0.01Se1,Pb0.95Ba0.04Na0.01Se1,526.5,87059,0.00070076,0.000092908,1.6299,0.34476,0.0000114865,0.0004299405
3503,10.1021/ja400069s,105,6(a),393,Pb0.95Ba0.04Na0.01Se1,Pb0.95Ba0.04Na0.01Se1,527,86890,0.00070154,0.000093095,1.6283,0.34569,0.0000115088,0.000430842
3503,10.1021/ja400069s,105,6(a),393,Pb0.95Ba0.04Na0.01Se1,Pb0.95Ba0.04Na0.01Se1,527.5,86722,0.00070231,0.000093283,1.6267,0.34663,0.0000115311,0.0004317391
3503,10.1021/ja400069s,105,6(a),393,Pb0.95Ba0.04Na0.01Se1,Pb0.95Ba0.04Na0.01Se1,528,86553,0.00070309,0.000093471,1.6252,0.34756,0.0000115536,0.0004326175
3503,10.1021/ja400069s,105,6(a),393,Pb0.95Ba0.04Na0.01Se1,Pb0.95Ba0.04Na0.01Se1,528.5,86385,0.00070386,0.000093659,1.6236,0.34849,0.0000115761,0.0004335181
3503,10.1021/ja400069s,105,6(a),393,Pb0.95Ba0.04Na0.01Se1,Pb0.95Ba0.04Na0.01Se1,529,86217,0.00070464,0.000093848,1.622,0.34943,0.0000115986,0.0004344266
3503,10.1021/ja400069s,105,6(a),393,Pb0.95Ba0.04Na0.01Se1,Pb0.95Ba0.04Na0.01Se1,529.5,86049,0.00070541,0.000094036,1.6205,0.35036,0.0000116213,0.0004353039
3503,10.1021/ja400069s,105,6(a),393,Pb0.95Ba0.04Na0.01Se1,Pb0.95Ba0.04Na0.01Se1,530,85881,0.00070619,0.000094225,1.6189,0.3513,0.000011644,0.0004362159
3503,10.1021/ja400069s,105,6(a),393,Pb0.95Ba0.04Na0.01Se1,Pb0.95Ba0.04Na0.01Se1,530.5,85714,0.00070696,0.000094415,1.6174,0.35223,0.0000116667,0.0004370966
3503,10.1021/ja400069s,105,6(a),393,Pb0.95Ba0.04Na0.01Se1,Pb0.95Ba0.04Na0.01Se1,531,85547,0.00070774,0.000094604,1.6158,0.35316,0.0000116895,0.0004380121
3503,10.1021/ja400069s,105,6(a),393,Pb0.95Ba0.04Na0.01Se1,Pb0.95Ba0.04Na0.01Se1,531.5,85380,0.00070851,0.000094794,1.6142,0.3541,0.0000117123,0.0004389233
3503,10.1021/ja400069s,105,6(a),393,Pb0.95Ba0.04Na0.01Se1,Pb0.95Ba0.04Na0.01Se1,532,85213,0.00070929,0.000094985,1.6127,0.35503,0.0000117353,0.0004398152
3503,10.1021/ja400069s,105,6(a),393,Pb0.95Ba0.04Na0.01Se1,Pb0.95Ba0.04Na0.01Se1,532.5,85047,0.00071007,0.000095175,1.6111,0.35597,0.0000117582,0.0004407361
3503,10.1021/ja400069s,105,6(a),393,Pb0.95Ba0.04Na0.01Se1,Pb0.95Ba0.04Na0.01Se1,533,84881,0.00071084,0.000095366,1.6096,0.3569,0.0000117812,0.0004416252
3503,10.1021/ja400069s,105,6(a),393,Pb0.95Ba0.04Na0.01Se1,Pb0.95Ba0.04Na0.01Se1,533.5,84715,0.00071162,0.000095557,1.608,0.35783,0.0000118043,0.0004425498
3503,10.1021/ja400069s,105,6(a),393,Pb0.95Ba0.04Na0.01Se1,Pb0.95Ba0.04Na0.01Se1,534,84549,0.00071239,0.000095748,1.6065,0.35877,0.0000118275,0.0004434423
3503,10.1021/ja400069s,105,6(a),393,Pb0.95Ba0.04Na0.01Se1,Pb0.95Ba0.04Na0.01Se1,534.5,84383,0.00071317,0.00009594,1.6049,0.3597,0.0000118507,0.0004443704
3503,10.1021/ja400069s,105,6(a),393,Pb0.95Ba0.04Na0.01Se1,Pb0.95Ba0.04Na0.01Se1,535,84218,0.00071394,0.000096132,1.6034,0.36063,0.0000118739,0.0004452663
3503,10.1021/ja400069s,105,6(a),393,Pb0.95Ba0.04Na0.01Se1,Pb0.95Ba0.04Na0.01Se1,535.5,84053,0.00071472,0.000096324,1.6019,0.36157,0.0000118973,0.0004461702
3503,10.1021/ja400069s,105,6(a),393,Pb0.95Ba0.04Na0.01Se1,Pb0.95Ba0.04Na0.01Se1,536,83888,0.00071549,0.000096516,1.6003,0.3625,0.0000119207,0.0004470974
3503,10.1021/ja400069s,105,6(a),393,Pb0.95Ba0.04Na0.01Se1,Pb0.95Ba0.04Na0.01Se1,536.5,83723,0.00071627,0.000096709,1.5988,0.36344,0.0000119441,0.0004480048
3503,10.1021/ja400069s,105,6(a),393,Pb0.95Ba0.04Na0.01Se1,Pb0.95Ba0.04Na0.01Se1,537,83559,0.00071704,0.000096902,1.5973,0.36437,0.0000119676,0.0004489075
3503,10.1021/ja400069s,105,6(a),393,Pb0.95Ba0.04Na0.01Se1,Pb0.95Ba0.04Na0.01Se1,537.5,83395,0.00071782,0.000097095,1.5957,0.3653,0.0000119911,0.0004498465
3503,10.1021/ja400069s,105,6(a),393,Pb0.95Ba0.04Na0.01Se1,Pb0.95Ba0.04Na0.01Se1,538,83231,0.00071859,0.000097289,1.5942,0.36624,0.0000120148,0.0004507527
3503,10.1021/ja400069s,105,6(a),393,Pb0.95Ba0.04Na0.01Se1,Pb0.95Ba0.04Na0.01Se1,538.5,83067,0.00071937,0.000097482,1.5927,0.36717,0.0000120385,0.000451667
3503,10.1021/ja400069s,105,6(a),393,Pb0.95Ba0.04Na0.01Se1,Pb0.95Ba0.04Na0.01Se1,539,82903,0.00072014,0.000097676,1.5912,0.36811,0.0000120623,0.0004525767
3503,10.1021/ja400069s,105,6(a),393,Pb0.95Ba0.04Na0.01Se1,Pb0.95Ba0.04Na0.01Se1,539.5,82740,0.00072092,0.000097871,1.5896,0.36904,0.0000120861,0.0004535229
3503,10.1021/ja400069s,105,6(a),393,Pb0.95Ba0.04Na0.01Se1,Pb0.95Ba0.04Na0.01Se1,540,82577,0.00072169,0.000098065,1.5881,0.36997,0.0000121099,0.0004544361
3503,10.1021/ja400069s,105,6(a),393,Pb0.95Ba0.04Na0.01Se1,Pb0.95Ba0.04Na0.01Se1,540.5,82414,0.00072247,0.00009826,1.5866,0.37091,0.0000121339,0.0004553574
3503,10.1021/ja400069s,105,6(a),393,Pb0.95Ba0.04Na0.01Se1,Pb0.95Ba0.04Na0.01Se1,541,82252,0.00072324,0.000098455,1.5851,0.37184,0.0000121578,0.0004562741
3503,10.1021/ja400069s,105,6(a),393,Pb0.95Ba0.04Na0.01Se1,Pb0.95Ba0.04Na0.01Se1,541.5,82089,0.00072402,0.000098651,1.5836,0.37277,0.0000121819,0.0004571988
3503,10.1021/ja400069s,105,6(a),393,Pb0.95Ba0.04Na0.01Se1,Pb0.95Ba0.04Na0.01Se1,542,81927,0.00072479,0.000098847,1.5821,0.37371,0.000012206,0.000458119
3503,10.1021/ja400069s,105,6(a),393,Pb0.95Ba0.04Na0.01Se1,Pb0.95Ba0.04Na0.01Se1,542.5,81765,0.00072557,0.000099042,1.5806,0.37464,0.0000122302,0.0004590472
3503,10.1021/ja400069s,105,6(a),393,Pb0.95Ba0.04Na0.01Se1,Pb0.95Ba0.04Na0.01Se1,543,81603,0.00072634,0.000099239,1.579,0.37558,0.0000122545,0.00046
3503,10.1021/ja400069s,105,6(a),393,Pb0.95Ba0.04Na0.01Se1,Pb0.95Ba0.04Na0.01Se1,543.5,81442,0.00072712,0.000099435,1.5775,0.37651,0.0000122787,0.0004609319
3503,10.1021/ja400069s,105,6(a),393,Pb0.95Ba0.04Na0.01Se1,Pb0.95Ba0.04Na0.01Se1,544,81280,0.0007279,0.000099632,1.576,0.37744,0.0000123031,0.0004618655
3503,10.1021/ja400069s,105,6(a),393,Pb0.95Ba0.04Na0.01Se1,Pb0.95Ba0.04Na0.01Se1,544.5,81119,0.00072867,0.000099829,1.5745,0.37838,0.0000123276,0.0004627945
3503,10.1021/ja400069s,105,6(a),393,Pb0.95Ba0.04Na0.01Se1,Pb0.95Ba0.04Na0.01Se1,545,80958,0.00072945,0.00010003,1.573,0.37931,0.0000123521,0.0004637317
3503,10.1021/ja400069s,105,6(a),393,Pb0.95Ba0.04Na0.01Se1,Pb0.95Ba0.04Na0.01Se1,545.5,80798,0.00073022,0.00010022,1.5715,0.38025,0.0000123765,0.0004646643
3503,10.1021/ja400069s,105,6(a),393,Pb0.95Ba0.04Na0.01Se1,Pb0.95Ba0.04Na0.01Se1,546,80637,0.000731,0.00010042,1.5701,0.38118,0.0000124013,0.0004655754
3503,10.1021/ja400069s,105,6(a),393,Pb0.95Ba0.04Na0.01Se1,Pb0.95Ba0.04Na0.01Se1,546.5,80477,0.00073177,0.00010062,1.5686,0.38211,0.0000124259,0.0004665115
3503,10.1021/ja400069s,105,6(a),393,Pb0.95Ba0.04Na0.01Se1,Pb0.95Ba0.04Na0.01Se1,547,80317,0.00073255,0.00010082,1.5671,0.38305,0.0000124507,0.0004674558
3503,10.1021/ja400069s,105,6(a),393,Pb0.95Ba0.04Na0.01Se1,Pb0.95Ba0.04Na0.01Se1,547.5,80158,0.00073332,0.00010102,1.5656,0.38398,0.0000124754,0.0004683955
3503,10.1021/ja400069s,105,6(a),393,Pb0.95Ba0.04Na0.01Se1,Pb0.95Ba0.04Na0.01Se1,548,79998,0.0007341,0.00010122,1.5641,0.38491,0.0000125003,0.0004693434
3503,10.1021/ja400069s,105,6(a),393,Pb0.95Ba0.04Na0.01Se1,Pb0.95Ba0.04Na0.01Se1,548.5,79839,0.00073487,0.00010141,1.5626,0.38585,0.0000125252,0.0004702867
3503,10.1021/ja400069s,105,6(a),393,Pb0.95Ba0.04Na0.01Se1,Pb0.95Ba0.04Na0.01Se1,549,79680,0.00073565,0.00010161,1.5611,0.38678,0.0000125502,0.0004712382
3503,10.1021/ja400069s,105,6(a),393,Pb0.95Ba0.04Na0.01Se1,Pb0.95Ba0.04Na0.01Se1,549.5,79521,0.00073642,0.00010181,1.5597,0.38772,0.0000125753,0.0004721549
3503,10.1021/ja400069s,105,6(a),393,Pb0.95Ba0.04Na0.01Se1,Pb0.95Ba0.04Na0.01Se1,550,79362,0.0007372,0.00010201,1.5582,0.38865,0.0000126005,0.00047311
3503,10.1021/ja400069s,105,6(a),393,Pb0.95Ba0.04Na0.01Se1,Pb0.95Ba0.04Na0.01Se1,550.5,79204,0.00073797,0.00010221,1.5567,0.38958,0.0000126256,0.0004740605
3503,10.1021/ja400069s,105,6(a),393,Pb0.95Ba0.04Na0.01Se1,Pb0.95Ba0.04Na0.01Se1,551,79046,0.00073875,0.00010241,1.5552,0.39052,0.0000126509,0.0004750193
3503,10.1021/ja400069s,105,6(a),393,Pb0.95Ba0.04Na0.01Se1,Pb0.95Ba0.04Na0.01Se1,551.5,78888,0.00073952,0.00010262,1.5538,0.39145,0.0000126762,0.0004759428
3503,10.1021/ja400069s,105,6(a),393,Pb0.95Ba0.04Na0.01Se1,Pb0.95Ba0.04Na0.01Se1,552,78730,0.0007403,0.00010282,1.5523,0.39239,0.0000127016,0.0004769052
3503,10.1021/ja400069s,105,6(a),393,Pb0.95Ba0.04Na0.01Se1,Pb0.95Ba0.04Na0.01Se1,552.5,78572,0.00074107,0.00010302,1.5508,0.39332,0.0000127272,0.000477863
3503,10.1021/ja400069s,105,6(a),393,Pb0.95Ba0.04Na0.01Se1,Pb0.95Ba0.04Na0.01Se1,553,78415,0.00074185,0.00010322,1.5494,0.39425,0.0000127527,0.0004787982
3503,10.1021/ja400069s,105,6(a),393,Pb0.95Ba0.04Na0.01Se1,Pb0.95Ba0.04Na0.01Se1,553.5,78258,0.00074262,0.00010342,1.5479,0.39519,0.0000127782,0.0004797597
3503,10.1021/ja400069s,105,6(a),393,Pb0.95Ba0.04Na0.01Se1,Pb0.95Ba0.04Na0.01Se1,554,78101,0.0007434,0.00010362,1.5464,0.39612,0.0000128039,0.0004807294
3503,10.1021/ja400069s,105,6(a),393,Pb0.95Ba0.04Na0.01Se1,Pb0.95Ba0.04Na0.01Se1,554.5,77945,0.00074417,0.00010383,1.545,0.39705,0.0000128296,0.0004816634
3503,10.1021/ja400069s,105,6(a),393,Pb0.95Ba0.04Na0.01Se1,Pb0.95Ba0.04Na0.01Se1,555,77788,0.00074495,0.00010403,1.5435,0.39799,0.0000128555,0.0004826369
3503,10.1021/ja400069s,105,6(a),393,Pb0.95Ba0.04Na0.01Se1,Pb0.95Ba0.04Na0.01Se1,555.5,77632,0.00074573,0.00010423,1.5421,0.39892,0.0000128813,0.0004835808
3503,10.1021/ja400069s,105,6(a),393,Pb0.95Ba0.04Na0.01Se1,Pb0.95Ba0.04Na0.01Se1,556,77476,0.0007465,0.00010443,1.5406,0.39986,0.0000129072,0.0004845515
3503,10.1021/ja400069s,105,6(a),393,Pb0.95Ba0.04Na0.01Se1,Pb0.95Ba0.04Na0.01Se1,556.5,77320,0.00074728,0.00010464,1.5392,0.40079,0.0000129333,0.000485499
3503,10.1021/ja400069s,105,6(a),393,Pb0.95Ba0.04Na0.01Se1,Pb0.95Ba0.04Na0.01Se1,557,77165,0.00074805,0.00010484,1.5377,0.40172,0.0000129592,0.0004864733
3503,10.1021/ja400069s,105,6(a),393,Pb0.95Ba0.04Na0.01Se1,Pb0.95Ba0.04Na0.01Se1,557.5,77009,0.00074883,0.00010504,1.5363,0.40266,0.0000129855,0.0004874243