sid,DOI,figureid,fignum,sampleid,samplename,composition,Temperature,Electrical conductivity,Power factor,Seebeck coefficient,Thermal conductivity,ZT,Electrical resistivity,Figure of merit Z
3503,10.1021/ja400069s,105,6(a),286,Pb0.98Sr0.01Na0.01Se1,Pb0.98Sr0.01Na0.01Se1,891.5,,0.0014825,0.00023821,1.1161,0.97255,,0.001328286
3503,10.1021/ja400069s,105,6(a),286,Pb0.98Sr0.01Na0.01Se1,Pb0.98Sr0.01Na0.01Se1,892,,0.0014836,0.00023848,1.1157,0.97353,,0.0013297481
3503,10.1021/ja400069s,105,6(a),286,Pb0.98Sr0.01Na0.01Se1,Pb0.98Sr0.01Na0.01Se1,892.5,,0.0014846,0.00023875,1.1153,0.9745,,0.0013311217
3503,10.1021/ja400069s,105,6(a),286,Pb0.98Sr0.01Na0.01Se1,Pb0.98Sr0.01Na0.01Se1,893,,0.0014856,0.00023902,1.1149,0.97548,,0.0013324962
3503,10.1021/ja400069s,105,6(a),286,Pb0.98Sr0.01Na0.01Se1,Pb0.98Sr0.01Na0.01Se1,893.5,,0.0014866,0.00023929,1.1145,0.97645,,0.0013338717
3503,10.1021/ja400069s,105,6(a),286,Pb0.98Sr0.01Na0.01Se1,Pb0.98Sr0.01Na0.01Se1,894,,0.0014876,0.00023956,1.1141,0.97743,,0.0013352482
3503,10.1021/ja400069s,105,6(a),286,Pb0.98Sr0.01Na0.01Se1,Pb0.98Sr0.01Na0.01Se1,894.5,,0.0014886,0.00023983,1.1136,0.9784,,0.0013367457
3503,10.1021/ja400069s,105,6(a),286,Pb0.98Sr0.01Na0.01Se1,Pb0.98Sr0.01Na0.01Se1,895,,0.0014896,0.0002401,1.1132,0.97938,,0.0013381243
3503,10.1021/ja400069s,105,6(a),286,Pb0.98Sr0.01Na0.01Se1,Pb0.98Sr0.01Na0.01Se1,895.5,,0.0014907,0.00024037,1.1128,0.98035,,0.0013395938
3503,10.1021/ja400069s,105,6(a),286,Pb0.98Sr0.01Na0.01Se1,Pb0.98Sr0.01Na0.01Se1,896,,0.0014917,0.00024065,1.1124,0.98133,,0.0013409745
3503,10.1021/ja400069s,105,6(a),286,Pb0.98Sr0.01Na0.01Se1,Pb0.98Sr0.01Na0.01Se1,896.5,,0.0014927,0.00024092,1.112,0.9823,,0.0013423561
3503,10.1021/ja400069s,105,6(a),286,Pb0.98Sr0.01Na0.01Se1,Pb0.98Sr0.01Na0.01Se1,897,,0.0014937,0.00024119,1.1117,0.98328,,0.0013436179
3503,10.1021/ja400069s,105,6(a),286,Pb0.98Sr0.01Na0.01Se1,Pb0.98Sr0.01Na0.01Se1,897.5,,0.0014947,0.00024146,1.1113,0.98425,,0.0013450013
3503,10.1021/ja400069s,105,6(a),286,Pb0.98Sr0.01Na0.01Se1,Pb0.98Sr0.01Na0.01Se1,898,,0.0014957,0.00024173,1.1109,0.98523,,0.0013463858
3503,10.1021/ja400069s,105,6(a),286,Pb0.98Sr0.01Na0.01Se1,Pb0.98Sr0.01Na0.01Se1,898.5,,0.0014968,0.00024201,1.1105,0.9862,,0.0013478613
3503,10.1021/ja400069s,105,6(a),286,Pb0.98Sr0.01Na0.01Se1,Pb0.98Sr0.01Na0.01Se1,899,,0.0014978,0.00024228,1.1101,0.98717,,0.0013492478
3503,10.1021/ja400069s,105,6(a),286,Pb0.98Sr0.01Na0.01Se1,Pb0.98Sr0.01Na0.01Se1,899.5,,0.0014988,0.00024255,1.1097,0.98815,,0.0013506353
3503,10.1021/ja400069s,105,6(a),286,Pb0.98Sr0.01Na0.01Se1,Pb0.98Sr0.01Na0.01Se1,900,,0.0014998,0.00024283,1.1094,0.98912,,0.0013519019
3503,10.1021/ja400069s,105,6(a),286,Pb0.98Sr0.01Na0.01Se1,Pb0.98Sr0.01Na0.01Se1,900.5,,0.0015008,0.0002431,1.109,0.9901,,0.0013532913
3503,10.1021/ja400069s,105,6(a),286,Pb0.98Sr0.01Na0.01Se1,Pb0.98Sr0.01Na0.01Se1,901,,0.0015018,0.00024338,1.1086,0.99107,,0.0013546816
3503,10.1021/ja400069s,105,6(a),286,Pb0.98Sr0.01Na0.01Se1,Pb0.98Sr0.01Na0.01Se1,901.5,,0.0015028,0.00024365,1.1083,0.99205,,0.0013559506
3503,10.1021/ja400069s,105,6(a),286,Pb0.98Sr0.01Na0.01Se1,Pb0.98Sr0.01Na0.01Se1,902,,0.0015039,0.00024393,1.1079,0.99302,,0.001357433
3503,10.1021/ja400069s,105,6(a),286,Pb0.98Sr0.01Na0.01Se1,Pb0.98Sr0.01Na0.01Se1,902.5,,0.0015049,0.0002442,1.1075,0.994,,0.0013588262
3503,10.1021/ja400069s,105,6(a),286,Pb0.98Sr0.01Na0.01Se1,Pb0.98Sr0.01Na0.01Se1,903,,0.0015059,0.00024448,1.1072,0.99497,,0.0013600975
3503,10.1021/ja400069s,105,6(a),286,Pb0.98Sr0.01Na0.01Se1,Pb0.98Sr0.01Na0.01Se1,903.5,,0.0015069,0.00024476,1.1068,0.99595,,0.0013614926
3503,10.1021/ja400069s,105,6(a),286,Pb0.98Sr0.01Na0.01Se1,Pb0.98Sr0.01Na0.01Se1,904,,0.0015079,0.00024503,1.1065,0.99692,,0.0013627655
3503,10.1021/ja400069s,105,6(a),286,Pb0.98Sr0.01Na0.01Se1,Pb0.98Sr0.01Na0.01Se1,904.5,,0.0015089,0.00024531,1.1061,0.9979,,0.0013641624
3503,10.1021/ja400069s,105,6(a),286,Pb0.98Sr0.01Na0.01Se1,Pb0.98Sr0.01Na0.01Se1,905,,0.00151,0.00024559,1.1058,0.99887,,0.0013655272
3503,10.1021/ja400069s,105,6(a),286,Pb0.98Sr0.01Na0.01Se1,Pb0.98Sr0.01Na0.01Se1,905.5,,,0.00024587,1.1055,0.99985,,
3503,10.1021/ja400069s,105,6(a),286,Pb0.98Sr0.01Na0.01Se1,Pb0.98Sr0.01Na0.01Se1,906,,,0.00024614,1.1051,1.0008,,
3503,10.1021/ja400069s,31,7(b),286,Pb0.98Sr0.01Na0.01Se1,Pb0.98Sr0.01Na0.01Se1,906.5,,,,1.1048,1.0018,,
3503,10.1021/ja400069s,4876,16,286,Pb0.98Sr0.01Na0.01Se1,Pb0.98Sr0.01Na0.01Se1,907,,,,,1.0028,,
3503,10.1021/ja400069s,4876,16,286,Pb0.98Sr0.01Na0.01Se1,Pb0.98Sr0.01Na0.01Se1,907.5,,,,,1.0037,,
3503,10.1021/ja400069s,4876,16,286,Pb0.98Sr0.01Na0.01Se1,Pb0.98Sr0.01Na0.01Se1,908,,,,,1.0047,,
3503,10.1021/ja400069s,4876,16,286,Pb0.98Sr0.01Na0.01Se1,Pb0.98Sr0.01Na0.01Se1,908.5,,,,,1.0057,,
3503,10.1021/ja400069s,4876,16,286,Pb0.98Sr0.01Na0.01Se1,Pb0.98Sr0.01Na0.01Se1,909,,,,,1.0067,,
3503,10.1021/ja400069s,105,6(a),381,Pb0.98Ba0.01Na0.01Se1,Pb0.98Ba0.01Na0.01Se1,302.5,268910,0.000213,0.000028144,3.4945,0.018438,0.0000037187,0.0000609529
3503,10.1021/ja400069s,105,6(a),381,Pb0.98Ba0.01Na0.01Se1,Pb0.98Ba0.01Na0.01Se1,303,268440,0.00021334,0.000028191,3.4908,-0.17179,0.0000037252,0.0000611149
3503,10.1021/ja400069s,105,6(a),381,Pb0.98Ba0.01Na0.01Se1,Pb0.98Ba0.01Na0.01Se1,303.5,267970,0.00021368,0.000028238,3.4871,-0.17082,0.0000037318,0.0000612773
3503,10.1021/ja400069s,105,6(a),381,Pb0.98Ba0.01Na0.01Se1,Pb0.98Ba0.01Na0.01Se1,304,267500,0.00021403,0.000028286,3.4834,-0.16985,0.0000037383,0.0000614428
3503,10.1021/ja400069s,105,6(a),381,Pb0.98Ba0.01Na0.01Se1,Pb0.98Ba0.01Na0.01Se1,304.5,267030,0.00021438,0.000028334,3.4797,-0.16888,0.0000037449,0.0000616088
3503,10.1021/ja400069s,105,6(a),381,Pb0.98Ba0.01Na0.01Se1,Pb0.98Ba0.01Na0.01Se1,305,266570,0.00021475,0.000028383,3.476,-0.16791,0.0000037514,0.0000617808
3503,10.1021/ja400069s,105,6(a),381,Pb0.98Ba0.01Na0.01Se1,Pb0.98Ba0.01Na0.01Se1,305.5,266100,0.00021509,0.000028431,3.4724,-0.16693,0.000003758,0.0000619427
3503,10.1021/ja400069s,105,6(a),381,Pb0.98Ba0.01Na0.01Se1,Pb0.98Ba0.01Na0.01Se1,306,265630,0.00021547,0.000028481,3.4687,-0.16596,0.0000037646,0.0000621184
3503,10.1021/ja400069s,105,6(a),381,Pb0.98Ba0.01Na0.01Se1,Pb0.98Ba0.01Na0.01Se1,306.5,265170,0.00021585,0.000028531,3.465,-0.16499,0.0000037712,0.0000622944
3503,10.1021/ja400069s,105,6(a),381,Pb0.98Ba0.01Na0.01Se1,Pb0.98Ba0.01Na0.01Se1,307,264700,0.00021623,0.000028581,3.4613,-0.16402,0.0000037779,0.0000624707
3503,10.1021/ja400069s,105,6(a),381,Pb0.98Ba0.01Na0.01Se1,Pb0.98Ba0.01Na0.01Se1,307.5,264230,0.0002166,0.000028631,3.4577,-0.16305,0.0000037846,0.0000626428
3503,10.1021/ja400069s,105,6(a),381,Pb0.98Ba0.01Na0.01Se1,Pb0.98Ba0.01Na0.01Se1,308,263770,0.00021699,0.000028682,3.454,-0.16208,0.0000037912,0.0000628228
3503,10.1021/ja400069s,105,6(a),381,Pb0.98Ba0.01Na0.01Se1,Pb0.98Ba0.01Na0.01Se1,308.5,263300,0.00021739,0.000028734,3.4503,-0.16111,0.0000037979,0.0000630061
3503,10.1021/ja400069s,105,6(a),381,Pb0.98Ba0.01Na0.01Se1,Pb0.98Ba0.01Na0.01Se1,309,262840,0.0002178,0.000028786,3.4467,-0.16014,0.0000038046,0.0000631909
3503,10.1021/ja400069s,105,6(a),381,Pb0.98Ba0.01Na0.01Se1,Pb0.98Ba0.01Na0.01Se1,309.5,262380,0.0002182,0.000028838,3.443,-0.15916,0.0000038113,0.000063375
3503,10.1021/ja400069s,105,6(a),381,Pb0.98Ba0.01Na0.01Se1,Pb0.98Ba0.01Na0.01Se1,310,261910,0.00021861,0.000028891,3.4393,-0.15819,0.0000038181,0.0000635624
3503,10.1021/ja400069s,105,6(a),381,Pb0.98Ba0.01Na0.01Se1,Pb0.98Ba0.01Na0.01Se1,310.5,261450,0.00021903,0.000028944,3.4357,-0.15722,0.0000038248,0.0000637512
3503,10.1021/ja400069s,105,6(a),381,Pb0.98Ba0.01Na0.01Se1,Pb0.98Ba0.01Na0.01Se1,311,260990,0.00021945,0.000028997,3.432,-0.15625,0.0000038316,0.0000639423
3503,10.1021/ja400069s,105,6(a),381,Pb0.98Ba0.01Na0.01Se1,Pb0.98Ba0.01Na0.01Se1,311.5,260520,0.00021987,0.000029051,3.4284,-0.15528,0.0000038385,0.000064132
3503,10.1021/ja400069s,105,6(a),381,Pb0.98Ba0.01Na0.01Se1,Pb0.98Ba0.01Na0.01Se1,312,260060,0.0002203,0.000029105,3.4247,-0.15431,0.0000038453,0.0000643268
3503,10.1021/ja400069s,105,6(a),381,Pb0.98Ba0.01Na0.01Se1,Pb0.98Ba0.01Na0.01Se1,312.5,259600,0.00022074,0.00002916,3.421,-0.15334,0.0000038521,0.000064525
3503,10.1021/ja400069s,105,6(a),381,Pb0.98Ba0.01Na0.01Se1,Pb0.98Ba0.01Na0.01Se1,313,259140,0.00022118,0.000029215,3.4174,-0.15237,0.0000038589,0.0000647217
3503,10.1021/ja400069s,105,6(a),381,Pb0.98Ba0.01Na0.01Se1,Pb0.98Ba0.01Na0.01Se1,313.5,258680,0.00022163,0.000029271,3.4138,-0.15139,0.0000038658,0.0000649218
3503,10.1021/ja400069s,105,6(a),381,Pb0.98Ba0.01Na0.01Se1,Pb0.98Ba0.01Na0.01Se1,314,258220,0.00022209,0.000029327,3.4101,-0.15042,0.0000038727,0.0000651271
3503,10.1021/ja400069s,105,6(a),381,Pb0.98Ba0.01Na0.01Se1,Pb0.98Ba0.01Na0.01Se1,314.5,257760,0.00022254,0.000029383,3.4065,-0.14945,0.0000038796,0.000065328
3503,10.1021/ja400069s,105,6(a),381,Pb0.98Ba0.01Na0.01Se1,Pb0.98Ba0.01Na0.01Se1,315,257300,0.00022301,0.00002944,3.4028,-0.14848,0.0000038865,0.0000655372
3503,10.1021/ja400069s,105,6(a),381,Pb0.98Ba0.01Na0.01Se1,Pb0.98Ba0.01Na0.01Se1,315.5,256840,0.00022347,0.000029497,3.3992,-0.14751,0.0000038935,0.0000657419
3503,10.1021/ja400069s,105,6(a),381,Pb0.98Ba0.01Na0.01Se1,Pb0.98Ba0.01Na0.01Se1,316,256380,0.00022393,0.000029554,3.3955,-0.14654,0.0000039005,0.0000659491
3503,10.1021/ja400069s,105,6(a),381,Pb0.98Ba0.01Na0.01Se1,Pb0.98Ba0.01Na0.01Se1,316.5,255920,0.00022441,0.000029612,3.3919,-0.14557,0.0000039075,0.0000661606
3503,10.1021/ja400069s,105,6(a),381,Pb0.98Ba0.01Na0.01Se1,Pb0.98Ba0.01Na0.01Se1,317,255460,0.00022488,0.00002967,3.3883,-0.1446,0.0000039145,0.0000663696
3503,10.1021/ja400069s,105,6(a),381,Pb0.98Ba0.01Na0.01Se1,Pb0.98Ba0.01Na0.01Se1,317.5,255000,0.00022537,0.000029729,3.3846,-0.14362,0.0000039216,0.0000665869
3503,10.1021/ja400069s,105,6(a),381,Pb0.98Ba0.01Na0.01Se1,Pb0.98Ba0.01Na0.01Se1,318,254550,0.00022587,0.000029788,3.381,-0.14265,0.0000039285,0.0000668057
3503,10.1021/ja400069s,105,6(a),381,Pb0.98Ba0.01Na0.01Se1,Pb0.98Ba0.01Na0.01Se1,318.5,254090,0.00022637,0.000029848,3.3774,-0.14168,0.0000039356,0.0000670249
3503,10.1021/ja400069s,105,6(a),381,Pb0.98Ba0.01Na0.01Se1,Pb0.98Ba0.01Na0.01Se1,319,253630,0.00022685,0.000029907,3.3738,-0.14071,0.0000039428,0.0000672387
3503,10.1021/ja400069s,105,6(a),381,Pb0.98Ba0.01Na0.01Se1,Pb0.98Ba0.01Na0.01Se1,319.5,253180,0.00022738,0.000029968,3.3701,-0.13974,0.0000039498,0.0000674698
3503,10.1021/ja400069s,105,6(a),381,Pb0.98Ba0.01Na0.01Se1,Pb0.98Ba0.01Na0.01Se1,320,252720,0.00022787,0.000030028,3.3665,-0.13877,0.0000039569,0.0000676875
3503,10.1021/ja400069s,105,6(a),381,Pb0.98Ba0.01Na0.01Se1,Pb0.98Ba0.01Na0.01Se1,320.5,252270,0.00022839,0.000030089,3.3629,-0.1378,0.000003964,0.0000679146
3503,10.1021/ja400069s,105,6(a),381,Pb0.98Ba0.01Na0.01Se1,Pb0.98Ba0.01Na0.01Se1,321,251810,0.00022892,0.000030151,3.3593,-0.13683,0.0000039712,0.0000681451
3503,10.1021/ja400069s,105,6(a),381,Pb0.98Ba0.01Na0.01Se1,Pb0.98Ba0.01Na0.01Se1,321.5,251360,0.00030117,0.000030213,3.3556,-0.13585,0.0000039784,0.0000897515
3503,10.1021/ja400069s,105,6(a),381,Pb0.98Ba0.01Na0.01Se1,Pb0.98Ba0.01Na0.01Se1,322,250900,0.00030216,0.000030275,3.352,-0.13488,0.0000039857,0.0000901432
3503,10.1021/ja400069s,105,6(a),381,Pb0.98Ba0.01Na0.01Se1,Pb0.98Ba0.01Na0.01Se1,322.5,250450,0.00030315,0.000030338,3.3484,-0.13391,0.0000039928,0.0000905358
3503,10.1021/ja400069s,105,6(a),381,Pb0.98Ba0.01Na0.01Se1,Pb0.98Ba0.01Na0.01Se1,323,250000,0.00030415,0.000030401,3.3448,-0.13294,0.000004,0.0000909322
3503,10.1021/ja400069s,105,6(a),381,Pb0.98Ba0.01Na0.01Se1,Pb0.98Ba0.01Na0.01Se1,323.5,249540,0.00030514,0.000030464,3.3412,-0.13197,0.0000040074,0.0000913265
3503,10.1021/ja400069s,105,6(a),381,Pb0.98Ba0.01Na0.01Se1,Pb0.98Ba0.01Na0.01Se1,324,249090,0.00030613,0.000030528,3.3376,-0.131,0.0000040146,0.0000917216
3503,10.1021/ja400069s,105,6(a),381,Pb0.98Ba0.01Na0.01Se1,Pb0.98Ba0.01Na0.01Se1,324.5,248640,0.00030712,0.000030592,3.334,-0.13003,0.0000040219,0.0000921176
3503,10.1021/ja400069s,105,6(a),381,Pb0.98Ba0.01Na0.01Se1,Pb0.98Ba0.01Na0.01Se1,325,248190,0.00030811,0.000030656,3.3304,-0.12906,0.0000040292,0.0000925144
3503,10.1021/ja400069s,105,6(a),381,Pb0.98Ba0.01Na0.01Se1,Pb0.98Ba0.01Na0.01Se1,325.5,247740,0.00030911,0.000030721,3.3268,-0.12808,0.0000040365,0.0000929151
3503,10.1021/ja400069s,105,6(a),381,Pb0.98Ba0.01Na0.01Se1,Pb0.98Ba0.01Na0.01Se1,326,247290,0.0003101,0.000030787,3.3232,-0.12711,0.0000040438,0.0000933137
3503,10.1021/ja400069s,105,6(a),381,Pb0.98Ba0.01Na0.01Se1,Pb0.98Ba0.01Na0.01Se1,326.5,246840,0.00031109,0.000030852,3.3196,-0.12614,0.0000040512,0.0000937131
3503,10.1021/ja400069s,105,6(a),381,Pb0.98Ba0.01Na0.01Se1,Pb0.98Ba0.01Na0.01Se1,327,246390,0.00031208,0.000030918,3.316,-0.12517,0.0000040586,0.0000941134
3503,10.1021/ja400069s,105,6(a),381,Pb0.98Ba0.01Na0.01Se1,Pb0.98Ba0.01Na0.01Se1,327.5,245940,0.00031307,0.000030985,3.3124,-0.1242,0.000004066,0.0000945146
3503,10.1021/ja400069s,105,6(a),381,Pb0.98Ba0.01Na0.01Se1,Pb0.98Ba0.01Na0.01Se1,328,245490,0.00031406,0.000031052,3.3088,-0.12323,0.0000040735,0.0000949166
3503,10.1021/ja400069s,105,6(a),381,Pb0.98Ba0.01Na0.01Se1,Pb0.98Ba0.01Na0.01Se1,328.5,245040,0.00031506,0.000031119,3.3052,-0.12226,0.000004081,0.0000953225
3503,10.1021/ja400069s,105,6(a),381,Pb0.98Ba0.01Na0.01Se1,Pb0.98Ba0.01Na0.01Se1,329,244590,0.00031605,0.000031187,3.3016,-0.12128,0.0000040885,0.0000957263
3503,10.1021/ja400069s,105,6(a),381,Pb0.98Ba0.01Na0.01Se1,Pb0.98Ba0.01Na0.01Se1,329.5,244150,0.00031704,0.000031255,3.2981,-0.12031,0.0000040958,0.0000961281
3503,10.1021/ja400069s,105,6(a),381,Pb0.98Ba0.01Na0.01Se1,Pb0.98Ba0.01Na0.01Se1,330,243700,0.00031803,0.000031323,3.2945,-0.11934,0.0000041034,0.0000965336
3503,10.1021/ja400069s,105,6(a),381,Pb0.98Ba0.01Na0.01Se1,Pb0.98Ba0.01Na0.01Se1,330.5,243250,0.00031902,0.000031392,3.2909,-0.11837,0.000004111,0.00009694
3503,10.1021/ja400069s,105,6(a),381,Pb0.98Ba0.01Na0.01Se1,Pb0.98Ba0.01Na0.01Se1,331,242810,0.00032002,0.000031461,3.2873,-0.1174,0.0000041184,0.0000973504
3503,10.1021/ja400069s,105,6(a),381,Pb0.98Ba0.01Na0.01Se1,Pb0.98Ba0.01Na0.01Se1,331.5,242360,0.00032101,0.00003153,3.2838,-0.11643,0.0000041261,0.0000977556
3503,10.1021/ja400069s,105,6(a),381,Pb0.98Ba0.01Na0.01Se1,Pb0.98Ba0.01Na0.01Se1,332,241920,0.000322,0.0000316,3.2802,-0.11546,0.0000041336,0.0000981647
3503,10.1021/ja400069s,105,6(a),381,Pb0.98Ba0.01Na0.01Se1,Pb0.98Ba0.01Na0.01Se1,332.5,241470,0.00032299,0.000031671,3.2766,-0.11449,0.0000041413,0.0000985747
3503,10.1021/ja400069s,105,6(a),381,Pb0.98Ba0.01Na0.01Se1,Pb0.98Ba0.01Na0.01Se1,333,241030,0.00032398,0.000031741,3.273,-0.11351,0.0000041489,0.0000989856
3503,10.1021/ja400069s,105,6(a),381,Pb0.98Ba0.01Na0.01Se1,Pb0.98Ba0.01Na0.01Se1,333.5,240580,0.00032498,0.000031812,3.2695,-0.11254,0.0000041566,0.0000993975
3503,10.1021/ja400069s,105,6(a),381,Pb0.98Ba0.01Na0.01Se1,Pb0.98Ba0.01Na0.01Se1,334,240140,0.00032597,0.000031884,3.2659,-0.11157,0.0000041642,0.0000998102
3503,10.1021/ja400069s,105,6(a),381,Pb0.98Ba0.01Na0.01Se1,Pb0.98Ba0.01Na0.01Se1,334.5,239700,0.00032696,0.000031955,3.2623,-0.1106,0.0000041719,0.0001002238
3503,10.1021/ja400069s,105,6(a),381,Pb0.98Ba0.01Na0.01Se1,Pb0.98Ba0.01Na0.01Se1,335,239260,0.00032795,0.000032028,3.2588,-0.10963,0.0000041796,0.0001006352
3503,10.1021/ja400069s,105,6(a),381,Pb0.98Ba0.01Na0.01Se1,Pb0.98Ba0.01Na0.01Se1,335.5,238810,0.00032894,0.0000321,3.2552,-0.10866,0.0000041874,0.0001010506
3503,10.1021/ja400069s,105,6(a),381,Pb0.98Ba0.01Na0.01Se1,Pb0.98Ba0.01Na0.01Se1,336,238370,0.00032993,0.000032173,3.2517,-0.10769,0.0000041952,0.0001014638
3503,10.1021/ja400069s,105,6(a),381,Pb0.98Ba0.01Na0.01Se1,Pb0.98Ba0.01Na0.01Se1,336.5,237930,0.00033093,0.000032246,3.2481,-0.10672,0.0000042029,0.0001018842
3503,10.1021/ja400069s,105,6(a),381,Pb0.98Ba0.01Na0.01Se1,Pb0.98Ba0.01Na0.01Se1,337,237490,0.00033192,0.00003232,3.2446,-0.10574,0.0000042107,0.0001022992
3503,10.1021/ja400069s,105,6(a),381,Pb0.98Ba0.01Na0.01Se1,Pb0.98Ba0.01Na0.01Se1,337.5,237050,0.00033291,0.000032394,3.241,-0.10477,0.0000042185,0.0001027183
3503,10.1021/ja400069s,105,6(a),381,Pb0.98Ba0.01Na0.01Se1,Pb0.98Ba0.01Na0.01Se1,338,236610,0.0003339,0.000032468,3.2375,-0.1038,0.0000042264,0.0001031351
3503,10.1021/ja400069s,105,6(a),381,Pb0.98Ba0.01Na0.01Se1,Pb0.98Ba0.01Na0.01Se1,338.5,236170,0.00033489,0.000032543,3.2339,-0.10283,0.0000042342,0.0001035561
3503,10.1021/ja400069s,105,6(a),381,Pb0.98Ba0.01Na0.01Se1,Pb0.98Ba0.01Na0.01Se1,339,235730,0.00033589,0.000032618,3.2304,-0.10186,0.0000042421,0.0001039778
3503,10.1021/ja400069s,105,6(a),381,Pb0.98Ba0.01Na0.01Se1,Pb0.98Ba0.01Na0.01Se1,339.5,235300,0.00033688,0.000032694,3.2268,-0.10089,0.0000042499,0.0001044006
3503,10.1021/ja400069s,105,6(a),381,Pb0.98Ba0.01Na0.01Se1,Pb0.98Ba0.01Na0.01Se1,340,234860,0.00033787,0.000032769,3.2233,-0.099917,0.0000042579,0.0001048211
3503,10.1021/ja400069s,105,6(a),381,Pb0.98Ba0.01Na0.01Se1,Pb0.98Ba0.01Na0.01Se1,340.5,234420,0.00033886,0.000032846,3.2198,-0.098946,0.0000042658,0.0001052426
3503,10.1021/ja400069s,105,6(a),381,Pb0.98Ba0.01Na0.01Se1,Pb0.98Ba0.01Na0.01Se1,341,233990,0.00033985,0.000032922,3.2162,-0.097975,0.0000042737,0.0001056682
3503,10.1021/ja400069s,105,6(a),381,Pb0.98Ba0.01Na0.01Se1,Pb0.98Ba0.01Na0.01Se1,341.5,233550,0.00034085,0.000032999,3.2127,-0.097003,0.0000042817,0.0001060946
3503,10.1021/ja400069s,105,6(a),381,Pb0.98Ba0.01Na0.01Se1,Pb0.98Ba0.01Na0.01Se1,342,233110,0.00034184,0.000033076,3.2092,-0.096032,0.0000042898,0.0001065188
3503,10.1021/ja400069s,105,6(a),381,Pb0.98Ba0.01Na0.01Se1,Pb0.98Ba0.01Na0.01Se1,342.5,232680,0.00034283,0.000033154,3.2057,-0.095061,0.0000042977,0.0001069439
3503,10.1021/ja400069s,105,6(a),381,Pb0.98Ba0.01Na0.01Se1,Pb0.98Ba0.01Na0.01Se1,343,232240,0.00034382,0.000033232,3.2021,-0.09409,0.0000043059,0.0001073733
3503,10.1021/ja400069s,105,6(a),381,Pb0.98Ba0.01Na0.01Se1,Pb0.98Ba0.01Na0.01Se1,343.5,231810,0.00034481,0.00003331,3.1986,-0.093118,0.0000043139,0.0001078003
3503,10.1021/ja400069s,105,6(a),381,Pb0.98Ba0.01Na0.01Se1,Pb0.98Ba0.01Na0.01Se1,344,231380,0.0003458,0.000033389,3.1951,-0.092147,0.0000043219,0.0001082282
3503,10.1021/ja400069s,105,6(a),381,Pb0.98Ba0.01Na0.01Se1,Pb0.98Ba0.01Na0.01Se1,344.5,230940,0.0003468,0.000033468,3.1916,-0.091176,0.0000043301,0.0001086602
3503,10.1021/ja400069s,105,6(a),381,Pb0.98Ba0.01Na0.01Se1,Pb0.98Ba0.01Na0.01Se1,345,230510,0.00034779,0.000033548,3.1881,-0.090205,0.0000043382,0.0001090901
3503,10.1021/ja400069s,105,6(a),381,Pb0.98Ba0.01Na0.01Se1,Pb0.98Ba0.01Na0.01Se1,345.5,230080,0.00034878,0.000033628,3.1845,-0.089233,0.0000043463,0.0001095243
3503,10.1021/ja400069s,105,6(a),381,Pb0.98Ba0.01Na0.01Se1,Pb0.98Ba0.01Na0.01Se1,346,229650,0.00034977,0.000033708,3.181,-0.088262,0.0000043545,0.000109956
3503,10.1021/ja400069s,105,6(a),381,Pb0.98Ba0.01Na0.01Se1,Pb0.98Ba0.01Na0.01Se1,346.5,229210,0.00035076,0.000033788,3.1775,-0.087291,0.0000043628,0.0001103887
3503,10.1021/ja400069s,105,6(a),381,Pb0.98Ba0.01Na0.01Se1,Pb0.98Ba0.01Na0.01Se1,347,228780,0.00035176,0.000033869,3.174,-0.086319,0.000004371,0.0001108255
3503,10.1021/ja400069s,105,6(a),381,Pb0.98Ba0.01Na0.01Se1,Pb0.98Ba0.01Na0.01Se1,347.5,228350,0.00035275,0.00003395,3.1705,-0.085348,0.0000043792,0.0001112601
3503,10.1021/ja400069s,105,6(a),381,Pb0.98Ba0.01Na0.01Se1,Pb0.98Ba0.01Na0.01Se1,348,227920,0.00035374,0.000034032,3.167,-0.084377,0.0000043875,0.0001116956
3503,10.1021/ja400069s,105,6(a),381,Pb0.98Ba0.01Na0.01Se1,Pb0.98Ba0.01Na0.01Se1,348.5,227490,0.00035473,0.000034114,3.1635,-0.083406,0.0000043958,0.0001121321
3503,10.1021/ja400069s,105,6(a),381,Pb0.98Ba0.01Na0.01Se1,Pb0.98Ba0.01Na0.01Se1,349,227060,0.00035572,0.000034196,3.16,-0.082434,0.0000044041,0.0001125696
3503,10.1021/ja400069s,105,6(a),381,Pb0.98Ba0.01Na0.01Se1,Pb0.98Ba0.01Na0.01Se1,349.5,226640,0.00035671,0.000034279,3.1565,-0.081463,0.0000044123,0.0001130081
3503,10.1021/ja400069s,105,6(a),381,Pb0.98Ba0.01Na0.01Se1,Pb0.98Ba0.01Na0.01Se1,350,226210,0.00035771,0.000034362,3.153,-0.080492,0.0000044207,0.0001134507
3503,10.1021/ja400069s,105,6(a),381,Pb0.98Ba0.01Na0.01Se1,Pb0.98Ba0.01Na0.01Se1,350.5,225780,0.0003587,0.000034445,3.1495,-0.079521,0.0000044291,0.0001138911