sid,DOI,figureid,fignum,sampleid,samplename,composition,Temperature,Electrical conductivity,Power factor,Seebeck coefficient,Thermal conductivity,ZT,Electrical resistivity,Figure of merit Z
3503,10.1021/ja400069s,105,6(a),203,Pb0.96Ba0.03Na0.01Se1,Pb0.96Ba0.03Na0.01Se1,649,48810,0.0010113,0.00015645,1.2644,0.63245,0.0000204876,0.000799826
3503,10.1021/ja400069s,105,6(a),203,Pb0.96Ba0.03Na0.01Se1,Pb0.96Ba0.03Na0.01Se1,649.5,48706,0.0010121,0.00015667,1.2633,0.63352,0.0000205314,0.0008011557
3503,10.1021/ja400069s,105,6(a),203,Pb0.96Ba0.03Na0.01Se1,Pb0.96Ba0.03Na0.01Se1,650,48602,0.001013,0.0001569,1.2623,0.6346,0.0000205753,0.0008025034
3503,10.1021/ja400069s,105,6(a),203,Pb0.96Ba0.03Na0.01Se1,Pb0.96Ba0.03Na0.01Se1,650.5,48498,0.0010139,0.00015712,1.2612,0.63567,0.0000206194,0.0008039169
3503,10.1021/ja400069s,105,6(a),203,Pb0.96Ba0.03Na0.01Se1,Pb0.96Ba0.03Na0.01Se1,651,48394,0.0010147,0.00015734,1.2602,0.63675,0.0000206637,0.0008051897
3503,10.1021/ja400069s,105,6(a),203,Pb0.96Ba0.03Na0.01Se1,Pb0.96Ba0.03Na0.01Se1,651.5,48290,0.0010156,0.00015757,1.2591,0.63783,0.0000207082,0.0008066079
3503,10.1021/ja400069s,105,6(a),203,Pb0.96Ba0.03Na0.01Se1,Pb0.96Ba0.03Na0.01Se1,652,48186,0.0010165,0.00015779,1.2581,0.6389,0.0000207529,0.0008079644
3503,10.1021/ja400069s,105,6(a),203,Pb0.96Ba0.03Na0.01Se1,Pb0.96Ba0.03Na0.01Se1,652.5,48083,0.0010173,0.00015802,1.257,0.63998,0.0000207974,0.0008093079
3503,10.1021/ja400069s,105,6(a),203,Pb0.96Ba0.03Na0.01Se1,Pb0.96Ba0.03Na0.01Se1,653,47980,0.0010182,0.00015824,1.256,0.64105,0.000020842,0.0008106688
3503,10.1021/ja400069s,105,6(a),203,Pb0.96Ba0.03Na0.01Se1,Pb0.96Ba0.03Na0.01Se1,653.5,47877,0.0010191,0.00015846,1.2549,0.64213,0.0000208869,0.0008120966
3503,10.1021/ja400069s,105,6(a),203,Pb0.96Ba0.03Na0.01Se1,Pb0.96Ba0.03Na0.01Se1,654,47774,0.0010199,0.00015869,1.2539,0.64321,0.0000209319,0.0008133822
3503,10.1021/ja400069s,105,6(a),203,Pb0.96Ba0.03Na0.01Se1,Pb0.96Ba0.03Na0.01Se1,654.5,47671,0.0010208,0.00015891,1.2529,0.64428,0.0000209771,0.0008147498
3503,10.1021/ja400069s,105,6(a),203,Pb0.96Ba0.03Na0.01Se1,Pb0.96Ba0.03Na0.01Se1,655,47568,0.0010216,0.00015913,1.2518,0.64536,0.0000210225,0.0008161048
3503,10.1021/ja400069s,105,6(a),203,Pb0.96Ba0.03Na0.01Se1,Pb0.96Ba0.03Na0.01Se1,655.5,47466,0.0010225,0.00015936,1.2508,0.64643,0.0000210677,0.0008174768
3503,10.1021/ja400069s,105,6(a),203,Pb0.96Ba0.03Na0.01Se1,Pb0.96Ba0.03Na0.01Se1,656,47364,0.0010234,0.00015958,1.2498,0.64751,0.0000211131,0.000818851
3503,10.1021/ja400069s,105,6(a),203,Pb0.96Ba0.03Na0.01Se1,Pb0.96Ba0.03Na0.01Se1,656.5,47262,0.0010242,0.0001598,1.2487,0.64859,0.0000211586,0.000820213
3503,10.1021/ja400069s,105,6(a),203,Pb0.96Ba0.03Na0.01Se1,Pb0.96Ba0.03Na0.01Se1,657,47160,0.0010251,0.00016003,1.2477,0.64966,0.0000212044,0.0008215917
3503,10.1021/ja400069s,105,6(a),203,Pb0.96Ba0.03Na0.01Se1,Pb0.96Ba0.03Na0.01Se1,657.5,47059,0.001026,0.00016025,1.2467,0.65074,0.0000212499,0.0008229726
3503,10.1021/ja400069s,105,6(a),203,Pb0.96Ba0.03Na0.01Se1,Pb0.96Ba0.03Na0.01Se1,658,46957,0.0010268,0.00016047,1.2457,0.65181,0.0000212961,0.0008242755
3503,10.1021/ja400069s,105,6(a),203,Pb0.96Ba0.03Na0.01Se1,Pb0.96Ba0.03Na0.01Se1,658.5,46856,0.0010277,0.0001607,1.2446,0.65289,0.000021342,0.0008257271
3503,10.1021/ja400069s,105,6(a),203,Pb0.96Ba0.03Na0.01Se1,Pb0.96Ba0.03Na0.01Se1,659,46755,0.0010285,0.00016092,1.2436,0.65397,0.0000213881,0.0008270344
3503,10.1021/ja400069s,105,6(a),203,Pb0.96Ba0.03Na0.01Se1,Pb0.96Ba0.03Na0.01Se1,659.5,46654,0.0010294,0.00016114,1.2426,0.65504,0.0000214344,0.0008284243
3503,10.1021/ja400069s,105,6(a),203,Pb0.96Ba0.03Na0.01Se1,Pb0.96Ba0.03Na0.01Se1,660,46553,0.0010303,0.00016137,1.2416,0.65612,0.0000214809,0.0008298164
3503,10.1021/ja400069s,105,6(a),203,Pb0.96Ba0.03Na0.01Se1,Pb0.96Ba0.03Na0.01Se1,660.5,46452,0.0010311,0.00016159,1.2406,0.65719,0.0000215276,0.0008311301
3503,10.1021/ja400069s,105,6(a),203,Pb0.96Ba0.03Na0.01Se1,Pb0.96Ba0.03Na0.01Se1,661,46352,0.001032,0.00016181,1.2395,0.65827,0.000021574,0.0008325938
3503,10.1021/ja400069s,105,6(a),203,Pb0.96Ba0.03Na0.01Se1,Pb0.96Ba0.03Na0.01Se1,661.5,46252,0.0010329,0.00016204,1.2385,0.65935,0.0000216207,0.0008339927
3503,10.1021/ja400069s,105,6(a),203,Pb0.96Ba0.03Na0.01Se1,Pb0.96Ba0.03Na0.01Se1,662,46152,0.0010337,0.00016226,1.2375,0.66042,0.0000216675,0.0008353131
3503,10.1021/ja400069s,105,6(a),203,Pb0.96Ba0.03Na0.01Se1,Pb0.96Ba0.03Na0.01Se1,662.5,46052,0.0010346,0.00016248,1.2365,0.6615,0.0000217146,0.0008367165
3503,10.1021/ja400069s,105,6(a),203,Pb0.96Ba0.03Na0.01Se1,Pb0.96Ba0.03Na0.01Se1,663,45952,0.0010355,0.0001627,1.2355,0.66257,0.0000217618,0.0008381222
3503,10.1021/ja400069s,105,6(a),203,Pb0.96Ba0.03Na0.01Se1,Pb0.96Ba0.03Na0.01Se1,663.5,45853,0.0010363,0.00016293,1.2345,0.66365,0.0000218088,0.0008394492
3503,10.1021/ja400069s,105,6(a),203,Pb0.96Ba0.03Na0.01Se1,Pb0.96Ba0.03Na0.01Se1,664,45753,0.0010372,0.00016315,1.2335,0.66473,0.0000218565,0.0008408593
3503,10.1021/ja400069s,105,6(a),203,Pb0.96Ba0.03Na0.01Se1,Pb0.96Ba0.03Na0.01Se1,664.5,45654,0.001038,0.00016337,1.2325,0.6658,0.0000219039,0.0008421907
3503,10.1021/ja400069s,105,6(a),203,Pb0.96Ba0.03Na0.01Se1,Pb0.96Ba0.03Na0.01Se1,665,45555,0.0010389,0.00016359,1.2314,0.66688,0.0000219515,0.0008436739
3503,10.1021/ja400069s,105,6(a),203,Pb0.96Ba0.03Na0.01Se1,Pb0.96Ba0.03Na0.01Se1,665.5,45456,0.0010398,0.00016382,1.2304,0.66795,0.0000219993,0.000845091
3503,10.1021/ja400069s,105,6(a),203,Pb0.96Ba0.03Na0.01Se1,Pb0.96Ba0.03Na0.01Se1,666,45357,0.0010406,0.00016404,1.2294,0.66903,0.0000220473,0.0008464292
3503,10.1021/ja400069s,105,6(a),203,Pb0.96Ba0.03Na0.01Se1,Pb0.96Ba0.03Na0.01Se1,666.5,45259,0.0010415,0.00016426,1.2284,0.67011,0.0000220951,0.0008478509
3503,10.1021/ja400069s,105,6(a),203,Pb0.96Ba0.03Na0.01Se1,Pb0.96Ba0.03Na0.01Se1,667,45161,0.0010424,0.00016448,1.2274,0.67118,0.000022143,0.0008492749
3503,10.1021/ja400069s,105,6(a),203,Pb0.96Ba0.03Na0.01Se1,Pb0.96Ba0.03Na0.01Se1,667.5,45062,0.0010432,0.0001647,1.2264,0.67226,0.0000221916,0.0008506197
3503,10.1021/ja400069s,105,6(a),203,Pb0.96Ba0.03Na0.01Se1,Pb0.96Ba0.03Na0.01Se1,668,44964,0.0010441,0.00016493,1.2254,0.67333,0.00002224,0.0008520483
3503,10.1021/ja400069s,105,6(a),203,Pb0.96Ba0.03Na0.01Se1,Pb0.96Ba0.03Na0.01Se1,668.5,44867,0.001045,0.00016515,1.2244,0.67441,0.0000222881,0.0008534793
3503,10.1021/ja400069s,105,6(a),203,Pb0.96Ba0.03Na0.01Se1,Pb0.96Ba0.03Na0.01Se1,669,44769,0.0010458,0.00016537,1.2234,0.67549,0.0000223369,0.0008548308
3503,10.1021/ja400069s,105,6(a),203,Pb0.96Ba0.03Na0.01Se1,Pb0.96Ba0.03Na0.01Se1,669.5,44672,0.0010467,0.00016559,1.2225,0.67656,0.0000223854,0.0008561963
3503,10.1021/ja400069s,105,6(a),203,Pb0.96Ba0.03Na0.01Se1,Pb0.96Ba0.03Na0.01Se1,670,44574,0.0010475,0.00016581,1.2215,0.67764,0.0000224346,0.0008575522
3503,10.1021/ja400069s,105,6(a),203,Pb0.96Ba0.03Na0.01Se1,Pb0.96Ba0.03Na0.01Se1,670.5,44477,0.0010484,0.00016604,1.2205,0.67871,0.0000224835,0.0008589922
3503,10.1021/ja400069s,105,6(a),203,Pb0.96Ba0.03Na0.01Se1,Pb0.96Ba0.03Na0.01Se1,671,44380,0.0010493,0.00016626,1.2195,0.67979,0.0000225327,0.0008604346
3503,10.1021/ja400069s,105,6(a),203,Pb0.96Ba0.03Na0.01Se1,Pb0.96Ba0.03Na0.01Se1,671.5,44284,0.0010501,0.00016648,1.2185,0.68087,0.0000225815,0.0008617973
3503,10.1021/ja400069s,105,6(a),203,Pb0.96Ba0.03Na0.01Se1,Pb0.96Ba0.03Na0.01Se1,672,44187,0.001051,0.0001667,1.2175,0.68194,0.0000226311,0.0008632444
3503,10.1021/ja400069s,105,6(a),203,Pb0.96Ba0.03Na0.01Se1,Pb0.96Ba0.03Na0.01Se1,672.5,44091,0.0010519,0.00016692,1.2165,0.68302,0.0000226804,0.0008646938
3503,10.1021/ja400069s,105,6(a),203,Pb0.96Ba0.03Na0.01Se1,Pb0.96Ba0.03Na0.01Se1,673,43994,0.0010527,0.00016714,1.2155,0.68409,0.0000227304,0.0008660633
3503,10.1021/ja400069s,105,6(a),203,Pb0.96Ba0.03Na0.01Se1,Pb0.96Ba0.03Na0.01Se1,673.5,43898,0.0010536,0.00016736,1.2145,0.68517,0.0000227801,0.0008675175
3503,10.1021/ja400069s,105,6(a),203,Pb0.96Ba0.03Na0.01Se1,Pb0.96Ba0.03Na0.01Se1,674,43802,0.0010544,0.00016758,1.2136,0.68625,0.00002283,0.00086882
3503,10.1021/ja400069s,105,6(a),203,Pb0.96Ba0.03Na0.01Se1,Pb0.96Ba0.03Na0.01Se1,674.5,43707,0.0010553,0.00016781,1.2126,0.68732,0.0000228796,0.0008702787
3503,10.1021/ja400069s,105,6(a),203,Pb0.96Ba0.03Na0.01Se1,Pb0.96Ba0.03Na0.01Se1,675,43611,0.0010562,0.00016803,1.2116,0.6884,0.00002293,0.0008717398
3503,10.1021/ja400069s,105,6(a),203,Pb0.96Ba0.03Na0.01Se1,Pb0.96Ba0.03Na0.01Se1,675.5,43516,0.001057,0.00016825,1.2106,0.68947,0.0000229801,0.0008731208
3503,10.1021/ja400069s,105,6(a),203,Pb0.96Ba0.03Na0.01Se1,Pb0.96Ba0.03Na0.01Se1,676,43420,0.0010579,0.00016847,1.2097,0.69055,0.0000230309,0.0008745143
3503,10.1021/ja400069s,105,6(a),203,Pb0.96Ba0.03Na0.01Se1,Pb0.96Ba0.03Na0.01Se1,676.5,43325,0.0010588,0.00016869,1.2087,0.69163,0.0000230814,0.0008759825
3503,10.1021/ja400069s,105,6(a),203,Pb0.96Ba0.03Na0.01Se1,Pb0.96Ba0.03Na0.01Se1,677,43230,0.0010596,0.00016891,1.2077,0.6927,0.0000231321,0.0008773702
3503,10.1021/ja400069s,105,6(a),203,Pb0.96Ba0.03Na0.01Se1,Pb0.96Ba0.03Na0.01Se1,677.5,43136,0.0010605,0.00016913,1.2067,0.69378,0.0000231825,0.0008788431
3503,10.1021/ja400069s,105,6(a),203,Pb0.96Ba0.03Na0.01Se1,Pb0.96Ba0.03Na0.01Se1,678,43041,0.0010614,0.00016935,1.2058,0.69485,0.0000232337,0.0008802455
3503,10.1021/ja400069s,105,6(a),203,Pb0.96Ba0.03Na0.01Se1,Pb0.96Ba0.03Na0.01Se1,678.5,42947,0.0010622,0.00016957,1.2048,0.69593,0.0000232845,0.0008816401
3503,10.1021/ja400069s,105,6(a),203,Pb0.96Ba0.03Na0.01Se1,Pb0.96Ba0.03Na0.01Se1,679,42853,0.0010631,0.00016979,1.2038,0.69701,0.0000233356,0.0008831201
3503,10.1021/ja400069s,105,6(a),203,Pb0.96Ba0.03Na0.01Se1,Pb0.96Ba0.03Na0.01Se1,679.5,42759,0.0010639,0.00017001,1.2029,0.69808,0.0000233869,0.0008844459
3503,10.1021/ja400069s,105,6(a),203,Pb0.96Ba0.03Na0.01Se1,Pb0.96Ba0.03Na0.01Se1,680,42665,0.0010648,0.00017023,1.2019,0.69916,0.0000234384,0.0008859306
3503,10.1021/ja400069s,105,6(a),203,Pb0.96Ba0.03Na0.01Se1,Pb0.96Ba0.03Na0.01Se1,680.5,42571,0.0010657,0.00017045,1.2009,0.70023,0.0000234902,0.0008874178
3503,10.1021/ja400069s,105,6(a),203,Pb0.96Ba0.03Na0.01Se1,Pb0.96Ba0.03Na0.01Se1,681,42478,0.0010665,0.00017067,1.2,0.70131,0.0000235416,0.00088875
3503,10.1021/ja400069s,105,6(a),203,Pb0.96Ba0.03Na0.01Se1,Pb0.96Ba0.03Na0.01Se1,681.5,42384,0.0010674,0.00017089,1.199,0.70239,0.0000235938,0.0008902419
3503,10.1021/ja400069s,105,6(a),203,Pb0.96Ba0.03Na0.01Se1,Pb0.96Ba0.03Na0.01Se1,682,42291,0.0010683,0.00017111,1.198,0.70346,0.0000236457,0.0008917362
3503,10.1021/ja400069s,105,6(a),203,Pb0.96Ba0.03Na0.01Se1,Pb0.96Ba0.03Na0.01Se1,682.5,42198,0.0010691,0.00017133,1.1971,0.70454,0.0000236978,0.0008930749
3503,10.1021/ja400069s,105,6(a),203,Pb0.96Ba0.03Na0.01Se1,Pb0.96Ba0.03Na0.01Se1,683,42105,0.00107,0.00017155,1.1961,0.70561,0.0000237501,0.000894574
3503,10.1021/ja400069s,105,6(a),203,Pb0.96Ba0.03Na0.01Se1,Pb0.96Ba0.03Na0.01Se1,683.5,42013,0.0010708,0.00017177,1.1952,0.70669,0.0000238022,0.000895917
3503,10.1021/ja400069s,105,6(a),203,Pb0.96Ba0.03Na0.01Se1,Pb0.96Ba0.03Na0.01Se1,684,41920,0.0010717,0.00017199,1.1942,0.70777,0.000023855,0.0008974209
3503,10.1021/ja400069s,105,6(a),203,Pb0.96Ba0.03Na0.01Se1,Pb0.96Ba0.03Na0.01Se1,684.5,41828,0.0010726,0.00017221,1.1933,0.70884,0.0000239074,0.0008988519
3503,10.1021/ja400069s,105,6(a),203,Pb0.96Ba0.03Na0.01Se1,Pb0.96Ba0.03Na0.01Se1,685,41736,0.0010734,0.00017243,1.1923,0.70992,0.0000239601,0.0009002768
3503,10.1021/ja400069s,105,6(a),203,Pb0.96Ba0.03Na0.01Se1,Pb0.96Ba0.03Na0.01Se1,685.5,41644,0.0010743,0.00017265,1.1914,0.71099,0.0000240131,0.0009017123
3503,10.1021/ja400069s,105,6(a),203,Pb0.96Ba0.03Na0.01Se1,Pb0.96Ba0.03Na0.01Se1,686,41552,0.0010752,0.00017287,1.1904,0.71207,0.0000240662,0.0009032258
3503,10.1021/ja400069s,105,6(a),203,Pb0.96Ba0.03Na0.01Se1,Pb0.96Ba0.03Na0.01Se1,686.5,41460,0.001076,0.00017309,1.1895,0.71315,0.0000241196,0.0009045818
3503,10.1021/ja400069s,105,6(a),203,Pb0.96Ba0.03Na0.01Se1,Pb0.96Ba0.03Na0.01Se1,687,41369,0.0010769,0.00017331,1.1885,0.71422,0.0000241727,0.0009061001
3503,10.1021/ja400069s,105,6(a),203,Pb0.96Ba0.03Na0.01Se1,Pb0.96Ba0.03Na0.01Se1,687.5,41278,0.0010778,0.00017353,1.1876,0.7153,0.000024226,0.0009075446
3503,10.1021/ja400069s,105,6(a),203,Pb0.96Ba0.03Na0.01Se1,Pb0.96Ba0.03Na0.01Se1,688,41187,0.0010786,0.00017374,1.1866,0.71637,0.0000242795,0.0009089837
3503,10.1021/ja400069s,105,6(a),203,Pb0.96Ba0.03Na0.01Se1,Pb0.96Ba0.03Na0.01Se1,688.5,41096,0.0010795,0.00017396,1.1857,0.71745,0.0000243333,0.0009104327
3503,10.1021/ja400069s,105,6(a),203,Pb0.96Ba0.03Na0.01Se1,Pb0.96Ba0.03Na0.01Se1,689,41005,0.0010803,0.00017418,1.1847,0.71853,0.0000243873,0.0009118764
3503,10.1021/ja400069s,105,6(a),203,Pb0.96Ba0.03Na0.01Se1,Pb0.96Ba0.03Na0.01Se1,689.5,40914,0.0010812,0.0001744,1.1838,0.7196,0.0000244415,0.00091333
3503,10.1021/ja400069s,105,6(a),203,Pb0.96Ba0.03Na0.01Se1,Pb0.96Ba0.03Na0.01Se1,690,40824,0.0010821,0.00017462,1.1828,0.72068,0.0000244954,0.000914863
3503,10.1021/ja400069s,105,6(a),203,Pb0.96Ba0.03Na0.01Se1,Pb0.96Ba0.03Na0.01Se1,690.5,40734,0.0010829,0.00017484,1.1819,0.72175,0.0000245495,0.0009162366
3503,10.1021/ja400069s,105,6(a),203,Pb0.96Ba0.03Na0.01Se1,Pb0.96Ba0.03Na0.01Se1,691,40644,0.0010838,0.00017506,1.181,0.72283,0.0000246039,0.0009176969
3503,10.1021/ja400069s,105,6(a),203,Pb0.96Ba0.03Na0.01Se1,Pb0.96Ba0.03Na0.01Se1,691.5,40554,0.0010847,0.00017527,1.18,0.72391,0.0000246585,0.0009192373
3503,10.1021/ja400069s,105,6(a),203,Pb0.96Ba0.03Na0.01Se1,Pb0.96Ba0.03Na0.01Se1,692,40464,0.0010855,0.00017549,1.1791,0.72498,0.0000247133,0.0009206174
3503,10.1021/ja400069s,105,6(a),203,Pb0.96Ba0.03Na0.01Se1,Pb0.96Ba0.03Na0.01Se1,692.5,40374,0.0010864,0.00017571,1.1782,0.72606,0.0000247684,0.0009220845
3503,10.1021/ja400069s,105,6(a),203,Pb0.96Ba0.03Na0.01Se1,Pb0.96Ba0.03Na0.01Se1,693,40285,0.0010873,0.00017593,1.1772,0.72713,0.0000248231,0.0009236323
3503,10.1021/ja400069s,105,6(a),203,Pb0.96Ba0.03Na0.01Se1,Pb0.96Ba0.03Na0.01Se1,693.5,40196,0.0010881,0.00017615,1.1763,0.72821,0.0000248781,0.0009250191
3503,10.1021/ja400069s,105,6(a),203,Pb0.96Ba0.03Na0.01Se1,Pb0.96Ba0.03Na0.01Se1,694,40106,0.001089,0.00017636,1.1754,0.72929,0.0000249339,0.0009264931
3503,10.1021/ja400069s,105,6(a),203,Pb0.96Ba0.03Na0.01Se1,Pb0.96Ba0.03Na0.01Se1,694.5,40018,0.0010898,0.00017658,1.1744,0.73036,0.0000249888,0.0009279632
3503,10.1021/ja400069s,105,6(a),203,Pb0.96Ba0.03Na0.01Se1,Pb0.96Ba0.03Na0.01Se1,695,39929,0.0010907,0.0001768,1.1735,0.73144,0.0000250445,0.0009294418
3503,10.1021/ja400069s,105,6(a),203,Pb0.96Ba0.03Na0.01Se1,Pb0.96Ba0.03Na0.01Se1,695.5,39840,0.0010916,0.00017702,1.1726,0.73251,0.0000251004,0.0009309227
3503,10.1021/ja400069s,105,6(a),203,Pb0.96Ba0.03Na0.01Se1,Pb0.96Ba0.03Na0.01Se1,696,39752,0.0010924,0.00017723,1.1717,0.73359,0.000025156,0.0009323206
3503,10.1021/ja400069s,105,6(a),203,Pb0.96Ba0.03Na0.01Se1,Pb0.96Ba0.03Na0.01Se1,696.5,39664,0.0010933,0.00017745,1.1707,0.73467,0.0000252118,0.0009338857
3503,10.1021/ja400069s,105,6(a),203,Pb0.96Ba0.03Na0.01Se1,Pb0.96Ba0.03Na0.01Se1,697,39575,0.0010942,0.00017767,1.1698,0.73574,0.0000252685,0.0009353736
3503,10.1021/ja400069s,105,6(a),203,Pb0.96Ba0.03Na0.01Se1,Pb0.96Ba0.03Na0.01Se1,697.5,39488,0.001095,0.00017789,1.1689,0.73682,0.0000253241,0.0009367782
3503,10.1021/ja400069s,105,6(a),203,Pb0.96Ba0.03Na0.01Se1,Pb0.96Ba0.03Na0.01Se1,698,39400,0.0010959,0.0001781,1.168,0.73789,0.0000253807,0.0009382705
3503,10.1021/ja400069s,105,6(a),203,Pb0.96Ba0.03Na0.01Se1,Pb0.96Ba0.03Na0.01Se1,698.5,39312,0.0010967,0.00017832,1.1671,0.73897,0.0000254375,0.0009396795
3503,10.1021/ja400069s,105,6(a),203,Pb0.96Ba0.03Na0.01Se1,Pb0.96Ba0.03Na0.01Se1,699,39225,0.0010976,0.00017854,1.1661,0.74005,0.0000254939,0.0009412572
3503,10.1021/ja400069s,105,6(a),203,Pb0.96Ba0.03Na0.01Se1,Pb0.96Ba0.03Na0.01Se1,699.5,39138,0.0010985,0.00017875,1.1652,0.74112,0.0000255506,0.0009427566
3503,10.1021/ja400069s,105,6(a),203,Pb0.96Ba0.03Na0.01Se1,Pb0.96Ba0.03Na0.01Se1,700,39051,0.0010993,0.00017897,1.1643,0.7422,0.0000256075,0.0009441725
3503,10.1021/ja400069s,105,6(a),203,Pb0.96Ba0.03Na0.01Se1,Pb0.96Ba0.03Na0.01Se1,700.5,38964,0.0011002,0.00017919,1.1634,0.74327,0.0000256647,0.0009456765
3503,10.1021/ja400069s,105,6(a),203,Pb0.96Ba0.03Na0.01Se1,Pb0.96Ba0.03Na0.01Se1,701,38877,0.0011011,0.0001794,1.1625,0.74435,0.0000257221,0.0009471828
3503,10.1021/ja400069s,105,6(a),203,Pb0.96Ba0.03Na0.01Se1,Pb0.96Ba0.03Na0.01Se1,701.5,38790,0.0011019,0.00017962,1.1616,0.74543,0.0000257798,0.0009486054
3503,10.1021/ja400069s,105,6(a),203,Pb0.96Ba0.03Na0.01Se1,Pb0.96Ba0.03Na0.01Se1,702,38704,0.0011028,0.00017983,1.1607,0.7465,0.0000258371,0.0009501163
3503,10.1021/ja400069s,105,6(a),203,Pb0.96Ba0.03Na0.01Se1,Pb0.96Ba0.03Na0.01Se1,702.5,38618,0.0011037,0.00018005,1.1598,0.74758,0.0000258947,0.0009516296
3503,10.1021/ja400069s,105,6(a),203,Pb0.96Ba0.03Na0.01Se1,Pb0.96Ba0.03Na0.01Se1,703,38532,0.0011045,0.00018027,1.1589,0.74865,0.0000259525,0.0009530589
3503,10.1021/ja400069s,105,6(a),203,Pb0.96Ba0.03Na0.01Se1,Pb0.96Ba0.03Na0.01Se1,703.5,38446,0.0011054,0.00018048,1.1579,0.74973,0.0000260105,0.0009546593
3503,10.1021/ja400069s,105,6(a),203,Pb0.96Ba0.03Na0.01Se1,Pb0.96Ba0.03Na0.01Se1,704,38360,0.0011062,0.0001807,1.157,0.75081,0.0000260688,0.0009560933
3503,10.1021/ja400069s,105,6(a),203,Pb0.96Ba0.03Na0.01Se1,Pb0.96Ba0.03Na0.01Se1,704.5,38274,0.0011071,0.00018091,1.1561,0.75188,0.0000261274,0.0009576161
3503,10.1021/ja400069s,105,6(a),203,Pb0.96Ba0.03Na0.01Se1,Pb0.96Ba0.03Na0.01Se1,705,38189,0.001108,0.00018113,1.1552,0.75296,0.0000261856,0.0009591413
3503,10.1021/ja400069s,105,6(a),203,Pb0.96Ba0.03Na0.01Se1,Pb0.96Ba0.03Na0.01Se1,705.5,38104,0.0011088,0.00018135,1.1543,0.75403,0.000026244,0.0009605822
3503,10.1021/ja400069s,105,6(a),203,Pb0.96Ba0.03Na0.01Se1,Pb0.96Ba0.03Na0.01Se1,706,38019,0.0011097,0.00018156,1.1534,0.75511,0.0000263026,0.000962112
3503,10.1021/ja400069s,105,6(a),203,Pb0.96Ba0.03Na0.01Se1,Pb0.96Ba0.03Na0.01Se1,706.5,37934,0.0011106,0.00018178,1.1525,0.75619,0.0000263616,0.0009636443
3503,10.1021/ja400069s,105,6(a),203,Pb0.96Ba0.03Na0.01Se1,Pb0.96Ba0.03Na0.01Se1,707,37849,0.0011114,0.00018199,1.1516,0.75726,0.0000264208,0.000965092
3503,10.1021/ja400069s,105,6(a),203,Pb0.96Ba0.03Na0.01Se1,Pb0.96Ba0.03Na0.01Se1,707.5,37765,0.0011123,0.00018221,1.1507,0.75834,0.0000264795,0.000966629
3503,10.1021/ja400069s,105,6(a),203,Pb0.96Ba0.03Na0.01Se1,Pb0.96Ba0.03Na0.01Se1,708,37680,0.0011131,0.00018242,1.1499,0.75941,0.0000265393,0.0009679972
3503,10.1021/ja400069s,105,6(a),203,Pb0.96Ba0.03Na0.01Se1,Pb0.96Ba0.03Na0.01Se1,708.5,37596,0.001114,0.00018264,1.149,0.76049,0.0000265986,0.0009695387
3503,10.1021/ja400069s,105,6(a),203,Pb0.96Ba0.03Na0.01Se1,Pb0.96Ba0.03Na0.01Se1,709,37512,0.0011149,0.00018285,1.1481,0.76157,0.0000266581,0.0009710827
3503,10.1021/ja400069s,105,6(a),203,Pb0.96Ba0.03Na0.01Se1,Pb0.96Ba0.03Na0.01Se1,709.5,37428,0.0011157,0.00018307,1.1472,0.76264,0.000026718,0.0009725418
3503,10.1021/ja400069s,105,6(a),203,Pb0.96Ba0.03Na0.01Se1,Pb0.96Ba0.03Na0.01Se1,710,37344,0.0011166,0.00018328,1.1463,0.76372,0.0000267781,0.0009740906
3503,10.1021/ja400069s,105,6(a),203,Pb0.96Ba0.03Na0.01Se1,Pb0.96Ba0.03Na0.01Se1,710.5,37261,0.0011175,0.00018349,1.1454,0.76479,0.0000268377,0.0009756417
3503,10.1021/ja400069s,105,6(a),203,Pb0.96Ba0.03Na0.01Se1,Pb0.96Ba0.03Na0.01Se1,711,37177,0.0011183,0.00018371,1.1445,0.76587,0.0000268984,0.0009771079
3503,10.1021/ja400069s,105,6(a),203,Pb0.96Ba0.03Na0.01Se1,Pb0.96Ba0.03Na0.01Se1,711.5,37094,0.0011192,0.00018392,1.1436,0.76695,0.0000269585,0.0009786639
3503,10.1021/ja400069s,105,6(a),203,Pb0.96Ba0.03Na0.01Se1,Pb0.96Ba0.03Na0.01Se1,712,37011,0.0011201,0.00018414,1.1427,0.76802,0.000027019,0.0009802223
3503,10.1021/ja400069s,105,6(a),203,Pb0.96Ba0.03Na0.01Se1,Pb0.96Ba0.03Na0.01Se1,712.5,36928,0.0011209,0.00018435,1.1419,0.7691,0.0000270797,0.0009816096
3503,10.1021/ja400069s,105,6(a),203,Pb0.96Ba0.03Na0.01Se1,Pb0.96Ba0.03Na0.01Se1,713,36845,0.0011218,0.00018457,1.141,0.77017,0.0000271407,0.0009831727
3503,10.1021/ja400069s,105,6(a),203,Pb0.96Ba0.03Na0.01Se1,Pb0.96Ba0.03Na0.01Se1,713.5,36763,0.0011226,0.00018478,1.1401,0.77125,0.0000272013,0.0009846505