sid,DOI,figureid,fignum,sampleid,samplename,composition,Temperature,Electrical conductivity,Power factor,Seebeck coefficient,Thermal conductivity,ZT,Electrical resistivity,Figure of merit Z
3503,10.1021/ja400069s,105,6(a),311,Pb0.99Na0.01Se1,Pb0.99Na0.01Se1,643,82968,0.00093715,0.00011572,1.9603,0.42234,0.0000120528,0.0004780646
3503,10.1021/ja400069s,105,6(a),311,Pb0.99Na0.01Se1,Pb0.99Na0.01Se1,643.5,82772,0.00093814,0.00011591,1.9581,0.4231,0.0000120814,0.0004791073
3503,10.1021/ja400069s,105,6(a),311,Pb0.99Na0.01Se1,Pb0.99Na0.01Se1,644,82576,0.00093912,0.00011611,1.9559,0.42385,0.0000121101,0.0004801472
3503,10.1021/ja400069s,105,6(a),311,Pb0.99Na0.01Se1,Pb0.99Na0.01Se1,644.5,82380,0.00094011,0.0001163,1.9537,0.42461,0.0000121389,0.0004811947
3503,10.1021/ja400069s,105,6(a),311,Pb0.99Na0.01Se1,Pb0.99Na0.01Se1,645,82185,0.00094109,0.00011649,1.9516,0.42536,0.0000121677,0.0004822146
3503,10.1021/ja400069s,105,6(a),311,Pb0.99Na0.01Se1,Pb0.99Na0.01Se1,645.5,81990,0.00094208,0.00011669,1.9494,0.42612,0.0000121966,0.0004832666
3503,10.1021/ja400069s,105,6(a),311,Pb0.99Na0.01Se1,Pb0.99Na0.01Se1,646,81796,0.00094306,0.00011688,1.9472,0.42687,0.0000122255,0.0004843159
3503,10.1021/ja400069s,105,6(a),311,Pb0.99Na0.01Se1,Pb0.99Na0.01Se1,646.5,81601,0.00094405,0.00011708,1.945,0.42763,0.0000122548,0.0004853728
3503,10.1021/ja400069s,105,6(a),311,Pb0.99Na0.01Se1,Pb0.99Na0.01Se1,647,81407,0.00094503,0.00011727,1.9429,0.42839,0.000012284,0.0004864018
3503,10.1021/ja400069s,105,6(a),311,Pb0.99Na0.01Se1,Pb0.99Na0.01Se1,647.5,81213,0.00094602,0.00011746,1.9407,0.42914,0.0000123133,0.0004874633
3503,10.1021/ja400069s,105,6(a),311,Pb0.99Na0.01Se1,Pb0.99Na0.01Se1,648,81020,0.00094701,0.00011766,1.9385,0.4299,0.0000123426,0.0004885272
3503,10.1021/ja400069s,105,6(a),311,Pb0.99Na0.01Se1,Pb0.99Na0.01Se1,648.5,80827,0.00094799,0.00011785,1.9364,0.43065,0.0000123721,0.0004895631
3503,10.1021/ja400069s,105,6(a),311,Pb0.99Na0.01Se1,Pb0.99Na0.01Se1,649,80634,0.00094898,0.00011804,1.9342,0.43141,0.0000124017,0.0004906318
3503,10.1021/ja400069s,105,6(a),311,Pb0.99Na0.01Se1,Pb0.99Na0.01Se1,649.5,80442,0.00094996,0.00011824,1.9321,0.43216,0.0000124313,0.0004916723
3503,10.1021/ja400069s,105,6(a),311,Pb0.99Na0.01Se1,Pb0.99Na0.01Se1,650,80250,0.00095095,0.00011843,1.9299,0.43292,0.0000124611,0.0004927457
3503,10.1021/ja400069s,105,6(a),311,Pb0.99Na0.01Se1,Pb0.99Na0.01Se1,650.5,80058,0.00095193,0.00011863,1.9278,0.43367,0.0000124909,0.0004937908
3503,10.1021/ja400069s,105,6(a),311,Pb0.99Na0.01Se1,Pb0.99Na0.01Se1,651,79867,0.00095292,0.00011882,1.9256,0.43443,0.0000125208,0.0004948691
3503,10.1021/ja400069s,105,6(a),311,Pb0.99Na0.01Se1,Pb0.99Na0.01Se1,651.5,79675,0.00095391,0.00011902,1.9235,0.43518,0.000012551,0.0004959241
3503,10.1021/ja400069s,105,6(a),311,Pb0.99Na0.01Se1,Pb0.99Na0.01Se1,652,79485,0.00095489,0.00011921,1.9214,0.43594,0.000012581,0.0004969762
3503,10.1021/ja400069s,105,6(a),311,Pb0.99Na0.01Se1,Pb0.99Na0.01Se1,652.5,79294,0.00095588,0.00011941,1.9192,0.4367,0.0000126113,0.0004980617
3503,10.1021/ja400069s,105,6(a),311,Pb0.99Na0.01Se1,Pb0.99Na0.01Se1,653,79104,0.00095686,0.0001196,1.9171,0.43745,0.0000126416,0.0004991185
3503,10.1021/ja400069s,105,6(a),311,Pb0.99Na0.01Se1,Pb0.99Na0.01Se1,653.5,78914,0.00095785,0.0001198,1.915,0.43821,0.000012672,0.0005001828
3503,10.1021/ja400069s,105,6(a),311,Pb0.99Na0.01Se1,Pb0.99Na0.01Se1,654,78725,0.00095883,0.00011999,1.9129,0.43896,0.0000127024,0.0005012442
3503,10.1021/ja400069s,105,6(a),311,Pb0.99Na0.01Se1,Pb0.99Na0.01Se1,654.5,78536,0.00095982,0.00012019,1.9108,0.43972,0.000012733,0.0005023132
3503,10.1021/ja400069s,105,6(a),311,Pb0.99Na0.01Se1,Pb0.99Na0.01Se1,655,78347,0.0009608,0.00012038,1.9086,0.44047,0.0000127637,0.0005034056
3503,10.1021/ja400069s,105,6(a),311,Pb0.99Na0.01Se1,Pb0.99Na0.01Se1,655.5,78158,0.00096179,0.00012058,1.9065,0.44123,0.0000127946,0.0005044794
3503,10.1021/ja400069s,105,6(a),311,Pb0.99Na0.01Se1,Pb0.99Na0.01Se1,656,77970,0.00096278,0.00012077,1.9044,0.44198,0.0000128254,0.0005055556
3503,10.1021/ja400069s,105,6(a),311,Pb0.99Na0.01Se1,Pb0.99Na0.01Se1,656.5,77782,0.00096376,0.00012097,1.9023,0.44274,0.0000128564,0.0005066288
3503,10.1021/ja400069s,105,6(a),311,Pb0.99Na0.01Se1,Pb0.99Na0.01Se1,657,77595,0.00096475,0.00012116,1.9002,0.44349,0.0000128874,0.0005077097
3503,10.1021/ja400069s,105,6(a),311,Pb0.99Na0.01Se1,Pb0.99Na0.01Se1,657.5,77408,0.00096573,0.00012136,1.8981,0.44425,0.0000129186,0.0005087877
3503,10.1021/ja400069s,105,6(a),311,Pb0.99Na0.01Se1,Pb0.99Na0.01Se1,658,77221,0.00096672,0.00012155,1.8961,0.445,0.0000129498,0.0005098465
3503,10.1021/ja400069s,105,6(a),311,Pb0.99Na0.01Se1,Pb0.99Na0.01Se1,658.5,77034,0.0009677,0.00012175,1.894,0.44576,0.0000129813,0.0005109293
3503,10.1021/ja400069s,105,6(a),311,Pb0.99Na0.01Se1,Pb0.99Na0.01Se1,659,76848,0.00096869,0.00012194,1.8919,0.44652,0.0000130127,0.0005120197
3503,10.1021/ja400069s,105,6(a),311,Pb0.99Na0.01Se1,Pb0.99Na0.01Se1,659.5,76662,0.00096968,0.00012214,1.8898,0.44727,0.0000130443,0.0005131125
3503,10.1021/ja400069s,105,6(a),311,Pb0.99Na0.01Se1,Pb0.99Na0.01Se1,660,76477,0.00097066,0.00012233,1.8877,0.44803,0.0000130758,0.0005142025
3503,10.1021/ja400069s,105,6(a),311,Pb0.99Na0.01Se1,Pb0.99Na0.01Se1,660.5,76292,0.00097165,0.00012253,1.8857,0.44878,0.0000131075,0.0005152728
3503,10.1021/ja400069s,105,6(a),311,Pb0.99Na0.01Se1,Pb0.99Na0.01Se1,661,76107,0.00097263,0.00012273,1.8836,0.44954,0.0000131394,0.0005163676
3503,10.1021/ja400069s,105,6(a),311,Pb0.99Na0.01Se1,Pb0.99Na0.01Se1,661.5,75922,0.00097362,0.00012292,1.8815,0.45029,0.0000131714,0.0005174701
3503,10.1021/ja400069s,105,6(a),311,Pb0.99Na0.01Se1,Pb0.99Na0.01Se1,662,75738,0.0009746,0.00012312,1.8795,0.45105,0.0000132034,0.0005185422
3503,10.1021/ja400069s,105,6(a),311,Pb0.99Na0.01Se1,Pb0.99Na0.01Se1,662.5,75554,0.00097559,0.00012331,1.8774,0.4518,0.0000132356,0.0005196495
3503,10.1021/ja400069s,105,6(a),311,Pb0.99Na0.01Se1,Pb0.99Na0.01Se1,663,75371,0.00097657,0.00012351,1.8753,0.45256,0.0000132677,0.000520754
3503,10.1021/ja400069s,105,6(a),311,Pb0.99Na0.01Se1,Pb0.99Na0.01Se1,663.5,75188,0.00097756,0.00012371,1.8733,0.45331,0.0000133,0.0005218385
3503,10.1021/ja400069s,105,6(a),311,Pb0.99Na0.01Se1,Pb0.99Na0.01Se1,664,75005,0.00097855,0.0001239,1.8712,0.45407,0.0000133324,0.0005229532
3503,10.1021/ja400069s,105,6(a),311,Pb0.99Na0.01Se1,Pb0.99Na0.01Se1,664.5,74822,0.00097953,0.0001241,1.8692,0.45483,0.0000133651,0.000524037
3503,10.1021/ja400069s,105,6(a),311,Pb0.99Na0.01Se1,Pb0.99Na0.01Se1,665,74640,0.00098052,0.00012429,1.8672,0.45558,0.0000133976,0.0005251285
3503,10.1021/ja400069s,105,6(a),311,Pb0.99Na0.01Se1,Pb0.99Na0.01Se1,665.5,74458,0.0009815,0.00012449,1.8651,0.45634,0.0000134304,0.0005262452
3503,10.1021/ja400069s,105,6(a),311,Pb0.99Na0.01Se1,Pb0.99Na0.01Se1,666,74277,0.00098249,0.00012469,1.8631,0.45709,0.0000134631,0.0005273415
3503,10.1021/ja400069s,105,6(a),311,Pb0.99Na0.01Se1,Pb0.99Na0.01Se1,666.5,74096,0.00098347,0.00012488,1.8611,0.45785,0.000013496,0.0005284348
3503,10.1021/ja400069s,105,6(a),311,Pb0.99Na0.01Se1,Pb0.99Na0.01Se1,667,73915,0.00098446,0.00012508,1.859,0.4586,0.0000135291,0.0005295643
3503,10.1021/ja400069s,105,6(a),311,Pb0.99Na0.01Se1,Pb0.99Na0.01Se1,667.5,73734,0.00098545,0.00012528,1.857,0.45936,0.0000135623,0.0005306677
3503,10.1021/ja400069s,105,6(a),311,Pb0.99Na0.01Se1,Pb0.99Na0.01Se1,668,73554,0.00098643,0.00012547,1.855,0.46011,0.0000135955,0.0005317682
3503,10.1021/ja400069s,105,6(a),311,Pb0.99Na0.01Se1,Pb0.99Na0.01Se1,668.5,73374,0.00098742,0.00012567,1.853,0.46087,0.0000136288,0.0005328764
3503,10.1021/ja400069s,105,6(a),311,Pb0.99Na0.01Se1,Pb0.99Na0.01Se1,669,73195,0.0009884,0.00012587,1.851,0.46162,0.0000136621,0.0005339816
3503,10.1021/ja400069s,105,6(a),311,Pb0.99Na0.01Se1,Pb0.99Na0.01Se1,669.5,73016,0.00098939,0.00012606,1.849,0.46238,0.0000136956,0.0005350946
3503,10.1021/ja400069s,105,6(a),311,Pb0.99Na0.01Se1,Pb0.99Na0.01Se1,670,72837,0.00099037,0.00012626,1.847,0.46313,0.0000137293,0.0005362047
3503,10.1021/ja400069s,105,6(a),311,Pb0.99Na0.01Se1,Pb0.99Na0.01Se1,670.5,72658,0.00099136,0.00012646,1.845,0.46389,0.0000137631,0.0005373225
3503,10.1021/ja400069s,105,6(a),311,Pb0.99Na0.01Se1,Pb0.99Na0.01Se1,671,72480,0.00099234,0.00012665,1.843,0.46465,0.0000137969,0.0005384373
3503,10.1021/ja400069s,105,6(a),311,Pb0.99Na0.01Se1,Pb0.99Na0.01Se1,671.5,72303,0.00099333,0.00012685,1.841,0.4654,0.0000138307,0.00053956
3503,10.1021/ja400069s,105,6(a),311,Pb0.99Na0.01Se1,Pb0.99Na0.01Se1,672,72125,0.00099432,0.00012705,1.839,0.46616,0.0000138648,0.0005406852
3503,10.1021/ja400069s,105,6(a),311,Pb0.99Na0.01Se1,Pb0.99Na0.01Se1,672.5,71948,0.0009953,0.00012725,1.837,0.46691,0.0000138989,0.0005418073
3503,10.1021/ja400069s,105,6(a),311,Pb0.99Na0.01Se1,Pb0.99Na0.01Se1,673,71771,0.00099629,0.00012744,1.835,0.46767,0.0000139332,0.0005429373
3503,10.1021/ja400069s,105,6(a),311,Pb0.99Na0.01Se1,Pb0.99Na0.01Se1,673.5,71595,0.00099727,0.00012764,1.833,0.46842,0.0000139675,0.0005440644
3503,10.1021/ja400069s,105,6(a),311,Pb0.99Na0.01Se1,Pb0.99Na0.01Se1,674,71419,0.00099826,0.00012784,1.831,0.46918,0.0000140019,0.0005451993
3503,10.1021/ja400069s,105,6(a),311,Pb0.99Na0.01Se1,Pb0.99Na0.01Se1,674.5,71243,0.00099924,0.00012804,1.8291,0.46993,0.0000140365,0.0005463015
3503,10.1021/ja400069s,105,6(a),311,Pb0.99Na0.01Se1,Pb0.99Na0.01Se1,675,71068,0.0010002,0.00012823,1.8271,0.47069,0.000014071,0.0005474249
3503,10.1021/ja400069s,105,6(a),311,Pb0.99Na0.01Se1,Pb0.99Na0.01Se1,675.5,70893,0.0010012,0.00012843,1.8251,0.47144,0.0000141058,0.0005485727
3503,10.1021/ja400069s,105,6(a),311,Pb0.99Na0.01Se1,Pb0.99Na0.01Se1,676,70718,0.0010022,0.00012863,1.8232,0.4722,0.0000141407,0.0005496928
3503,10.1021/ja400069s,105,6(a),311,Pb0.99Na0.01Se1,Pb0.99Na0.01Se1,676.5,70544,0.0010032,0.00012883,1.8212,0.47296,0.0000141756,0.0005508456
3503,10.1021/ja400069s,105,6(a),311,Pb0.99Na0.01Se1,Pb0.99Na0.01Se1,677,70370,0.0010042,0.00012902,1.8193,0.47371,0.0000142106,0.0005519705
3503,10.1021/ja400069s,105,6(a),311,Pb0.99Na0.01Se1,Pb0.99Na0.01Se1,677.5,70196,0.0010052,0.00012922,1.8173,0.47447,0.0000142458,0.0005531283
3503,10.1021/ja400069s,105,6(a),311,Pb0.99Na0.01Se1,Pb0.99Na0.01Se1,678,70023,0.0010061,0.00012942,1.8154,0.47522,0.000014281,0.0005542029
3503,10.1021/ja400069s,105,6(a),311,Pb0.99Na0.01Se1,Pb0.99Na0.01Se1,678.5,69850,0.0010071,0.00012962,1.8134,0.47598,0.0000143164,0.0005553656
3503,10.1021/ja400069s,105,6(a),311,Pb0.99Na0.01Se1,Pb0.99Na0.01Se1,679,69677,0.0010081,0.00012981,1.8115,0.47673,0.0000143519,0.0005565001
3503,10.1021/ja400069s,105,6(a),311,Pb0.99Na0.01Se1,Pb0.99Na0.01Se1,679.5,69505,0.0010091,0.00013001,1.8095,0.47749,0.0000143875,0.0005576679
3503,10.1021/ja400069s,105,6(a),311,Pb0.99Na0.01Se1,Pb0.99Na0.01Se1,680,69333,0.0010101,0.00013021,1.8076,0.47824,0.0000144231,0.0005588073
3503,10.1021/ja400069s,105,6(a),311,Pb0.99Na0.01Se1,Pb0.99Na0.01Se1,680.5,69161,0.0010111,0.00013041,1.8057,0.479,0.000014459,0.0005599491
3503,10.1021/ja400069s,105,6(a),311,Pb0.99Na0.01Se1,Pb0.99Na0.01Se1,681,68990,0.0010121,0.00013061,1.8038,0.47975,0.0000144949,0.0005610932
3503,10.1021/ja400069s,105,6(a),311,Pb0.99Na0.01Se1,Pb0.99Na0.01Se1,681.5,68819,0.001013,0.0001308,1.8018,0.48051,0.0000145309,0.0005622156
3503,10.1021/ja400069s,105,6(a),311,Pb0.99Na0.01Se1,Pb0.99Na0.01Se1,682,68648,0.001014,0.000131,1.7999,0.48127,0.0000145671,0.0005633646
3503,10.1021/ja400069s,105,6(a),311,Pb0.99Na0.01Se1,Pb0.99Na0.01Se1,682.5,68478,0.001015,0.0001312,1.798,0.48202,0.0000146032,0.0005645161
3503,10.1021/ja400069s,105,6(a),311,Pb0.99Na0.01Se1,Pb0.99Na0.01Se1,683,68308,0.001016,0.0001314,1.7961,0.48278,0.0000146396,0.0005656701
3503,10.1021/ja400069s,105,6(a),311,Pb0.99Na0.01Se1,Pb0.99Na0.01Se1,683.5,68139,0.001017,0.0001316,1.7942,0.48353,0.0000146759,0.0005668264
3503,10.1021/ja400069s,105,6(a),311,Pb0.99Na0.01Se1,Pb0.99Na0.01Se1,684,67970,0.001018,0.00013179,1.7923,0.48429,0.0000147124,0.0005679853
3503,10.1021/ja400069s,105,6(a),311,Pb0.99Na0.01Se1,Pb0.99Na0.01Se1,684.5,67801,0.001019,0.00013199,1.7904,0.48504,0.000014749,0.0005691466
3503,10.1021/ja400069s,105,6(a),311,Pb0.99Na0.01Se1,Pb0.99Na0.01Se1,685,67632,0.0010199,0.00013219,1.7885,0.4858,0.0000147859,0.0005702544
3503,10.1021/ja400069s,105,6(a),311,Pb0.99Na0.01Se1,Pb0.99Na0.01Se1,685.5,67464,0.0010209,0.00013239,1.7866,0.48655,0.0000148227,0.0005714206
3503,10.1021/ja400069s,105,6(a),311,Pb0.99Na0.01Se1,Pb0.99Na0.01Se1,686,67296,0.0010219,0.00013259,1.7847,0.48731,0.0000148597,0.0005725892
3503,10.1021/ja400069s,105,6(a),311,Pb0.99Na0.01Se1,Pb0.99Na0.01Se1,686.5,67129,0.0010229,0.00013279,1.7828,0.48806,0.0000148967,0.0005737604
3503,10.1021/ja400069s,105,6(a),311,Pb0.99Na0.01Se1,Pb0.99Na0.01Se1,687,66962,0.0010239,0.00013298,1.7809,0.48882,0.0000149338,0.000574934
3503,10.1021/ja400069s,105,6(a),311,Pb0.99Na0.01Se1,Pb0.99Na0.01Se1,687.5,66795,0.0010249,0.00013318,1.779,0.48957,0.0000149712,0.0005761102
3503,10.1021/ja400069s,105,6(a),311,Pb0.99Na0.01Se1,Pb0.99Na0.01Se1,688,66629,0.0010259,0.00013338,1.7771,0.49033,0.0000150085,0.0005772888
3503,10.1021/ja400069s,105,6(a),311,Pb0.99Na0.01Se1,Pb0.99Na0.01Se1,688.5,66463,0.0010268,0.00013358,1.7753,0.49109,0.000015046,0.0005783811
3503,10.1021/ja400069s,105,6(a),311,Pb0.99Na0.01Se1,Pb0.99Na0.01Se1,689,66297,0.0010278,0.00013378,1.7734,0.49184,0.0000150836,0.0005795647
3503,10.1021/ja400069s,105,6(a),311,Pb0.99Na0.01Se1,Pb0.99Na0.01Se1,689.5,66132,0.0010288,0.00013398,1.7715,0.4926,0.0000151213,0.0005807508
3503,10.1021/ja400069s,105,6(a),311,Pb0.99Na0.01Se1,Pb0.99Na0.01Se1,690,65967,0.0010298,0.00013418,1.7697,0.49335,0.0000151591,0.0005819065
3503,10.1021/ja400069s,105,6(a),311,Pb0.99Na0.01Se1,Pb0.99Na0.01Se1,690.5,65802,0.0010308,0.00013437,1.7678,0.49411,0.0000151971,0.0005830976
3503,10.1021/ja400069s,105,6(a),311,Pb0.99Na0.01Se1,Pb0.99Na0.01Se1,691,65638,0.0010318,0.00013457,1.766,0.49486,0.0000152351,0.0005842582
3503,10.1021/ja400069s,105,6(a),311,Pb0.99Na0.01Se1,Pb0.99Na0.01Se1,691.5,65474,0.0010328,0.00013477,1.7641,0.49562,0.0000152732,0.0005854543
3503,10.1021/ja400069s,105,6(a),311,Pb0.99Na0.01Se1,Pb0.99Na0.01Se1,692,65311,0.0010337,0.00013497,1.7623,0.49637,0.0000153114,0.000586563
3503,10.1021/ja400069s,105,6(a),311,Pb0.99Na0.01Se1,Pb0.99Na0.01Se1,692.5,65147,0.0010347,0.00013517,1.7604,0.49713,0.0000153499,0.0005877641
3503,10.1021/ja400069s,105,6(a),311,Pb0.99Na0.01Se1,Pb0.99Na0.01Se1,693,64984,0.0010357,0.00013537,1.7586,0.49788,0.0000153884,0.0005889344
3503,10.1021/ja400069s,105,6(a),311,Pb0.99Na0.01Se1,Pb0.99Na0.01Se1,693.5,64822,0.0010367,0.00013557,1.7567,0.49864,0.0000154269,0.0005901406
3503,10.1021/ja400069s,105,6(a),311,Pb0.99Na0.01Se1,Pb0.99Na0.01Se1,694,64660,0.0010377,0.00013577,1.7549,0.4994,0.0000154655,0.0005913157
3503,10.1021/ja400069s,105,6(a),311,Pb0.99Na0.01Se1,Pb0.99Na0.01Se1,694.5,64498,0.0010387,0.00013597,1.7531,0.50015,0.0000155044,0.0005924933
3503,10.1021/ja400069s,105,6(a),311,Pb0.99Na0.01Se1,Pb0.99Na0.01Se1,695,64337,0.0010397,0.00013616,1.7512,0.50091,0.0000155432,0.0005937072
3503,10.1021/ja400069s,105,6(a),311,Pb0.99Na0.01Se1,Pb0.99Na0.01Se1,695.5,64176,0.0010406,0.00013636,1.7494,0.50166,0.0000155821,0.0005948325
3503,10.1021/ja400069s,105,6(a),311,Pb0.99Na0.01Se1,Pb0.99Na0.01Se1,696,64015,0.0010416,0.00013656,1.7476,0.50242,0.0000156213,0.0005960174
3503,10.1021/ja400069s,105,6(a),311,Pb0.99Na0.01Se1,Pb0.99Na0.01Se1,696.5,63855,0.0010426,0.00013676,1.7458,0.50317,0.0000156605,0.0005972047
3503,10.1021/ja400069s,105,6(a),311,Pb0.99Na0.01Se1,Pb0.99Na0.01Se1,697,63695,0.0010436,0.00013696,1.7439,0.50393,0.0000156998,0.0005984288
3503,10.1021/ja400069s,105,6(a),311,Pb0.99Na0.01Se1,Pb0.99Na0.01Se1,697.5,63535,0.0010446,0.00013716,1.7421,0.50468,0.0000157394,0.0005996211
3503,10.1021/ja400069s,105,6(a),311,Pb0.99Na0.01Se1,Pb0.99Na0.01Se1,698,63376,0.0010456,0.00013736,1.7403,0.50544,0.0000157788,0.000600816
3503,10.1021/ja400069s,105,6(a),311,Pb0.99Na0.01Se1,Pb0.99Na0.01Se1,698.5,63217,0.0010466,0.00013756,1.7385,0.50619,0.0000158185,0.0006020132
3503,10.1021/ja400069s,105,6(a),311,Pb0.99Na0.01Se1,Pb0.99Na0.01Se1,699,63058,0.0010475,0.00013776,1.7367,0.50695,0.0000158584,0.0006031554
3503,10.1021/ja400069s,105,6(a),311,Pb0.99Na0.01Se1,Pb0.99Na0.01Se1,699.5,62900,0.0010485,0.00013796,1.7349,0.5077,0.0000158983,0.0006043576
3503,10.1021/ja400069s,105,6(a),311,Pb0.99Na0.01Se1,Pb0.99Na0.01Se1,700,62742,0.0010495,0.00013816,1.7331,0.50846,0.0000159383,0.0006055623
3503,10.1021/ja400069s,105,6(a),311,Pb0.99Na0.01Se1,Pb0.99Na0.01Se1,700.5,62585,0.0010505,0.00013836,1.7313,0.50922,0.0000159783,0.0006067695
3503,10.1021/ja400069s,105,6(a),311,Pb0.99Na0.01Se1,Pb0.99Na0.01Se1,701,62427,0.0010515,0.00013855,1.7296,0.50997,0.0000160187,0.000607944
3503,10.1021/ja400069s,105,6(a),311,Pb0.99Na0.01Se1,Pb0.99Na0.01Se1,701.5,62271,0.0010525,0.00013875,1.7278,0.51073,0.0000160588,0.0006091562
3503,10.1021/ja400069s,105,6(a),311,Pb0.99Na0.01Se1,Pb0.99Na0.01Se1,702,62114,0.0010535,0.00013895,1.726,0.51148,0.0000160994,0.0006103708
3503,10.1021/ja400069s,105,6(a),311,Pb0.99Na0.01Se1,Pb0.99Na0.01Se1,702.5,61958,0.0010544,0.00013915,1.7242,0.51224,0.00001614,0.00061153
3503,10.1021/ja400069s,105,6(a),311,Pb0.99Na0.01Se1,Pb0.99Na0.01Se1,703,61803,0.0010554,0.00013935,1.7224,0.51299,0.0000161804,0.0006127497
3503,10.1021/ja400069s,105,6(a),311,Pb0.99Na0.01Se1,Pb0.99Na0.01Se1,703.5,61647,0.0010564,0.00013955,1.7207,0.51375,0.0000162214,0.0006139362
3503,10.1021/ja400069s,105,6(a),311,Pb0.99Na0.01Se1,Pb0.99Na0.01Se1,704,61492,0.0010574,0.00013975,1.7189,0.5145,0.0000162623,0.0006151609
3503,10.1021/ja400069s,105,6(a),311,Pb0.99Na0.01Se1,Pb0.99Na0.01Se1,704.5,61338,0.0010584,0.00013995,1.7172,0.51526,0.0000163031,0.0006163522
3503,10.1021/ja400069s,105,6(a),311,Pb0.99Na0.01Se1,Pb0.99Na0.01Se1,705,61183,0.0010594,0.00014015,1.7154,0.51601,0.0000163444,0.0006175819
3503,10.1021/ja400069s,105,6(a),311,Pb0.99Na0.01Se1,Pb0.99Na0.01Se1,705.5,61030,0.0010604,0.00014035,1.7136,0.51677,0.0000163854,0.0006188142
3503,10.1021/ja400069s,105,6(a),311,Pb0.99Na0.01Se1,Pb0.99Na0.01Se1,706,60876,0.0010613,0.00014055,1.7119,0.51753,0.0000164268,0.0006199544
3503,10.1021/ja400069s,105,6(a),311,Pb0.99Na0.01Se1,Pb0.99Na0.01Se1,706.5,60723,0.0010623,0.00014075,1.7101,0.51828,0.0000164682,0.0006211917
3503,10.1021/ja400069s,105,6(a),311,Pb0.99Na0.01Se1,Pb0.99Na0.01Se1,707,60570,0.0010633,0.00014095,1.7084,0.51904,0.0000165098,0.0006223952
3503,10.1021/ja400069s,105,6(a),311,Pb0.99Na0.01Se1,Pb0.99Na0.01Se1,707.5,60418,0.0010643,0.00014115,1.7067,0.51979,0.0000165514,0.0006236011
3503,10.1021/ja400069s,105,6(a),311,Pb0.99Na0.01Se1,Pb0.99Na0.01Se1,708,60266,0.0010653,0.00014135,1.7049,0.52055,0.0000165931,0.000624846
3503,10.1021/ja400069s,105,6(a),311,Pb0.99Na0.01Se1,Pb0.99Na0.01Se1,708.5,60114,0.0010663,0.00014155,1.7032,0.5213,0.0000166351,0.0006260568
3503,10.1021/ja400069s,105,6(a),311,Pb0.99Na0.01Se1,Pb0.99Na0.01Se1,709,59962,0.0010673,0.00014175,1.7014,0.52206,0.0000166772,0.0006273069
3503,10.1021/ja400069s,105,6(a),311,Pb0.99Na0.01Se1,Pb0.99Na0.01Se1,709.5,59812,0.0010682,0.00014195,1.6997,0.52281,0.0000167191,0.0006284638
3503,10.1021/ja400069s,105,6(a),311,Pb0.99Na0.01Se1,Pb0.99Na0.01Se1,710,59661,0.0010692,0.00014215,1.698,0.52357,0.0000167614,0.000629682
3503,10.1021/ja400069s,105,6(a),311,Pb0.99Na0.01Se1,Pb0.99Na0.01Se1,710.5,59511,0.0010702,0.00014234,1.6963,0.52432,0.0000168036,0.0006309026
3503,10.1021/ja400069s,105,6(a),311,Pb0.99Na0.01Se1,Pb0.99Na0.01Se1,711,59361,0.0010712,0.00014254,1.6946,0.52508,0.0000168461,0.0006321256
3503,10.1021/ja400069s,105,6(a),311,Pb0.99Na0.01Se1,Pb0.99Na0.01Se1,711.5,59211,0.0010722,0.00014274,1.6928,0.52583,0.0000168888,0.0006333885
3503,10.1021/ja400069s,105,6(a),311,Pb0.99Na0.01Se1,Pb0.99Na0.01Se1,712,59062,0.0010732,0.00014294,1.6911,0.52659,0.0000169314,0.0006346165
3503,10.1021/ja400069s,105,6(a),311,Pb0.99Na0.01Se1,Pb0.99Na0.01Se1,712.5,58913,0.0010742,0.00014314,1.6894,0.52735,0.0000169742,0.000635847