sid,DOI,figureid,fignum,sampleid,samplename,composition,Temperature,Electrical conductivity,Power factor,Seebeck coefficient,Thermal conductivity,ZT,Electrical resistivity,Figure of merit Z
3503,10.1021/ja400069s,105,6(a),311,Pb0.99Na0.01Se1,Pb0.99Na0.01Se1,854,31690,0.0013531,0.00019765,1.3396,0.74113,0.0000315557,0.0010100776
3503,10.1021/ja400069s,105,6(a),311,Pb0.99Na0.01Se1,Pb0.99Na0.01Se1,854.5,31644,0.0013541,0.00019783,1.3388,0.74189,0.0000316016,0.0010114281
3503,10.1021/ja400069s,105,6(a),311,Pb0.99Na0.01Se1,Pb0.99Na0.01Se1,855,31597,0.0013551,0.000198,1.338,0.74264,0.0000316486,0.0010127803
3503,10.1021/ja400069s,105,6(a),311,Pb0.99Na0.01Se1,Pb0.99Na0.01Se1,855.5,31552,0.001356,0.00019818,1.3372,0.7434,0.0000316937,0.0010140592
3503,10.1021/ja400069s,105,6(a),311,Pb0.99Na0.01Se1,Pb0.99Na0.01Se1,856,31506,0.001357,0.00019836,1.3364,0.74415,0.00003174,0.0010154145
3503,10.1021/ja400069s,105,6(a),311,Pb0.99Na0.01Se1,Pb0.99Na0.01Se1,856.5,31461,0.001358,0.00019853,1.3357,0.74491,0.0000317854,0.0010166954
3503,10.1021/ja400069s,105,6(a),311,Pb0.99Na0.01Se1,Pb0.99Na0.01Se1,857,31416,0.001359,0.00019871,1.3349,0.74566,0.0000318309,0.0010180538
3503,10.1021/ja400069s,105,6(a),311,Pb0.99Na0.01Se1,Pb0.99Na0.01Se1,857.5,31371,0.00136,0.00019888,1.3341,0.74642,0.0000318766,0.0010194138
3503,10.1021/ja400069s,105,6(a),311,Pb0.99Na0.01Se1,Pb0.99Na0.01Se1,858,31327,0.001361,0.00019906,1.3333,0.74717,0.0000319213,0.0010207755
3503,10.1021/ja400069s,105,6(a),311,Pb0.99Na0.01Se1,Pb0.99Na0.01Se1,858.5,31283,0.001362,0.00019923,1.3326,0.74793,0.0000319662,0.0010220621
3503,10.1021/ja400069s,105,6(a),311,Pb0.99Na0.01Se1,Pb0.99Na0.01Se1,859,31239,0.0013629,0.00019941,1.3318,0.74868,0.0000320113,0.0010233519
3503,10.1021/ja400069s,105,6(a),311,Pb0.99Na0.01Se1,Pb0.99Na0.01Se1,859.5,31196,0.0013639,0.00019958,1.331,0.74944,0.0000320554,0.0010247183
3503,10.1021/ja400069s,105,6(a),311,Pb0.99Na0.01Se1,Pb0.99Na0.01Se1,860,31153,0.0013649,0.00019976,1.3303,0.7502,0.0000320996,0.0010260092
3503,10.1021/ja400069s,105,6(a),311,Pb0.99Na0.01Se1,Pb0.99Na0.01Se1,860.5,31110,0.0013659,0.00019993,1.3295,0.75095,0.000032144,0.0010273787
3503,10.1021/ja400069s,105,6(a),311,Pb0.99Na0.01Se1,Pb0.99Na0.01Se1,861,31067,0.0013669,0.00020011,1.3288,0.75171,0.0000321885,0.0010286725
3503,10.1021/ja400069s,105,6(a),311,Pb0.99Na0.01Se1,Pb0.99Na0.01Se1,861.5,31025,0.0013679,0.00020028,1.328,0.75246,0.0000322321,0.0010300452
3503,10.1021/ja400069s,105,6(a),311,Pb0.99Na0.01Se1,Pb0.99Na0.01Se1,862,30983,0.0013689,0.00020046,1.3273,0.75322,0.0000322758,0.0010313418
3503,10.1021/ja400069s,105,6(a),311,Pb0.99Na0.01Se1,Pb0.99Na0.01Se1,862.5,30941,0.0013698,0.00020063,1.3265,0.75397,0.0000323196,0.0010326423
3503,10.1021/ja400069s,105,6(a),311,Pb0.99Na0.01Se1,Pb0.99Na0.01Se1,863,30899,0.0013708,0.0002008,1.3258,0.75473,0.0000323635,0.0010339418
3503,10.1021/ja400069s,105,6(a),311,Pb0.99Na0.01Se1,Pb0.99Na0.01Se1,863.5,30858,0.0013718,0.00020098,1.3251,0.75548,0.0000324065,0.0010352426
3503,10.1021/ja400069s,105,6(a),311,Pb0.99Na0.01Se1,Pb0.99Na0.01Se1,864,30817,0.0013728,0.00020115,1.3243,0.75624,0.0000324496,0.0010366231
3503,10.1021/ja400069s,105,6(a),311,Pb0.99Na0.01Se1,Pb0.99Na0.01Se1,864.5,30777,0.0013738,0.00020132,1.3236,0.75699,0.0000324918,0.0010379269
3503,10.1021/ja400069s,105,6(a),311,Pb0.99Na0.01Se1,Pb0.99Na0.01Se1,865,30736,0.0013748,0.0002015,1.3229,0.75775,0.0000325351,0.001039232
3503,10.1021/ja400069s,105,6(a),311,Pb0.99Na0.01Se1,Pb0.99Na0.01Se1,865.5,30696,0.0013758,0.00020167,1.3221,0.7585,0.0000325775,0.0010406172
3503,10.1021/ja400069s,105,6(a),311,Pb0.99Na0.01Se1,Pb0.99Na0.01Se1,866,30657,0.0013767,0.00020184,1.3214,0.75926,0.000032619,0.0010418496
3503,10.1021/ja400069s,105,6(a),311,Pb0.99Na0.01Se1,Pb0.99Na0.01Se1,866.5,30617,0.0013777,0.00020201,1.3207,0.76002,0.0000326616,0.0010431589
3503,10.1021/ja400069s,105,6(a),311,Pb0.99Na0.01Se1,Pb0.99Na0.01Se1,867,30578,0.0013787,0.00020219,1.32,0.76077,0.0000327033,0.0010444697
3503,10.1021/ja400069s,105,6(a),311,Pb0.99Na0.01Se1,Pb0.99Na0.01Se1,867.5,30539,0.0013797,0.00020236,1.3193,0.76153,0.000032745,0.0010457819
3503,10.1021/ja400069s,105,6(a),311,Pb0.99Na0.01Se1,Pb0.99Na0.01Se1,868,30500,0.0013807,0.00020253,1.3185,0.76228,0.0000327869,0.0010471748
3503,10.1021/ja400069s,105,6(a),311,Pb0.99Na0.01Se1,Pb0.99Na0.01Se1,868.5,30462,0.0013817,0.0002027,1.3178,0.76304,0.0000328278,0.0010484899
3503,10.1021/ja400069s,105,6(a),311,Pb0.99Na0.01Se1,Pb0.99Na0.01Se1,869,30424,0.0013827,0.00020287,1.3171,0.76379,0.0000328688,0.0010498064
3503,10.1021/ja400069s,105,6(a),311,Pb0.99Na0.01Se1,Pb0.99Na0.01Se1,869.5,30386,0.0013836,0.00020304,1.3164,0.76455,0.0000329099,0.0010510483
3503,10.1021/ja400069s,105,6(a),311,Pb0.99Na0.01Se1,Pb0.99Na0.01Se1,870,30348,0.0013846,0.00020322,1.3157,0.7653,0.0000329511,0.0010523676
3503,10.1021/ja400069s,105,6(a),311,Pb0.99Na0.01Se1,Pb0.99Na0.01Se1,870.5,30311,0.0013856,0.00020339,1.315,0.76606,0.0000329913,0.0010536882
3503,10.1021/ja400069s,105,6(a),311,Pb0.99Na0.01Se1,Pb0.99Na0.01Se1,871,30274,0.0013866,0.00020356,1.3143,0.76681,0.0000330316,0.0010550103
3503,10.1021/ja400069s,105,6(a),311,Pb0.99Na0.01Se1,Pb0.99Na0.01Se1,871.5,30237,0.0013876,0.00020373,1.3136,0.76757,0.0000330721,0.0010563337
3503,10.1021/ja400069s,105,6(a),311,Pb0.99Na0.01Se1,Pb0.99Na0.01Se1,872,30200,0.0013886,0.0002039,1.313,0.76833,0.0000331126,0.0010575781
3503,10.1021/ja400069s,105,6(a),311,Pb0.99Na0.01Se1,Pb0.99Na0.01Se1,872.5,30164,0.0013896,0.00020407,1.3123,0.76908,0.0000331521,0.0010589042
3503,10.1021/ja400069s,105,6(a),311,Pb0.99Na0.01Se1,Pb0.99Na0.01Se1,873,30128,0.0013905,0.00020424,1.3116,0.76984,0.0000331917,0.0010601555
3503,10.1021/ja400069s,105,6(a),311,Pb0.99Na0.01Se1,Pb0.99Na0.01Se1,873.5,30092,0.0013915,0.00020441,1.3109,0.77059,0.0000332314,0.0010614845
3503,10.1021/ja400069s,105,6(a),311,Pb0.99Na0.01Se1,Pb0.99Na0.01Se1,874,30057,0.0013925,0.00020458,1.3102,0.77135,0.0000332701,0.0010628148
3503,10.1021/ja400069s,105,6(a),311,Pb0.99Na0.01Se1,Pb0.99Na0.01Se1,874.5,30022,0.0013935,0.00020474,1.3096,0.7721,0.0000333089,0.0010640654
3503,10.1021/ja400069s,105,6(a),311,Pb0.99Na0.01Se1,Pb0.99Na0.01Se1,875,29987,0.0013945,0.00020491,1.3089,0.77286,0.0000333478,0.0010653984
3503,10.1021/ja400069s,105,6(a),311,Pb0.99Na0.01Se1,Pb0.99Na0.01Se1,875.5,29952,0.0013955,0.00020508,1.3082,0.77361,0.0000333868,0.0010667329
3503,10.1021/ja400069s,105,6(a),311,Pb0.99Na0.01Se1,Pb0.99Na0.01Se1,876,29917,0.0013965,0.00020525,1.3075,0.77437,0.0000334258,0.0010680688
3503,10.1021/ja400069s,105,6(a),311,Pb0.99Na0.01Se1,Pb0.99Na0.01Se1,876.5,29883,0.0013974,0.00020542,1.3069,0.77512,0.0000334638,0.0010692478
3503,10.1021/ja400069s,105,6(a),311,Pb0.99Na0.01Se1,Pb0.99Na0.01Se1,877,29849,0.0013984,0.00020559,1.3062,0.77588,0.000033502,0.0010705864
3503,10.1021/ja400069s,105,6(a),311,Pb0.99Na0.01Se1,Pb0.99Na0.01Se1,877.5,29816,0.0013994,0.00020575,1.3056,0.77663,0.000033539,0.0010718444
3503,10.1021/ja400069s,105,6(a),311,Pb0.99Na0.01Se1,Pb0.99Na0.01Se1,878,29782,0.0014004,0.00020592,1.3049,0.77739,0.0000335773,0.0010731857
3503,10.1021/ja400069s,105,6(a),311,Pb0.99Na0.01Se1,Pb0.99Na0.01Se1,878.5,29749,0.0014014,0.00020609,1.3043,0.77815,0.0000336146,0.0010744461
3503,10.1021/ja400069s,105,6(a),311,Pb0.99Na0.01Se1,Pb0.99Na0.01Se1,879,29716,0.0014024,0.00020626,1.3036,0.7789,0.0000336519,0.0010757901
3503,10.1021/ja400069s,105,6(a),311,Pb0.99Na0.01Se1,Pb0.99Na0.01Se1,879.5,29683,0.0014034,0.00020642,1.303,0.77966,0.0000336893,0.001077053
3503,10.1021/ja400069s,105,6(a),311,Pb0.99Na0.01Se1,Pb0.99Na0.01Se1,880,29651,0.0014043,0.00020659,1.3023,0.78041,0.0000337257,0.001078323
3503,10.1021/ja400069s,105,6(a),311,Pb0.99Na0.01Se1,Pb0.99Na0.01Se1,880.5,29618,0.0014053,0.00020676,1.3017,0.78117,0.0000337633,0.0010795882
3503,10.1021/ja400069s,105,6(a),311,Pb0.99Na0.01Se1,Pb0.99Na0.01Se1,881,29586,0.0014063,0.00020692,1.301,0.78192,0.0000337998,0.0010809377
3503,10.1021/ja400069s,105,6(a),311,Pb0.99Na0.01Se1,Pb0.99Na0.01Se1,881.5,29555,0.0014073,0.00020709,1.3004,0.78268,0.0000338352,0.0010822055
3503,10.1021/ja400069s,105,6(a),311,Pb0.99Na0.01Se1,Pb0.99Na0.01Se1,882,29523,0.0014083,0.00020726,1.2998,0.78343,0.0000338719,0.0010834744
3503,10.1021/ja400069s,105,6(a),311,Pb0.99Na0.01Se1,Pb0.99Na0.01Se1,882.5,29492,0.0014093,0.00020742,1.2991,0.78419,0.0000339075,0.001084828
3503,10.1021/ja400069s,105,6(a),311,Pb0.99Na0.01Se1,Pb0.99Na0.01Se1,883,29461,0.0014103,0.00020759,1.2985,0.78494,0.0000339432,0.0010860993
3503,10.1021/ja400069s,105,6(a),311,Pb0.99Na0.01Se1,Pb0.99Na0.01Se1,883.5,29430,0.0014112,0.00020775,1.2979,0.7857,0.0000339789,0.0010872949
3503,10.1021/ja400069s,105,6(a),311,Pb0.99Na0.01Se1,Pb0.99Na0.01Se1,884,29400,0.0014122,0.00020792,1.2973,0.78646,0.0000340136,0.0010885686
3503,10.1021/ja400069s,105,6(a),311,Pb0.99Na0.01Se1,Pb0.99Na0.01Se1,884.5,29369,0.0014132,0.00020808,1.2967,0.78721,0.0000340495,0.0010898434
3503,10.1021/ja400069s,105,6(a),311,Pb0.99Na0.01Se1,Pb0.99Na0.01Se1,885,29339,0.0014142,0.00020825,1.296,0.78797,0.0000340843,0.0010912037
3503,10.1021/ja400069s,105,6(a),311,Pb0.99Na0.01Se1,Pb0.99Na0.01Se1,885.5,29309,0.0014152,0.00020841,1.2954,0.78872,0.0000341192,0.0010924811
3503,10.1021/ja400069s,105,6(a),311,Pb0.99Na0.01Se1,Pb0.99Na0.01Se1,886,29280,0.0014162,0.00020857,1.2948,0.78948,0.000034153,0.0010937597
3503,10.1021/ja400069s,105,6(a),311,Pb0.99Na0.01Se1,Pb0.99Na0.01Se1,886.5,29250,0.0014172,0.00020874,1.2942,0.79023,0.000034188,0.0010950394
3503,10.1021/ja400069s,105,6(a),311,Pb0.99Na0.01Se1,Pb0.99Na0.01Se1,887,29221,0.0014181,0.0002089,1.2936,0.79099,0.000034222,0.001096243
3503,10.1021/ja400069s,105,6(a),311,Pb0.99Na0.01Se1,Pb0.99Na0.01Se1,887.5,29192,0.0014191,0.00020907,1.293,0.79174,0.000034256,0.0010975251
3503,10.1021/ja400069s,105,6(a),311,Pb0.99Na0.01Se1,Pb0.99Na0.01Se1,888,29163,0.0014201,0.00020923,1.2924,0.7925,0.00003429,0.0010988084
3503,10.1021/ja400069s,105,6(a),311,Pb0.99Na0.01Se1,Pb0.99Na0.01Se1,888.5,29135,0.0014211,0.00020939,1.2918,0.79325,0.000034323,0.0011000929
3503,10.1021/ja400069s,105,6(a),311,Pb0.99Na0.01Se1,Pb0.99Na0.01Se1,889,29106,0.0014221,0.00020955,1.2912,0.79401,0.0000343572,0.0011013786
3503,10.1021/ja400069s,105,6(a),311,Pb0.99Na0.01Se1,Pb0.99Na0.01Se1,889.5,29078,0.0014231,0.00020972,1.2906,0.79476,0.0000343903,0.0011026654
3503,10.1021/ja400069s,105,6(a),311,Pb0.99Na0.01Se1,Pb0.99Na0.01Se1,890,29050,0.0014241,0.00020988,1.29,0.79552,0.0000344234,0.0011039535
3503,10.1021/ja400069s,105,6(a),311,Pb0.99Na0.01Se1,Pb0.99Na0.01Se1,890.5,29023,0.001425,0.00021004,1.2895,0.79628,0.0000344554,0.0011050795
3503,10.1021/ja400069s,105,6(a),311,Pb0.99Na0.01Se1,Pb0.99Na0.01Se1,891,28995,0.001426,0.0002102,1.2889,0.79703,0.0000344887,0.0011063698
3503,10.1021/ja400069s,105,6(a),311,Pb0.99Na0.01Se1,Pb0.99Na0.01Se1,891.5,28968,0.001427,0.00021037,1.2883,0.79779,0.0000345209,0.0011076613
3503,10.1021/ja400069s,105,6(a),311,Pb0.99Na0.01Se1,Pb0.99Na0.01Se1,892,28941,0.001428,0.00021053,1.2877,0.79854,0.0000345531,0.0011089539
3503,10.1021/ja400069s,105,6(a),311,Pb0.99Na0.01Se1,Pb0.99Na0.01Se1,892.5,28914,0.001429,0.00021069,1.2871,0.7993,0.0000345853,0.0011102478
3503,10.1021/ja400069s,105,6(a),311,Pb0.99Na0.01Se1,Pb0.99Na0.01Se1,893,28888,0.00143,0.00021085,1.2866,0.80005,0.0000346164,0.0011114566
3503,10.1021/ja400069s,105,6(a),311,Pb0.99Na0.01Se1,Pb0.99Na0.01Se1,893.5,28861,0.001431,0.00021101,1.286,0.80081,0.0000346488,0.0011127527
3503,10.1021/ja400069s,105,6(a),311,Pb0.99Na0.01Se1,Pb0.99Na0.01Se1,894,28835,0.0014319,0.00021117,1.2854,0.80156,0.0000346801,0.0011139723
3503,10.1021/ja400069s,105,6(a),311,Pb0.99Na0.01Se1,Pb0.99Na0.01Se1,894.5,28809,0.0014329,0.00021133,1.2849,0.80232,0.0000347114,0.0011151841
3503,10.1021/ja400069s,105,6(a),311,Pb0.99Na0.01Se1,Pb0.99Na0.01Se1,895,28783,0.0014339,0.00021149,1.2843,0.80307,0.0000347427,0.0011164837
3503,10.1021/ja400069s,105,6(a),311,Pb0.99Na0.01Se1,Pb0.99Na0.01Se1,895.5,28758,0.0014349,0.00021165,1.2838,0.80383,0.0000347729,0.0011176975
3503,10.1021/ja400069s,105,6(a),311,Pb0.99Na0.01Se1,Pb0.99Na0.01Se1,896,28733,0.0014359,0.00021181,1.2832,0.80459,0.0000348032,0.0011189994
3503,10.1021/ja400069s,105,6(a),311,Pb0.99Na0.01Se1,Pb0.99Na0.01Se1,896.5,28707,0.0014369,0.00021197,1.2827,0.80534,0.0000348347,0.0011202152
3503,10.1021/ja400069s,105,6(a),311,Pb0.99Na0.01Se1,Pb0.99Na0.01Se1,897,28682,0.0014379,0.00021213,1.2821,0.8061,0.0000348651,0.0011215194
3503,10.1021/ja400069s,105,6(a),311,Pb0.99Na0.01Se1,Pb0.99Na0.01Se1,897.5,28658,0.0014388,0.00021229,1.2816,0.80685,0.0000348943,0.0011226592
3503,10.1021/ja400069s,105,6(a),311,Pb0.99Na0.01Se1,Pb0.99Na0.01Se1,898,28633,0.0014398,0.00021244,1.281,0.80761,0.0000349247,0.0011239657
3503,10.1021/ja400069s,105,6(a),311,Pb0.99Na0.01Se1,Pb0.99Na0.01Se1,898.5,28609,0.0014408,0.0002126,1.2805,0.80836,0.000034954,0.0011251855
3503,10.1021/ja400069s,105,6(a),311,Pb0.99Na0.01Se1,Pb0.99Na0.01Se1,899,28584,0.0014418,0.00021276,1.2799,0.80912,0.0000349846,0.0011264943
3503,10.1021/ja400069s,105,6(a),311,Pb0.99Na0.01Se1,Pb0.99Na0.01Se1,899.5,28560,0.0014428,0.00021292,1.2794,0.80987,0.000035014,0.0011277161
3503,10.1021/ja400069s,105,6(a),311,Pb0.99Na0.01Se1,Pb0.99Na0.01Se1,900,28537,0.0014438,0.00021308,1.2789,0.81063,0.0000350422,0.0011289389
3503,10.1021/ja400069s,105,6(a),311,Pb0.99Na0.01Se1,Pb0.99Na0.01Se1,900.5,28513,0.0014447,0.00021323,1.2783,0.81138,0.0000350717,0.0011301729
3503,10.1021/ja400069s,105,6(a),311,Pb0.99Na0.01Se1,Pb0.99Na0.01Se1,901,28490,0.0014457,0.00021339,1.2778,0.81214,0.0000351,0.0011313977
3503,10.1021/ja400069s,105,6(a),311,Pb0.99Na0.01Se1,Pb0.99Na0.01Se1,901.5,28466,0.0014467,0.00021355,1.2773,0.81289,0.0000351296,0.0011326235
3503,10.1021/ja400069s,105,6(a),311,Pb0.99Na0.01Se1,Pb0.99Na0.01Se1,902,28443,0.0014477,0.0002137,1.2768,0.81365,0.000035158,0.0011338503
3503,10.1021/ja400069s,105,6(a),311,Pb0.99Na0.01Se1,Pb0.99Na0.01Se1,902.5,28420,0.0014487,0.00021386,1.2762,0.81441,0.0000351865,0.0011351669
3503,10.1021/ja400069s,105,6(a),311,Pb0.99Na0.01Se1,Pb0.99Na0.01Se1,903,28398,0.0014497,0.00021402,1.2757,0.81516,0.0000352137,0.0011363957
3503,10.1021/ja400069s,105,6(a),311,Pb0.99Na0.01Se1,Pb0.99Na0.01Se1,903.5,28375,0.0014507,0.00021417,1.2752,0.81592,0.0000352423,0.0011376255
3503,10.1021/ja400069s,105,6(a),311,Pb0.99Na0.01Se1,Pb0.99Na0.01Se1,904,28353,0.0014516,0.00021433,1.2747,0.81667,0.0000352696,0.0011387778
3503,10.1021/ja400069s,105,6(a),311,Pb0.99Na0.01Se1,Pb0.99Na0.01Se1,904.5,28330,0.0014526,0.00021448,1.2742,0.81743,0.0000352983,0.0011400094
3503,10.1021/ja400069s,105,6(a),311,Pb0.99Na0.01Se1,Pb0.99Na0.01Se1,905,28308,0.0014536,0.00021464,1.2737,0.81818,0.0000353257,0.0011412421
3503,10.1021/ja400069s,105,6(a),311,Pb0.99Na0.01Se1,Pb0.99Na0.01Se1,905.5,28287,0.0014546,0.00021479,1.2732,0.81894,0.0000353519,0.0011424757
3503,10.1021/ja400069s,105,6(a),311,Pb0.99Na0.01Se1,Pb0.99Na0.01Se1,906,28265,0.0014556,0.00021495,1.2727,0.81969,0.0000353794,0.0011437102
3503,10.1021/ja400069s,105,6(a),311,Pb0.99Na0.01Se1,Pb0.99Na0.01Se1,906.5,28243,0.0014566,0.0002151,1.2722,0.82045,0.000035407,0.0011449458
3503,10.1021/ja400069s,105,6(a),311,Pb0.99Na0.01Se1,Pb0.99Na0.01Se1,907,28222,0.0014576,0.00021525,1.2717,0.8212,0.0000354333,0.0011461823
3503,10.1021/ja400069s,105,6(a),311,Pb0.99Na0.01Se1,Pb0.99Na0.01Se1,907.5,28201,0.0014585,0.00021541,1.2712,0.82196,0.0000354597,0.0011473411
3503,10.1021/ja400069s,105,6(a),311,Pb0.99Na0.01Se1,Pb0.99Na0.01Se1,908,28180,0.0014595,0.00021556,1.2707,0.82272,0.0000354862,0.0011485795
3503,10.1021/ja400069s,105,6(a),311,Pb0.99Na0.01Se1,Pb0.99Na0.01Se1,908.5,28159,0.0014605,0.00021571,1.2702,0.82347,0.0000355126,0.0011498189
3503,10.1021/ja400069s,105,6(a),311,Pb0.99Na0.01Se1,Pb0.99Na0.01Se1,909,28138,0.0014615,0.00021587,1.2697,0.82423,0.0000355391,0.0011510593
3503,10.1021/ja400069s,105,6(a),311,Pb0.99Na0.01Se1,Pb0.99Na0.01Se1,909.5,28118,0.0014625,0.00021602,1.2693,0.82498,0.0000355644,0.0011522099
3503,10.1021/ja400069s,105,6(a),311,Pb0.99Na0.01Se1,Pb0.99Na0.01Se1,910,28097,0.0014635,0.00021617,1.2688,0.82574,0.000035591,0.0011534521
3503,10.1021/ja400069s,105,6(a),311,Pb0.99Na0.01Se1,Pb0.99Na0.01Se1,910.5,28077,0.0014645,0.00021632,1.2683,0.82649,0.0000356163,0.0011546953
3503,10.1021/ja400069s,105,6(a),311,Pb0.99Na0.01Se1,Pb0.99Na0.01Se1,911,28057,0.0014654,0.00021648,1.2678,0.82725,0.0000356417,0.0011558605
3503,10.1021/ja400069s,105,6(a),311,Pb0.99Na0.01Se1,Pb0.99Na0.01Se1,911.5,28037,0.0014664,0.00021663,1.2674,0.828,0.0000356672,0.0011570144
3503,10.1021/ja400069s,105,6(a),311,Pb0.99Na0.01Se1,Pb0.99Na0.01Se1,912,28017,0.0014674,0.00021678,1.2669,0.82876,0.0000356926,0.0011582603
3503,10.1021/ja400069s,105,6(a),311,Pb0.99Na0.01Se1,Pb0.99Na0.01Se1,912.5,27997,0.0014684,0.00021693,1.2664,0.82951,0.0000357181,0.0011595073
3503,10.1021/ja400069s,105,6(a),311,Pb0.99Na0.01Se1,Pb0.99Na0.01Se1,913,27978,0.0014694,0.00021708,1.266,0.83027,0.0000357424,0.0011606635
3503,10.1021/ja400069s,105,6(a),311,Pb0.99Na0.01Se1,Pb0.99Na0.01Se1,913.5,27958,0.0014704,0.00021723,1.2655,0.83103,0.0000357679,0.0011619123
3503,10.1021/ja400069s,105,6(a),311,Pb0.99Na0.01Se1,Pb0.99Na0.01Se1,914,27939,0.0014714,0.00021738,1.2651,0.83178,0.0000357923,0.0011630701
3503,10.1021/ja400069s,105,6(a),311,Pb0.99Na0.01Se1,Pb0.99Na0.01Se1,914.5,27920,0.0014723,0.00021753,1.2646,0.83254,0.0000358166,0.0011642417
3503,10.1021/ja400069s,105,6(a),311,Pb0.99Na0.01Se1,Pb0.99Na0.01Se1,915,27901,0.0014733,0.00021768,1.2641,0.83329,0.000035841,0.0011654932
3503,10.1021/ja400069s,105,6(a),311,Pb0.99Na0.01Se1,Pb0.99Na0.01Se1,915.5,27882,0.0014743,0.00021783,1.2637,0.83405,0.0000358654,0.0011666535
3503,10.1021/ja400069s,105,6(a),311,Pb0.99Na0.01Se1,Pb0.99Na0.01Se1,916,27864,0.0014753,0.00021798,1.2632,0.8348,0.0000358886,0.0011679069
3503,10.1021/ja400069s,105,6(a),311,Pb0.99Na0.01Se1,Pb0.99Na0.01Se1,916.5,27845,0.0014763,0.00021813,1.2628,0.83556,0.0000359131,0.0011690687
3503,10.1021/ja400069s,105,6(a),311,Pb0.99Na0.01Se1,Pb0.99Na0.01Se1,917,27827,0.0014773,0.00021828,1.2624,0.83631,0.0000359363,0.0011702313
3503,10.1021/ja400069s,105,6(a),311,Pb0.99Na0.01Se1,Pb0.99Na0.01Se1,917.5,27808,0.0014783,0.00021843,1.2619,0.83707,0.0000359609,0.0011714874
3503,10.1021/ja400069s,105,6(a),311,Pb0.99Na0.01Se1,Pb0.99Na0.01Se1,918,27790,0.0014792,0.00021857,1.2615,0.83782,0.0000359842,0.0011725723
3503,10.1021/ja400069s,105,6(a),311,Pb0.99Na0.01Se1,Pb0.99Na0.01Se1,918.5,27772,0.0014802,0.00021872,1.2611,0.83858,0.0000360075,0.0011737372
3503,10.1021/ja400069s,105,6(a),311,Pb0.99Na0.01Se1,Pb0.99Na0.01Se1,919,27754,0.0014812,0.00021887,1.2606,0.83933,0.0000360308,0.001174996
3503,10.1021/ja400069s,105,6(a),311,Pb0.99Na0.01Se1,Pb0.99Na0.01Se1,919.5,27736,0.0014822,0.00021902,1.2602,0.84009,0.0000360542,0.0011761625
3503,10.1021/ja400069s,105,6(a),311,Pb0.99Na0.01Se1,Pb0.99Na0.01Se1,920,27719,0.0014832,0.00021916,1.2598,0.84085,0.0000360763,0.0011773297
3503,10.1021/ja400069s,105,6(a),311,Pb0.99Na0.01Se1,Pb0.99Na0.01Se1,920.5,27701,0.0014842,0.00021931,1.2593,0.8416,0.0000360998,0.0011785913
3503,10.1021/ja400069s,105,6(a),311,Pb0.99Na0.01Se1,Pb0.99Na0.01Se1,921,27684,0.0014852,0.00021946,1.2589,0.84236,0.0000361219,0.0011797601
3503,10.1021/ja400069s,105,6(a),311,Pb0.99Na0.01Se1,Pb0.99Na0.01Se1,921.5,27666,0.0014861,0.0002196,1.2585,0.84311,0.0000361454,0.0011808502
3503,10.1021/ja400069s,105,6(a),311,Pb0.99Na0.01Se1,Pb0.99Na0.01Se1,922,27649,0.0014871,0.00021975,1.2581,0.84387,0.0000361677,0.0011820205
3503,10.1021/ja400069s,105,6(a),311,Pb0.99Na0.01Se1,Pb0.99Na0.01Se1,922.5,27632,0.0014881,0.00021989,1.2577,0.84462,0.0000361899,0.0011831915
3503,10.1021/ja400069s,105,6(a),311,Pb0.99Na0.01Se1,Pb0.99Na0.01Se1,923,27615,0.0014891,0.00022004,1.2573,0.84538,0.0000362122,0.0011843633
3503,10.1021/ja400069s,171,5(a),311,Pb0.99Na0.01Se1,Pb0.99Na0.01Se1,923.5,27598,0.0014901,,1.2569,1.0948,0.0000362345,0.0011855358
3503,10.1021/ja400069s,31,7(b),311,Pb0.99Na0.01Se1,Pb0.99Na0.01Se1,924,,0.0014911,,1.2565,1.0965,,0.0011867091