sid,DOI,figureid,fignum,sampleid,samplename,composition,Temperature,Electrical conductivity,Power factor,Seebeck coefficient,Thermal conductivity,ZT,Electrical resistivity,Figure of merit Z
3503,10.1021/ja400069s,105,6(a),311,Pb0.99Na0.01Se1,Pb0.99Na0.01Se1,435.5,189910,0.00052811,0.000048775,3.1783,0.10884,0.0000052657,0.0001661612
3503,10.1021/ja400069s,105,6(a),311,Pb0.99Na0.01Se1,Pb0.99Na0.01Se1,436,189580,0.0005291,0.000048891,3.1746,0.1096,0.0000052748,0.0001666667
3503,10.1021/ja400069s,105,6(a),311,Pb0.99Na0.01Se1,Pb0.99Na0.01Se1,436.5,189260,0.00053008,0.000049006,3.171,0.11035,0.0000052837,0.0001671649
3503,10.1021/ja400069s,105,6(a),311,Pb0.99Na0.01Se1,Pb0.99Na0.01Se1,437,188940,0.00053107,0.000049123,3.1674,0.11111,0.0000052927,0.0001676675
3503,10.1021/ja400069s,105,6(a),311,Pb0.99Na0.01Se1,Pb0.99Na0.01Se1,437.5,188620,0.00053206,0.000049239,3.1637,0.11186,0.0000053017,0.0001681765
3503,10.1021/ja400069s,105,6(a),311,Pb0.99Na0.01Se1,Pb0.99Na0.01Se1,438,188300,0.00053304,0.000049356,3.1601,0.11262,0.0000053107,0.0001686782
3503,10.1021/ja400069s,105,6(a),311,Pb0.99Na0.01Se1,Pb0.99Na0.01Se1,438.5,187980,0.00053403,0.000049473,3.1564,0.11337,0.0000053197,0.0001691896
3503,10.1021/ja400069s,105,6(a),311,Pb0.99Na0.01Se1,Pb0.99Na0.01Se1,439,187660,0.00053501,0.00004959,3.1528,0.11413,0.0000053288,0.0001696936
3503,10.1021/ja400069s,105,6(a),311,Pb0.99Na0.01Se1,Pb0.99Na0.01Se1,439.5,187340,0.000536,0.000049708,3.1492,0.11489,0.0000053379,0.000170202
3503,10.1021/ja400069s,105,6(a),311,Pb0.99Na0.01Se1,Pb0.99Na0.01Se1,440,187020,0.00053698,0.000049826,3.1456,0.11564,0.000005347,0.0001707083
3503,10.1021/ja400069s,105,6(a),311,Pb0.99Na0.01Se1,Pb0.99Na0.01Se1,440.5,186700,0.00053797,0.000049944,3.142,0.1164,0.0000053562,0.000171219
3503,10.1021/ja400069s,105,6(a),311,Pb0.99Na0.01Se1,Pb0.99Na0.01Se1,441,186380,0.00053895,0.000050062,3.1383,0.11715,0.0000053654,0.0001717331
3503,10.1021/ja400069s,105,6(a),311,Pb0.99Na0.01Se1,Pb0.99Na0.01Se1,441.5,186060,0.00053994,0.000050181,3.1347,0.11791,0.0000053746,0.0001722461
3503,10.1021/ja400069s,105,6(a),311,Pb0.99Na0.01Se1,Pb0.99Na0.01Se1,442,185740,0.00054093,0.0000503,3.1311,0.11866,0.0000053839,0.0001727604
3503,10.1021/ja400069s,105,6(a),311,Pb0.99Na0.01Se1,Pb0.99Na0.01Se1,442.5,185430,0.00054191,0.000050419,3.1275,0.11942,0.0000053929,0.0001732726
3503,10.1021/ja400069s,105,6(a),311,Pb0.99Na0.01Se1,Pb0.99Na0.01Se1,443,185110,0.0005429,0.000050539,3.1239,0.12017,0.0000054022,0.0001737892
3503,10.1021/ja400069s,105,6(a),311,Pb0.99Na0.01Se1,Pb0.99Na0.01Se1,443.5,184790,0.00054388,0.000050659,3.1203,0.12093,0.0000054115,0.0001743038
3503,10.1021/ja400069s,105,6(a),311,Pb0.99Na0.01Se1,Pb0.99Na0.01Se1,444,184480,0.00054487,0.000050779,3.1167,0.12168,0.0000054206,0.0001748227
3503,10.1021/ja400069s,105,6(a),311,Pb0.99Na0.01Se1,Pb0.99Na0.01Se1,444.5,184160,0.00054585,0.000050899,3.1131,0.12244,0.0000054301,0.0001753397
3503,10.1021/ja400069s,105,6(a),311,Pb0.99Na0.01Se1,Pb0.99Na0.01Se1,445,183840,0.00054684,0.00005102,3.1095,0.1232,0.0000054395,0.0001758611
3503,10.1021/ja400069s,105,6(a),311,Pb0.99Na0.01Se1,Pb0.99Na0.01Se1,445.5,183530,0.00054783,0.000051141,3.1059,0.12395,0.0000054487,0.0001763837
3503,10.1021/ja400069s,105,6(a),311,Pb0.99Na0.01Se1,Pb0.99Na0.01Se1,446,183210,0.00054881,0.000051262,3.1024,0.12471,0.0000054582,0.0001768985
3503,10.1021/ja400069s,105,6(a),311,Pb0.99Na0.01Se1,Pb0.99Na0.01Se1,446.5,182900,0.0005498,0.000051384,3.0988,0.12546,0.0000054675,0.0001774235
3503,10.1021/ja400069s,105,6(a),311,Pb0.99Na0.01Se1,Pb0.99Na0.01Se1,447,182590,0.00055078,0.000051506,3.0952,0.12622,0.0000054768,0.0001779465
3503,10.1021/ja400069s,105,6(a),311,Pb0.99Na0.01Se1,Pb0.99Na0.01Se1,447.5,182270,0.00055177,0.000051628,3.0916,0.12697,0.0000054864,0.0001784739
3503,10.1021/ja400069s,105,6(a),311,Pb0.99Na0.01Se1,Pb0.99Na0.01Se1,448,181960,0.00055275,0.00005175,3.0881,0.12773,0.0000054957,0.0001789936
3503,10.1021/ja400069s,105,6(a),311,Pb0.99Na0.01Se1,Pb0.99Na0.01Se1,448.5,181650,0.00055374,0.000051873,3.0845,0.12848,0.0000055051,0.0001795234
3503,10.1021/ja400069s,105,6(a),311,Pb0.99Na0.01Se1,Pb0.99Na0.01Se1,449,181330,0.00055472,0.000051996,3.0809,0.12924,0.0000055148,0.0001800513
3503,10.1021/ja400069s,105,6(a),311,Pb0.99Na0.01Se1,Pb0.99Na0.01Se1,449.5,181020,0.00055571,0.000052119,3.0774,0.12999,0.0000055243,0.0001805778
3503,10.1021/ja400069s,105,6(a),311,Pb0.99Na0.01Se1,Pb0.99Na0.01Se1,450,180710,0.0005567,0.000052242,3.0738,0.13075,0.0000055337,0.0001811113
3503,10.1021/ja400069s,105,6(a),311,Pb0.99Na0.01Se1,Pb0.99Na0.01Se1,450.5,180400,0.00055768,0.000052366,3.0703,0.13151,0.0000055432,0.000181637
3503,10.1021/ja400069s,105,6(a),311,Pb0.99Na0.01Se1,Pb0.99Na0.01Se1,451,180090,0.00055867,0.00005249,3.0667,0.13226,0.0000055528,0.000182173
3503,10.1021/ja400069s,105,6(a),311,Pb0.99Na0.01Se1,Pb0.99Na0.01Se1,451.5,179770,0.00055965,0.000052614,3.0632,0.13302,0.0000055627,0.0001827011
3503,10.1021/ja400069s,105,6(a),311,Pb0.99Na0.01Se1,Pb0.99Na0.01Se1,452,179460,0.00056064,0.000052739,3.0596,0.13377,0.0000055723,0.0001832396
3503,10.1021/ja400069s,105,6(a),311,Pb0.99Na0.01Se1,Pb0.99Na0.01Se1,452.5,179150,0.00056162,0.000052864,3.0561,0.13453,0.0000055819,0.0001837702
3503,10.1021/ja400069s,105,6(a),311,Pb0.99Na0.01Se1,Pb0.99Na0.01Se1,453,178840,0.00056261,0.000052989,3.0526,0.13528,0.0000055916,0.0001843052
3503,10.1021/ja400069s,105,6(a),311,Pb0.99Na0.01Se1,Pb0.99Na0.01Se1,453.5,178530,0.0005636,0.000053114,3.049,0.13604,0.0000056013,0.0001848475
3503,10.1021/ja400069s,105,6(a),311,Pb0.99Na0.01Se1,Pb0.99Na0.01Se1,454,178230,0.00056458,0.00005324,3.0455,0.13679,0.0000056107,0.0001853817
3503,10.1021/ja400069s,105,6(a),311,Pb0.99Na0.01Se1,Pb0.99Na0.01Se1,454.5,177920,0.00056557,0.000053366,3.042,0.13755,0.0000056205,0.0001859204
3503,10.1021/ja400069s,105,6(a),311,Pb0.99Na0.01Se1,Pb0.99Na0.01Se1,455,177610,0.00056655,0.000053492,3.0384,0.1383,0.0000056303,0.0001864633
3503,10.1021/ja400069s,105,6(a),311,Pb0.99Na0.01Se1,Pb0.99Na0.01Se1,455.5,177300,0.00056754,0.000053619,3.0349,0.13906,0.0000056402,0.0001870045
3503,10.1021/ja400069s,105,6(a),311,Pb0.99Na0.01Se1,Pb0.99Na0.01Se1,456,176990,0.00056852,0.000053745,3.0314,0.13981,0.00000565,0.0001875437
3503,10.1021/ja400069s,105,6(a),311,Pb0.99Na0.01Se1,Pb0.99Na0.01Se1,456.5,176690,0.00056951,0.000053872,3.0279,0.14057,0.0000056596,0.0001880875
3503,10.1021/ja400069s,105,6(a),311,Pb0.99Na0.01Se1,Pb0.99Na0.01Se1,457,176380,0.00057049,0.000053999,3.0244,0.14133,0.0000056696,0.0001886291
3503,10.1021/ja400069s,105,6(a),311,Pb0.99Na0.01Se1,Pb0.99Na0.01Se1,457.5,176070,0.00057148,0.000054127,3.0209,0.14208,0.0000056796,0.0001891754
3503,10.1021/ja400069s,105,6(a),311,Pb0.99Na0.01Se1,Pb0.99Na0.01Se1,458,175770,0.00057247,0.000054255,3.0174,0.14284,0.0000056893,0.0001897229
3503,10.1021/ja400069s,105,6(a),311,Pb0.99Na0.01Se1,Pb0.99Na0.01Se1,458.5,175460,0.00057345,0.000054383,3.0139,0.14359,0.0000056993,0.0001902684
3503,10.1021/ja400069s,105,6(a),311,Pb0.99Na0.01Se1,Pb0.99Na0.01Se1,459,175150,0.00057444,0.000054511,3.0104,0.14435,0.0000057094,0.0001908185
3503,10.1021/ja400069s,105,6(a),311,Pb0.99Na0.01Se1,Pb0.99Na0.01Se1,459.5,174850,0.00057542,0.00005464,3.0069,0.1451,0.0000057192,0.0001913665
3503,10.1021/ja400069s,105,6(a),311,Pb0.99Na0.01Se1,Pb0.99Na0.01Se1,460,174540,0.00057641,0.000054769,3.0034,0.14586,0.0000057293,0.0001919192
3503,10.1021/ja400069s,105,6(a),311,Pb0.99Na0.01Se1,Pb0.99Na0.01Se1,460.5,174240,0.00057739,0.000054898,2.9999,0.14661,0.0000057392,0.0001924697
3503,10.1021/ja400069s,105,6(a),311,Pb0.99Na0.01Se1,Pb0.99Na0.01Se1,461,173940,0.00057838,0.000055027,2.9964,0.14737,0.0000057491,0.000193025
3503,10.1021/ja400069s,105,6(a),311,Pb0.99Na0.01Se1,Pb0.99Na0.01Se1,461.5,173630,0.00057937,0.000055157,2.9929,0.14812,0.0000057594,0.0001935815
3503,10.1021/ja400069s,105,6(a),311,Pb0.99Na0.01Se1,Pb0.99Na0.01Se1,462,173330,0.00058035,0.000055287,2.9895,0.14888,0.0000057693,0.0001941295
3503,10.1021/ja400069s,105,6(a),311,Pb0.99Na0.01Se1,Pb0.99Na0.01Se1,462.5,173030,0.00058134,0.000055417,2.986,0.14964,0.0000057793,0.0001946885
3503,10.1021/ja400069s,105,6(a),311,Pb0.99Na0.01Se1,Pb0.99Na0.01Se1,463,172720,0.00058232,0.000055547,2.9825,0.15039,0.0000057897,0.0001952456
3503,10.1021/ja400069s,105,6(a),311,Pb0.99Na0.01Se1,Pb0.99Na0.01Se1,463.5,172420,0.00058331,0.000055678,2.979,0.15115,0.0000057998,0.0001958073
3503,10.1021/ja400069s,105,6(a),311,Pb0.99Na0.01Se1,Pb0.99Na0.01Se1,464,172120,0.00058429,0.000055809,2.9756,0.1519,0.0000058099,0.0001963604
3503,10.1021/ja400069s,105,6(a),311,Pb0.99Na0.01Se1,Pb0.99Na0.01Se1,464.5,171820,0.00058528,0.00005594,2.9721,0.15266,0.00000582,0.0001969247
3503,10.1021/ja400069s,105,6(a),311,Pb0.99Na0.01Se1,Pb0.99Na0.01Se1,465,171510,0.00058626,0.000056072,2.9687,0.15341,0.0000058306,0.0001974804
3503,10.1021/ja400069s,105,6(a),311,Pb0.99Na0.01Se1,Pb0.99Na0.01Se1,465.5,171210,0.00058725,0.000056203,2.9652,0.15417,0.0000058408,0.0001980473
3503,10.1021/ja400069s,105,6(a),311,Pb0.99Na0.01Se1,Pb0.99Na0.01Se1,466,170910,0.00058824,0.000056335,2.9618,0.15492,0.000005851,0.000198609
3503,10.1021/ja400069s,105,6(a),311,Pb0.99Na0.01Se1,Pb0.99Na0.01Se1,466.5,170610,0.00058922,0.000056468,2.9583,0.15568,0.0000058613,0.0001991752
3503,10.1021/ja400069s,105,6(a),311,Pb0.99Na0.01Se1,Pb0.99Na0.01Se1,467,170310,0.00059021,0.0000566,2.9549,0.15643,0.0000058716,0.0001997394
3503,10.1021/ja400069s,105,6(a),311,Pb0.99Na0.01Se1,Pb0.99Na0.01Se1,467.5,170010,0.00059119,0.000056733,2.9514,0.15719,0.000005882,0.0002003083
3503,10.1021/ja400069s,105,6(a),311,Pb0.99Na0.01Se1,Pb0.99Na0.01Se1,468,169710,0.00059218,0.000056866,2.948,0.15794,0.0000058924,0.0002008752
3503,10.1021/ja400069s,105,6(a),311,Pb0.99Na0.01Se1,Pb0.99Na0.01Se1,468.5,169410,0.00059316,0.000056999,2.9446,0.1587,0.0000059028,0.0002014399
3503,10.1021/ja400069s,105,6(a),311,Pb0.99Na0.01Se1,Pb0.99Na0.01Se1,469,169120,0.00059415,0.000057133,2.9411,0.15946,0.000005913,0.0002020163
3503,10.1021/ja400069s,105,6(a),311,Pb0.99Na0.01Se1,Pb0.99Na0.01Se1,469.5,168820,0.00059514,0.000057266,2.9377,0.16021,0.0000059235,0.0002025871
3503,10.1021/ja400069s,105,6(a),311,Pb0.99Na0.01Se1,Pb0.99Na0.01Se1,470,168520,0.00059612,0.0000574,2.9343,0.16097,0.000005934,0.0002031558
3503,10.1021/ja400069s,105,6(a),311,Pb0.99Na0.01Se1,Pb0.99Na0.01Se1,470.5,168220,0.00059711,0.000057535,2.9309,0.16172,0.0000059446,0.0002037292
3503,10.1021/ja400069s,105,6(a),311,Pb0.99Na0.01Se1,Pb0.99Na0.01Se1,471,167920,0.00059809,0.000057669,2.9274,0.16248,0.0000059552,0.0002043076
3503,10.1021/ja400069s,105,6(a),311,Pb0.99Na0.01Se1,Pb0.99Na0.01Se1,471.5,167630,0.00059908,0.000057804,2.924,0.16323,0.0000059655,0.0002048837
3503,10.1021/ja400069s,105,6(a),311,Pb0.99Na0.01Se1,Pb0.99Na0.01Se1,472,167330,0.00060006,0.000057939,2.9206,0.16399,0.0000059762,0.0002054578
3503,10.1021/ja400069s,105,6(a),311,Pb0.99Na0.01Se1,Pb0.99Na0.01Se1,472.5,167030,0.00060105,0.000058075,2.9172,0.16474,0.0000059869,0.0002060366
3503,10.1021/ja400069s,105,6(a),311,Pb0.99Na0.01Se1,Pb0.99Na0.01Se1,473,166740,0.00060203,0.00005821,2.9138,0.1655,0.0000059974,0.0002066134
3503,10.1021/ja400069s,105,6(a),311,Pb0.99Na0.01Se1,Pb0.99Na0.01Se1,473.5,166440,0.00060302,0.000058346,2.9104,0.16625,0.0000060082,0.0002071949
3503,10.1021/ja400069s,105,6(a),311,Pb0.99Na0.01Se1,Pb0.99Na0.01Se1,474,166150,0.00060401,0.000058482,2.907,0.16701,0.0000060187,0.0002077778
3503,10.1021/ja400069s,105,6(a),311,Pb0.99Na0.01Se1,Pb0.99Na0.01Se1,474.5,165850,0.00060499,0.000058618,2.9036,0.16777,0.0000060295,0.0002083586
3503,10.1021/ja400069s,105,6(a),311,Pb0.99Na0.01Se1,Pb0.99Na0.01Se1,475,165560,0.00060598,0.000058755,2.9002,0.16852,0.0000060401,0.0002089442
3503,10.1021/ja400069s,105,6(a),311,Pb0.99Na0.01Se1,Pb0.99Na0.01Se1,475.5,165260,0.00060696,0.000058892,2.8968,0.16928,0.0000060511,0.0002095278
3503,10.1021/ja400069s,105,6(a),311,Pb0.99Na0.01Se1,Pb0.99Na0.01Se1,476,164970,0.00060795,0.000059029,2.8935,0.17003,0.0000060617,0.0002101089
3503,10.1021/ja400069s,105,6(a),311,Pb0.99Na0.01Se1,Pb0.99Na0.01Se1,476.5,164670,0.00060893,0.000059166,2.8901,0.17079,0.0000060728,0.0002106951
3503,10.1021/ja400069s,105,6(a),311,Pb0.99Na0.01Se1,Pb0.99Na0.01Se1,477,164380,0.00060992,0.000059304,2.8867,0.17154,0.0000060835,0.0002112862
3503,10.1021/ja400069s,105,6(a),311,Pb0.99Na0.01Se1,Pb0.99Na0.01Se1,477.5,164090,0.00061091,0.000059441,2.8833,0.1723,0.0000060942,0.0002118788
3503,10.1021/ja400069s,105,6(a),311,Pb0.99Na0.01Se1,Pb0.99Na0.01Se1,478,163790,0.00061189,0.000059579,2.88,0.17305,0.0000061054,0.0002124618
3503,10.1021/ja400069s,105,6(a),311,Pb0.99Na0.01Se1,Pb0.99Na0.01Se1,478.5,163500,0.00061288,0.000059718,2.8766,0.17381,0.0000061162,0.0002130571
3503,10.1021/ja400069s,105,6(a),311,Pb0.99Na0.01Se1,Pb0.99Na0.01Se1,479,163210,0.00061386,0.000059856,2.8732,0.17456,0.0000061271,0.0002136503
3503,10.1021/ja400069s,105,6(a),311,Pb0.99Na0.01Se1,Pb0.99Na0.01Se1,479.5,162920,0.00061485,0.000059995,2.8699,0.17532,0.000006138,0.0002142409
3503,10.1021/ja400069s,105,6(a),311,Pb0.99Na0.01Se1,Pb0.99Na0.01Se1,480,162620,0.00061583,0.000060134,2.8665,0.17607,0.0000061493,0.0002148369
3503,10.1021/ja400069s,105,6(a),311,Pb0.99Na0.01Se1,Pb0.99Na0.01Se1,480.5,162330,0.00061682,0.000060273,2.8632,0.17683,0.0000061603,0.0002154303
3503,10.1021/ja400069s,105,6(a),311,Pb0.99Na0.01Se1,Pb0.99Na0.01Se1,481,162040,0.00061781,0.000060413,2.8598,0.17759,0.0000061713,0.0002160326
3503,10.1021/ja400069s,105,6(a),311,Pb0.99Na0.01Se1,Pb0.99Na0.01Se1,481.5,161750,0.00061879,0.000060553,2.8565,0.17834,0.0000061824,0.0002166252
3503,10.1021/ja400069s,105,6(a),311,Pb0.99Na0.01Se1,Pb0.99Na0.01Se1,482,161460,0.00061978,0.000060693,2.8531,0.1791,0.0000061935,0.0002172304
3503,10.1021/ja400069s,105,6(a),311,Pb0.99Na0.01Se1,Pb0.99Na0.01Se1,482.5,161170,0.00062076,0.000060833,2.8498,0.17985,0.0000062046,0.0002178258
3503,10.1021/ja400069s,105,6(a),311,Pb0.99Na0.01Se1,Pb0.99Na0.01Se1,483,160880,0.00062175,0.000060974,2.8464,0.18061,0.0000062158,0.0002184338
3503,10.1021/ja400069s,105,6(a),311,Pb0.99Na0.01Se1,Pb0.99Na0.01Se1,483.5,160590,0.00062273,0.000061114,2.8431,0.18136,0.000006227,0.000219032
3503,10.1021/ja400069s,105,6(a),311,Pb0.99Na0.01Se1,Pb0.99Na0.01Se1,484,160300,0.00062372,0.000061255,2.8398,0.18212,0.0000062383,0.0002196352
3503,10.1021/ja400069s,105,6(a),311,Pb0.99Na0.01Se1,Pb0.99Na0.01Se1,484.5,160010,0.0006247,0.000061396,2.8365,0.18287,0.0000062496,0.0002202362
3503,10.1021/ja400069s,105,6(a),311,Pb0.99Na0.01Se1,Pb0.99Na0.01Se1,485,159730,0.00062569,0.000061538,2.8331,0.18363,0.0000062606,0.00022085
3503,10.1021/ja400069s,105,6(a),311,Pb0.99Na0.01Se1,Pb0.99Na0.01Se1,485.5,159440,0.00062668,0.00006168,2.8298,0.18438,0.000006272,0.0002214573
3503,10.1021/ja400069s,105,6(a),311,Pb0.99Na0.01Se1,Pb0.99Na0.01Se1,486,159150,0.00062766,0.000061822,2.8265,0.18514,0.0000062834,0.0002220626
3503,10.1021/ja400069s,105,6(a),311,Pb0.99Na0.01Se1,Pb0.99Na0.01Se1,486.5,158860,0.00062865,0.000061964,2.8232,0.1859,0.0000062949,0.0002226729
3503,10.1021/ja400069s,105,6(a),311,Pb0.99Na0.01Se1,Pb0.99Na0.01Se1,487,158570,0.00062963,0.000062106,2.8199,0.18665,0.0000063064,0.000223281
3503,10.1021/ja400069s,105,6(a),311,Pb0.99Na0.01Se1,Pb0.99Na0.01Se1,487.5,158290,0.00063062,0.000062249,2.8166,0.18741,0.0000063175,0.0002238941
3503,10.1021/ja400069s,105,6(a),311,Pb0.99Na0.01Se1,Pb0.99Na0.01Se1,488,158000,0.0006316,0.000062392,2.8133,0.18816,0.0000063291,0.000224505
3503,10.1021/ja400069s,105,6(a),311,Pb0.99Na0.01Se1,Pb0.99Na0.01Se1,488.5,157710,0.00063259,0.000062535,2.81,0.18892,0.0000063408,0.000225121
3503,10.1021/ja400069s,105,6(a),311,Pb0.99Na0.01Se1,Pb0.99Na0.01Se1,489,157430,0.00063358,0.000062678,2.8067,0.18967,0.000006352,0.0002257384
3503,10.1021/ja400069s,105,6(a),311,Pb0.99Na0.01Se1,Pb0.99Na0.01Se1,489.5,157140,0.00063456,0.000062822,2.8034,0.19043,0.0000063638,0.0002263537
3503,10.1021/ja400069s,105,6(a),311,Pb0.99Na0.01Se1,Pb0.99Na0.01Se1,490,156860,0.00063555,0.000062966,2.8001,0.19118,0.0000063751,0.000226974
3503,10.1021/ja400069s,105,6(a),311,Pb0.99Na0.01Se1,Pb0.99Na0.01Se1,490.5,156570,0.00063653,0.00006311,2.7968,0.19194,0.0000063869,0.0002275922
3503,10.1021/ja400069s,105,6(a),311,Pb0.99Na0.01Se1,Pb0.99Na0.01Se1,491,156290,0.00063752,0.000063254,2.7935,0.19269,0.0000063984,0.0002282155
3503,10.1021/ja400069s,105,6(a),311,Pb0.99Na0.01Se1,Pb0.99Na0.01Se1,491.5,156000,0.0006385,0.000063399,2.7903,0.19345,0.0000064103,0.0002288284
3503,10.1021/ja400069s,105,6(a),311,Pb0.99Na0.01Se1,Pb0.99Na0.01Se1,492,155720,0.00063949,0.000063543,2.787,0.1942,0.0000064218,0.0002294546
3503,10.1021/ja400069s,105,6(a),311,Pb0.99Na0.01Se1,Pb0.99Na0.01Se1,492.5,155430,0.00064047,0.000063689,2.7837,0.19496,0.0000064338,0.0002300787
3503,10.1021/ja400069s,105,6(a),311,Pb0.99Na0.01Se1,Pb0.99Na0.01Se1,493,155150,0.00064146,0.000063834,2.7805,0.19572,0.0000064454,0.0002306995
3503,10.1021/ja400069s,105,6(a),311,Pb0.99Na0.01Se1,Pb0.99Na0.01Se1,493.5,154870,0.00064245,0.000063979,2.7772,0.19647,0.000006457,0.0002313301
3503,10.1021/ja400069s,105,6(a),311,Pb0.99Na0.01Se1,Pb0.99Na0.01Se1,494,154580,0.00064343,0.000064125,2.7739,0.19723,0.0000064691,0.0002319586
3503,10.1021/ja400069s,105,6(a),311,Pb0.99Na0.01Se1,Pb0.99Na0.01Se1,494.5,154300,0.00064442,0.000064271,2.7707,0.19798,0.0000064809,0.0002325838
3503,10.1021/ja400069s,105,6(a),311,Pb0.99Na0.01Se1,Pb0.99Na0.01Se1,495,154020,0.0006454,0.000064417,2.7674,0.19874,0.0000064927,0.0002332153
3503,10.1021/ja400069s,105,6(a),311,Pb0.99Na0.01Se1,Pb0.99Na0.01Se1,495.5,153740,0.00064639,0.000064563,2.7642,0.19949,0.0000065045,0.0002338434
3503,10.1021/ja400069s,105,6(a),311,Pb0.99Na0.01Se1,Pb0.99Na0.01Se1,496,153450,0.00064737,0.00006471,2.7609,0.20025,0.0000065168,0.0002344779
3503,10.1021/ja400069s,105,6(a),311,Pb0.99Na0.01Se1,Pb0.99Na0.01Se1,496.5,153170,0.00064836,0.000064857,2.7577,0.201,0.0000065287,0.000235109
3503,10.1021/ja400069s,105,6(a),311,Pb0.99Na0.01Se1,Pb0.99Na0.01Se1,497,152890,0.00064935,0.000065004,2.7544,0.20176,0.0000065407,0.0002357501
3503,10.1021/ja400069s,105,6(a),311,Pb0.99Na0.01Se1,Pb0.99Na0.01Se1,497.5,152610,0.00065033,0.000065151,2.7512,0.20251,0.0000065527,0.0002363805
3503,10.1021/ja400069s,105,6(a),311,Pb0.99Na0.01Se1,Pb0.99Na0.01Se1,498,152330,0.00065132,0.000065299,2.748,0.20327,0.0000065647,0.000237016
3503,10.1021/ja400069s,105,6(a),311,Pb0.99Na0.01Se1,Pb0.99Na0.01Se1,498.5,152050,0.0006523,0.000065447,2.7447,0.20403,0.0000065768,0.000237658
3503,10.1021/ja400069s,105,6(a),311,Pb0.99Na0.01Se1,Pb0.99Na0.01Se1,499,151770,0.00065329,0.000065595,2.7415,0.20478,0.0000065889,0.0002382966
3503,10.1021/ja400069s,105,6(a),311,Pb0.99Na0.01Se1,Pb0.99Na0.01Se1,499.5,151490,0.00065427,0.000065743,2.7383,0.20554,0.0000066011,0.0002389329
3503,10.1021/ja400069s,105,6(a),311,Pb0.99Na0.01Se1,Pb0.99Na0.01Se1,500,151210,0.00065526,0.000065891,2.7351,0.20629,0.0000066133,0.0002395744
3503,10.1021/ja400069s,105,6(a),311,Pb0.99Na0.01Se1,Pb0.99Na0.01Se1,500.5,150930,0.00065624,0.00006604,2.7319,0.20705,0.0000066256,0.0002402138
3503,10.1021/ja400069s,105,6(a),311,Pb0.99Na0.01Se1,Pb0.99Na0.01Se1,501,150650,0.00065723,0.000066189,2.7286,0.2078,0.0000066379,0.0002408671
3503,10.1021/ja400069s,105,6(a),311,Pb0.99Na0.01Se1,Pb0.99Na0.01Se1,501.5,150370,0.00065822,0.000066338,2.7254,0.20856,0.0000066503,0.0002415132
3503,10.1021/ja400069s,105,6(a),311,Pb0.99Na0.01Se1,Pb0.99Na0.01Se1,502,150100,0.0006592,0.000066488,2.7222,0.20931,0.0000066622,0.0002421571
3503,10.1021/ja400069s,105,6(a),311,Pb0.99Na0.01Se1,Pb0.99Na0.01Se1,502.5,149820,0.00066019,0.000066637,2.719,0.21007,0.0000066747,0.0002428062
3503,10.1021/ja400069s,105,6(a),311,Pb0.99Na0.01Se1,Pb0.99Na0.01Se1,503,149540,0.00066117,0.000066787,2.7158,0.21082,0.0000066872,0.0002434531
3503,10.1021/ja400069s,105,6(a),311,Pb0.99Na0.01Se1,Pb0.99Na0.01Se1,503.5,149260,0.00066216,0.000066937,2.7126,0.21158,0.0000066997,0.0002441053
3503,10.1021/ja400069s,105,6(a),311,Pb0.99Na0.01Se1,Pb0.99Na0.01Se1,504,148990,0.00066314,0.000067087,2.7095,0.21234,0.0000067119,0.0002447463