sid,DOI,figureid,fignum,sampleid,samplename,composition,Temperature,Carrier concentration,Electrical conductivity,Seebeck coefficient,Thermal conductivity,ZT,content,Electrical resistivity,Power factor,Figure of merit Z
27922,10.1002/aenm.201701313,25328,3a,31565,(Nb1−xTax)0.8Ti0.2FeSb_ x=0.36,(Nb0.64Ta0.36)0.8Ti0.2FeSb,450,,353620,0.00010781,4.634,0.40498,,0.0000028279,0.0041101239,0.0008869495
27922,10.1002/aenm.201701313,25328,3a,31565,(Nb1−xTax)0.8Ti0.2FeSb_ x=0.36,(Nb0.64Ta0.36)0.8Ti0.2FeSb,500,,331820,0.00011578,4.518,0.48533,,0.0000030137,0.0044480499,0.0009845175
27922,10.1002/aenm.201701313,25328,3a,31565,(Nb1−xTax)0.8Ti0.2FeSb_ x=0.36,(Nb0.64Ta0.36)0.8Ti0.2FeSb,550,,310020,0.00012375,4.402,0.56568,,0.0000032256,0.0047476657,0.0010785247
27922,10.1002/aenm.201701313,25328,3a,31565,(Nb1−xTax)0.8Ti0.2FeSb_ x=0.36,(Nb0.64Ta0.36)0.8Ti0.2FeSb,600,,288220,0.00013172,4.286,0.64603,,0.0000034696,0.0050006627,0.0011667435
27922,10.1002/aenm.201701313,25328,3a,31565,(Nb1−xTax)0.8Ti0.2FeSb_ x=0.36,(Nb0.64Ta0.36)0.8Ti0.2FeSb,650,,266420,0.00013969,4.17,0.72638,,0.0000037535,0.0051987323,0.0012466984
27922,10.1002/aenm.201701313,25328,3a,31565,(Nb1−xTax)0.8Ti0.2FeSb_ x=0.36,(Nb0.64Ta0.36)0.8Ti0.2FeSb,700,,244620,0.00014767,4.0541,0.80673,,0.000004088,0.0053342886,0.0013157763
27922,10.1002/aenm.201701313,25328,3a,31565,(Nb1−xTax)0.8Ti0.2FeSb_ x=0.36,(Nb0.64Ta0.36)0.8Ti0.2FeSb,750,,222820,0.00015564,3.9381,0.88707,,0.0000044879,0.0053975493,0.0013705973
27922,10.1002/aenm.201701313,25328,3a,31565,(Nb1−xTax)0.8Ti0.2FeSb_ x=0.36,(Nb0.64Ta0.36)0.8Ti0.2FeSb,800,,201020,0.00016361,3.8221,0.96742,,0.0000049746,0.00538095,0.0014078517
27922,10.1002/aenm.201701313,25328,3a,31565,(Nb1−xTax)0.8Ti0.2FeSb_ x=0.36,(Nb0.64Ta0.36)0.8Ti0.2FeSb,850,,179220,0.00017158,3.7061,1.0478,,0.0000055797,0.0052761824,0.0014236481
27922,10.1002/aenm.201701313,25328,3a,31565,(Nb1−xTax)0.8Ti0.2FeSb_ x=0.36,(Nb0.64Ta0.36)0.8Ti0.2FeSb,900,,157420,0.00017955,3.5901,1.1281,,0.0000063524,0.0050749378,0.0014135923
27922,10.1002/aenm.201701313,25328,3a,31565,(Nb1−xTax)0.8Ti0.2FeSb_ x=0.36,(Nb0.64Ta0.36)0.8Ti0.2FeSb,950,,135620,0.00018752,3.4742,1.2085,,0.0000073735,0.0047689078,0.0013726636
27922,10.1002/aenm.201701313,25328,3a,31565,(Nb1−xTax)0.8Ti0.2FeSb_ x=0.36,(Nb0.64Ta0.36)0.8Ti0.2FeSb,1000,,113820,0.0001955,3.3582,1.2888,,0.0000087858,0.0043502289,0.0012954049
27922,10.1002/aenm.201701313,25328,3a,31565,(Nb1−xTax)0.8Ti0.2FeSb_ x=0.36,(Nb0.64Ta0.36)0.8Ti0.2FeSb,1050,,92024,0.00020347,3.2422,1.3692,,0.0000108667,0.0038097974,0.0011750655
27922,10.1002/aenm.201701313,25328,3a,31565,(Nb1−xTax)0.8Ti0.2FeSb_ x=0.36,(Nb0.64Ta0.36)0.8Ti0.2FeSb,1100,,70225,0.00021144,3.1262,1.4495,,0.0000142399,0.0031395402,0.0010042672
27922,10.1002/aenm.201701313,25328,3a,31565,(Nb1−xTax)0.8Ti0.2FeSb_ x=0.36,(Nb0.64Ta0.36)0.8Ti0.2FeSb,1150,,48425,,3.0103,1.5299,,0.0000206505,,
27922,10.1002/aenm.201701313,25328,3a,31566,(Nb1−xTax)0.8Ti0.2FeSb_ x=0.40,(Nb0.60Ta0.40)0.8Ti0.2FeSb,300,,,,4.6527,,,,,
27922,10.1002/aenm.201701313,25328,3a,31566,(Nb1−xTax)0.8Ti0.2FeSb_ x=0.40,(Nb0.60Ta0.40)0.8Ti0.2FeSb,350,,398050,0.000093778,4.5496,0.23371,,0.0000025122,0.0035005764,0.0007694251
27922,10.1002/aenm.201701313,25328,3a,31566,(Nb1−xTax)0.8Ti0.2FeSb_ x=0.40,(Nb0.60Ta0.40)0.8Ti0.2FeSb,400,,376360,0.00010137,4.4466,0.31535,,0.000002657,0.003867429,0.0008697497
27922,10.1002/aenm.201701313,25328,3a,31566,(Nb1−xTax)0.8Ti0.2FeSb_ x=0.40,(Nb0.60Ta0.40)0.8Ti0.2FeSb,450,,354680,0.00010897,4.3435,0.39699,,0.0000028194,0.0042116338,0.0009696406
27922,10.1002/aenm.201701313,25328,3a,31566,(Nb1−xTax)0.8Ti0.2FeSb_ x=0.40,(Nb0.60Ta0.40)0.8Ti0.2FeSb,500,,333000,0.00011656,4.2404,0.47863,,0.000003003,0.0045242158,0.0010669314
27922,10.1002/aenm.201701313,25328,3a,31566,(Nb1−xTax)0.8Ti0.2FeSb_ x=0.40,(Nb0.60Ta0.40)0.8Ti0.2FeSb,550,,311320,0.00012416,4.1374,0.56027,,0.0000032121,0.0047992175,0.0011599597
27922,10.1002/aenm.201701313,25328,3a,31566,(Nb1−xTax)0.8Ti0.2FeSb_ x=0.40,(Nb0.60Ta0.40)0.8Ti0.2FeSb,600,,289640,0.00013175,4.0343,0.64191,,0.0000034526,0.0050275892,0.001246211
27922,10.1002/aenm.201701313,25328,3a,31566,(Nb1−xTax)0.8Ti0.2FeSb_ x=0.40,(Nb0.60Ta0.40)0.8Ti0.2FeSb,650,,267950,0.00013935,3.9312,0.72355,,0.000003732,0.0052031663,0.0013235568
27922,10.1002/aenm.201701313,25328,3a,31566,(Nb1−xTax)0.8Ti0.2FeSb_ x=0.40,(Nb0.60Ta0.40)0.8Ti0.2FeSb,700,,246270,0.00014694,3.8282,0.80519,,0.0000040606,0.0053173051,0.0013889831
27922,10.1002/aenm.201701313,25328,3a,31566,(Nb1−xTax)0.8Ti0.2FeSb_ x=0.40,(Nb0.60Ta0.40)0.8Ti0.2FeSb,750,,224590,0.00015454,3.7251,0.88683,,0.0000044526,0.0053637957,0.0014399065
27922,10.1002/aenm.201701313,25328,3a,31566,(Nb1−xTax)0.8Ti0.2FeSb_ x=0.40,(Nb0.60Ta0.40)0.8Ti0.2FeSb,800,,202910,0.00016213,3.622,0.96847,,0.0000049283,0.00533372,0.0014725897
27922,10.1002/aenm.201701313,25328,3a,31566,(Nb1−xTax)0.8Ti0.2FeSb_ x=0.40,(Nb0.60Ta0.40)0.8Ti0.2FeSb,850,,181230,0.00016973,3.5189,1.0501,,0.0000055179,0.0052209233,0.0014836805
27922,10.1002/aenm.201701313,25328,3a,31566,(Nb1−xTax)0.8Ti0.2FeSb_ x=0.40,(Nb0.60Ta0.40)0.8Ti0.2FeSb,900,,159550,0.00017732,3.4159,1.1317,,0.0000062676,0.0050166321,0.0014686121
27922,10.1002/aenm.201701313,25328,3a,31566,(Nb1−xTax)0.8Ti0.2FeSb_ x=0.40,(Nb0.60Ta0.40)0.8Ti0.2FeSb,950,,137860,0.00018492,3.3128,1.2134,,0.0000072537,0.0047141787,0.0014230194
27922,10.1002/aenm.201701313,25328,3a,31566,(Nb1−xTax)0.8Ti0.2FeSb_ x=0.40,(Nb0.60Ta0.40)0.8Ti0.2FeSb,1000,,116180,0.00019251,3.2097,1.295,,0.0000086073,0.0043056424,0.001341447
27922,10.1002/aenm.201701313,25328,3a,31566,(Nb1−xTax)0.8Ti0.2FeSb_ x=0.40,(Nb0.60Ta0.40)0.8Ti0.2FeSb,1050,,94499,0.00020011,3.1067,1.3767,,0.0000105821,0.0037841191,0.001218051
27922,10.1002/aenm.201701313,25328,3a,31566,(Nb1−xTax)0.8Ti0.2FeSb_ x=0.40,(Nb0.60Ta0.40)0.8Ti0.2FeSb,1100,,72817,0.0002077,3.0036,1.4583,,0.0000137331,0.0031412737,0.0010458362
27922,10.1002/aenm.201701313,25328,3a,31566,(Nb1−xTax)0.8Ti0.2FeSb_ x=0.40,(Nb0.60Ta0.40)0.8Ti0.2FeSb,1150,,51135,0.0002153,2.9005,1.5399,,0.0000195561,0.0023703164,0.0008172096
27922,10.1002/aenm.201701313,25328,3a,31568,Nb0.8Hf0.14FeSb,Nb0.8Hf0.14FeSb,300,,,,6.6647,,,,,
27922,10.1002/aenm.201701313,25328,3a,31568,Nb0.8Hf0.14FeSb,Nb0.8Hf0.14FeSb,350,,,,6.5011,,,,,
27922,10.1002/aenm.201701313,25328,3a,31568,Nb0.8Hf0.14FeSb,Nb0.8Hf0.14FeSb,400,,,,6.3374,,,,,
27922,10.1002/aenm.201701313,25328,3a,31568,Nb0.8Hf0.14FeSb,Nb0.8Hf0.14FeSb,450,,,,6.1738,,,,,
27922,10.1002/aenm.201701313,25328,3a,31568,Nb0.8Hf0.14FeSb,Nb0.8Hf0.14FeSb,500,,,,6.0101,,,,,
27922,10.1002/aenm.201701313,25328,3a,31568,Nb0.8Hf0.14FeSb,Nb0.8Hf0.14FeSb,550,,,,5.8465,,,,,
27922,10.1002/aenm.201701313,25328,3a,31568,Nb0.8Hf0.14FeSb,Nb0.8Hf0.14FeSb,600,,,,5.6828,,,,,
27922,10.1002/aenm.201701313,25328,3a,31568,Nb0.8Hf0.14FeSb,Nb0.8Hf0.14FeSb,650,,,,5.5192,,,,,
27922,10.1002/aenm.201701313,25328,3a,31568,Nb0.8Hf0.14FeSb,Nb0.8Hf0.14FeSb,700,,,,5.3555,,,,,
27922,10.1002/aenm.201701313,25328,3a,31568,Nb0.8Hf0.14FeSb,Nb0.8Hf0.14FeSb,750,,,,5.1918,,,,,
27922,10.1002/aenm.201701313,25328,3a,31568,Nb0.8Hf0.14FeSb,Nb0.8Hf0.14FeSb,800,,,,5.0282,,,,,
27922,10.1002/aenm.201701313,25328,3a,31568,Nb0.8Hf0.14FeSb,Nb0.8Hf0.14FeSb,850,,,,4.8645,,,,,
27922,10.1002/aenm.201701313,25328,3a,31568,Nb0.8Hf0.14FeSb,Nb0.8Hf0.14FeSb,900,,,,4.7009,,,,,
27922,10.1002/aenm.201701313,25328,3a,31568,Nb0.8Hf0.14FeSb,Nb0.8Hf0.14FeSb,950,,,,4.5372,,,,,
27922,10.1002/aenm.201701313,25328,3a,31568,Nb0.8Hf0.14FeSb,Nb0.8Hf0.14FeSb,1000,,,,4.3736,,,,,
27922,10.1002/aenm.201701313,25328,3a,31568,Nb0.8Hf0.14FeSb,Nb0.8Hf0.14FeSb,1050,,,,4.2099,,,,,
27922,10.1002/aenm.201701313,25328,3a,31568,Nb0.8Hf0.14FeSb,Nb0.8Hf0.14FeSb,1100,,,,4.0463,,,,,
27922,10.1002/aenm.201701313,25328,3a,31568,Nb0.8Hf0.14FeSb,Nb0.8Hf0.14FeSb,1150,,,,3.8826,,,,,
27922,10.1002/aenm.201701313,25328,3a,31568,Nb0.8Hf0.14FeSb,Nb0.8Hf0.14FeSb,1200,,,,3.719,,,,,
27922,10.1002/aenm.201701313,25328,3a,31567,Nb0.8Ti0.2FeSb,Nb0.8Ti0.2FeSb,350,,,,6.788,0.11148,,,,
27922,10.1002/aenm.201701313,25328,3a,31567,Nb0.8Ti0.2FeSb,Nb0.8Ti0.2FeSb,400,,,,6.604,0.1776,,,,
27922,10.1002/aenm.201701313,25328,3a,31567,Nb0.8Ti0.2FeSb,Nb0.8Ti0.2FeSb,450,,,,6.4201,0.24373,,,,
27922,10.1002/aenm.201701313,25328,3a,31567,Nb0.8Ti0.2FeSb,Nb0.8Ti0.2FeSb,500,,,,6.2362,0.30985,,,,
27922,10.1002/aenm.201701313,25328,3a,31567,Nb0.8Ti0.2FeSb,Nb0.8Ti0.2FeSb,550,,,,6.0523,0.37598,,,,
27922,10.1002/aenm.201701313,25328,3a,31567,Nb0.8Ti0.2FeSb,Nb0.8Ti0.2FeSb,600,,,,5.8684,0.44211,,,,
27922,10.1002/aenm.201701313,25328,3a,31567,Nb0.8Ti0.2FeSb,Nb0.8Ti0.2FeSb,650,,,,5.6844,0.50823,,,,
27922,10.1002/aenm.201701313,25328,3a,31567,Nb0.8Ti0.2FeSb,Nb0.8Ti0.2FeSb,700,,,,5.5005,0.57436,,,,
27922,10.1002/aenm.201701313,25328,3a,31567,Nb0.8Ti0.2FeSb,Nb0.8Ti0.2FeSb,750,,,,5.3166,0.64049,,,,
27922,10.1002/aenm.201701313,25328,3a,31567,Nb0.8Ti0.2FeSb,Nb0.8Ti0.2FeSb,800,,,,5.1327,0.70661,,,,
27922,10.1002/aenm.201701313,25328,3a,31567,Nb0.8Ti0.2FeSb,Nb0.8Ti0.2FeSb,850,,,,4.9488,0.77274,,,,
27922,10.1002/aenm.201701313,25328,3a,31567,Nb0.8Ti0.2FeSb,Nb0.8Ti0.2FeSb,900,,,,4.7648,0.83886,,,,
27922,10.1002/aenm.201701313,25328,3a,31567,Nb0.8Ti0.2FeSb,Nb0.8Ti0.2FeSb,950,,,,4.5809,0.90499,,,,
27922,10.1002/aenm.201701313,25328,3a,31567,Nb0.8Ti0.2FeSb,Nb0.8Ti0.2FeSb,1000,,,,4.397,0.97112,,,,
27922,10.1002/aenm.201701313,25328,3a,31567,Nb0.8Ti0.2FeSb,Nb0.8Ti0.2FeSb,1050,,,,4.2131,1.0372,,,,
27922,10.1002/aenm.201701313,25328,3a,31567,Nb0.8Ti0.2FeSb,Nb0.8Ti0.2FeSb,1100,,,,4.0292,,,,,
27922,10.1002/aenm.201701313,25335,6a,31567,Nb0.8Ti0.2FeSb,Nb0.8Ti0.2FeSb,300,,,,,0.045349,,,,
27922,10.1002/aenm.201701313,25335,6a,31571,(V0.6Nb0.4)0.8Ti0.2FeSb,(V0.6Nb0.4)0.8Ti0.2FeSb,300,,,,,0.23113,,,,
27922,10.1002/aenm.201701313,25335,6a,31571,(V0.6Nb0.4)0.8Ti0.2FeSb,(V0.6Nb0.4)0.8Ti0.2FeSb,350,,,,,0.28371,,,,
27922,10.1002/aenm.201701313,25335,6a,31571,(V0.6Nb0.4)0.8Ti0.2FeSb,(V0.6Nb0.4)0.8Ti0.2FeSb,400,,,,,0.33628,,,,
27922,10.1002/aenm.201701313,25335,6a,31571,(V0.6Nb0.4)0.8Ti0.2FeSb,(V0.6Nb0.4)0.8Ti0.2FeSb,450,,,,,0.38885,,,,
27922,10.1002/aenm.201701313,25335,6a,31571,(V0.6Nb0.4)0.8Ti0.2FeSb,(V0.6Nb0.4)0.8Ti0.2FeSb,500,,,,,0.44143,,,,
27922,10.1002/aenm.201701313,25335,6a,31571,(V0.6Nb0.4)0.8Ti0.2FeSb,(V0.6Nb0.4)0.8Ti0.2FeSb,550,,,,,0.494,,,,
27922,10.1002/aenm.201701313,25335,6a,31571,(V0.6Nb0.4)0.8Ti0.2FeSb,(V0.6Nb0.4)0.8Ti0.2FeSb,600,,,,,0.54657,,,,
27922,10.1002/aenm.201701313,25335,6a,31571,(V0.6Nb0.4)0.8Ti0.2FeSb,(V0.6Nb0.4)0.8Ti0.2FeSb,650,,,,,0.59915,,,,
27922,10.1002/aenm.201701313,25335,6a,31571,(V0.6Nb0.4)0.8Ti0.2FeSb,(V0.6Nb0.4)0.8Ti0.2FeSb,700,,,,,0.65172,,,,
27922,10.1002/aenm.201701313,25335,6a,31571,(V0.6Nb0.4)0.8Ti0.2FeSb,(V0.6Nb0.4)0.8Ti0.2FeSb,750,,,,,0.7043,,,,
27922,10.1002/aenm.201701313,25335,6a,31571,(V0.6Nb0.4)0.8Ti0.2FeSb,(V0.6Nb0.4)0.8Ti0.2FeSb,800,,,,,0.75687,,,,
27922,10.1002/aenm.201701313,25335,6a,31571,(V0.6Nb0.4)0.8Ti0.2FeSb,(V0.6Nb0.4)0.8Ti0.2FeSb,850,,,,,0.80944,,,,
27922,10.1002/aenm.201701313,25335,6a,31571,(V0.6Nb0.4)0.8Ti0.2FeSb,(V0.6Nb0.4)0.8Ti0.2FeSb,900,,,,,0.86202,,,,
27922,10.1002/aenm.201701313,25335,6a,31572,Nb0.86Hf0.14FeSb,Nb0.86Hf0.14FeSb,300,,,,,0.22418,,,,
27922,10.1002/aenm.201701313,25335,6a,31572,Nb0.86Hf0.14FeSb,Nb0.86Hf0.14FeSb,350,,,,,0.297,,,,
27922,10.1002/aenm.201701313,25335,6a,31572,Nb0.86Hf0.14FeSb,Nb0.86Hf0.14FeSb,400,,,,,0.36982,,,,
27922,10.1002/aenm.201701313,25335,6a,31572,Nb0.86Hf0.14FeSb,Nb0.86Hf0.14FeSb,450,,,,,0.44263,,,,
27922,10.1002/aenm.201701313,25335,6a,31572,Nb0.86Hf0.14FeSb,Nb0.86Hf0.14FeSb,500,,,,,0.51545,,,,
27922,10.1002/aenm.201701313,25335,6a,31572,Nb0.86Hf0.14FeSb,Nb0.86Hf0.14FeSb,550,,,,,0.58827,,,,
27922,10.1002/aenm.201701313,25335,6a,31572,Nb0.86Hf0.14FeSb,Nb0.86Hf0.14FeSb,600,,,,,0.66109,,,,
27922,10.1002/aenm.201701313,25335,6a,31572,Nb0.86Hf0.14FeSb,Nb0.86Hf0.14FeSb,650,,,,,0.7339,,,,
27922,10.1002/aenm.201701313,25335,6a,31572,Nb0.86Hf0.14FeSb,Nb0.86Hf0.14FeSb,700,,,,,0.80672,,,,
27922,10.1002/aenm.201701313,25335,6a,31572,Nb0.86Hf0.14FeSb,Nb0.86Hf0.14FeSb,750,,,,,0.87954,,,,
27922,10.1002/aenm.201701313,25335,6a,31572,Nb0.86Hf0.14FeSb,Nb0.86Hf0.14FeSb,800,,,,,0.95235,,,,
27922,10.1002/aenm.201701313,25335,6a,31572,Nb0.86Hf0.14FeSb,Nb0.86Hf0.14FeSb,850,,,,,1.0252,,,,
27922,10.1002/aenm.201701313,25335,6a,31572,Nb0.86Hf0.14FeSb,Nb0.86Hf0.14FeSb,900,,,,,1.098,,,,
27922,10.1002/aenm.201701313,25335,6a,31572,Nb0.86Hf0.14FeSb,Nb0.86Hf0.14FeSb,950,,,,,1.1708,,,,
27922,10.1002/aenm.201701313,25335,6a,31572,Nb0.86Hf0.14FeSb,Nb0.86Hf0.14FeSb,1000,,,,,1.2436,,,,
27922,10.1002/aenm.201701313,25335,6a,31572,Nb0.86Hf0.14FeSb,Nb0.86Hf0.14FeSb,1050,,,,,1.3164,,,,
27922,10.1002/aenm.201701313,25335,6a,31572,Nb0.86Hf0.14FeSb,Nb0.86Hf0.14FeSb,1100,,,,,1.3893,,,,
27922,10.1002/aenm.201701313,25335,6a,31572,Nb0.86Hf0.14FeSb,Nb0.86Hf0.14FeSb,1150,,,,,1.4621,,,,
27922,10.1002/aenm.201701313,25335,6a,31572,Nb0.86Hf0.14FeSb,Nb0.86Hf0.14FeSb,1200,,,,,1.5349,,,,
27922,10.1002/aenm.201701313,25336,6b,31573,Nb0.64Ta0.36)0.8Ti0.2FeSb NWU,Nb0.64Ta0.36)0.8Ti0.2FeSb,400,,300640,0.00010971,4.8878,0.29613,,0.0000033262,0.0036185885,0.0007403307
27922,10.1002/aenm.201701313,25336,6b,31573,Nb0.64Ta0.36)0.8Ti0.2FeSb NWU,Nb0.64Ta0.36)0.8Ti0.2FeSb,450,,279350,0.00011772,4.7702,0.3652,,0.0000035797,0.0038712319,0.000811545
27922,10.1002/aenm.201701313,25336,6b,31573,Nb0.64Ta0.36)0.8Ti0.2FeSb NWU,Nb0.64Ta0.36)0.8Ti0.2FeSb,500,,258070,0.00012572,4.6526,0.43835,,0.0000038749,0.0040789301,0.0008766991
27922,10.1002/aenm.201701313,25336,6b,31573,Nb0.64Ta0.36)0.8Ti0.2FeSb NWU,Nb0.64Ta0.36)0.8Ti0.2FeSb,550,,236780,0.00013373,4.5351,0.51355,,0.0000042233,0.0042345055,0.0009337182
27922,10.1002/aenm.201701313,25336,6b,31573,Nb0.64Ta0.36)0.8Ti0.2FeSb NWU,Nb0.64Ta0.36)0.8Ti0.2FeSb,600,,215490,0.00014173,4.4175,0.58793,,0.0000046406,0.0043286323,0.0009798828
27922,10.1002/aenm.201701313,25336,6b,31573,Nb0.64Ta0.36)0.8Ti0.2FeSb NWU,Nb0.64Ta0.36)0.8Ti0.2FeSb,650,,194200,0.00014974,4.2999,0.65823,,0.0000051493,0.0043543655,0.0010126667
27922,10.1002/aenm.201701313,25336,6b,31573,Nb0.64Ta0.36)0.8Ti0.2FeSb NWU,Nb0.64Ta0.36)0.8Ti0.2FeSb,700,,172910,0.00015775,4.1823,0.72018,,0.0000057834,0.0043028762,0.0010288301
27922,10.1002/aenm.201701313,25336,6b,31573,Nb0.64Ta0.36)0.8Ti0.2FeSb NWU,Nb0.64Ta0.36)0.8Ti0.2FeSb,750,,151620,0.00016575,4.0648,0.76857,,0.0000065954,0.0041654657,0.0010247652
27922,10.1002/aenm.201701313,25336,6b,31573,Nb0.64Ta0.36)0.8Ti0.2FeSb NWU,Nb0.64Ta0.36)0.8Ti0.2FeSb,800,,130330,0.00017376,3.9472,0.79753,,0.0000076728,0.0039349934,0.0009969075
27922,10.1002/aenm.201701313,25336,6b,31573,Nb0.64Ta0.36)0.8Ti0.2FeSb NWU,Nb0.64Ta0.36)0.8Ti0.2FeSb,850,,109040,0.00018176,3.8296,0.79955,,0.0000091709,0.0036023215,0.0009406522
27922,10.1002/aenm.201701313,25336,6b,31573,Nb0.64Ta0.36)0.8Ti0.2FeSb NWU,Nb0.64Ta0.36)0.8Ti0.2FeSb,900,,87753,0.00018977,3.7121,0.7662,,0.0000113956,0.0031602183,0.000851329
27922,10.1002/aenm.201701313,25336,6b,31573,Nb0.64Ta0.36)0.8Ti0.2FeSb NWU,Nb0.64Ta0.36)0.8Ti0.2FeSb,950,,,,3.5945,,,,,
27922,10.1002/aenm.201701313,25336,6b,31573,Nb0.64Ta0.36)0.8Ti0.2FeSb NWU,Nb0.64Ta0.36)0.8Ti0.2FeSb,1000,,,,3.4769,,,,,
27922,10.1002/aenm.201701313,25337,6C,31573,Nb0.64Ta0.36)0.8Ti0.2FeSb NWU,Nb0.64Ta0.36)0.8Ti0.2FeSb,350,,321930,0.00010171,,,,0.0000031063,0.0033303414,
27922,10.1002/aenm.201701313,25336,6b,31574,(Nb0.64Ta0.36)0.8Ti0.2FeSb ZJU,(Nb0.64Ta0.36)0.8Ti0.2FeSb,350,,369130,0.000087188,4.9261,0.19937,,0.0000027091,0.002806033,0.0005696257
27922,10.1002/aenm.201701313,25336,6b,31574,(Nb0.64Ta0.36)0.8Ti0.2FeSb ZJU,(Nb0.64Ta0.36)0.8Ti0.2FeSb,400,,349180,0.00009774,4.8177,0.27696,,0.0000028639,0.0033357541,0.0006923956
27922,10.1002/aenm.201701313,25336,6b,31574,(Nb0.64Ta0.36)0.8Ti0.2FeSb ZJU,(Nb0.64Ta0.36)0.8Ti0.2FeSb,450,,329240,0.0001079,4.7094,0.36627,,0.0000030373,0.0038331471,0.0008139353
27922,10.1002/aenm.201701313,25336,6b,31574,(Nb0.64Ta0.36)0.8Ti0.2FeSb ZJU,(Nb0.64Ta0.36)0.8Ti0.2FeSb,500,,309300,0.00011766,4.601,0.46532,,0.0000032331,0.0042819107,0.0009306478
27922,10.1002/aenm.201701313,25336,6b,31574,(Nb0.64Ta0.36)0.8Ti0.2FeSb ZJU,(Nb0.64Ta0.36)0.8Ti0.2FeSb,550,,289360,0.00012705,4.4927,0.5718,,0.0000034559,0.004670763,0.0010396339
27922,10.1002/aenm.201701313,25336,6b,31574,(Nb0.64Ta0.36)0.8Ti0.2FeSb ZJU,(Nb0.64Ta0.36)0.8Ti0.2FeSb,600,,269410,0.00013606,4.3843,0.68254,,0.0000037118,0.0049874051,0.0011375602
27922,10.1002/aenm.201701313,25336,6b,31574,(Nb0.64Ta0.36)0.8Ti0.2FeSb ZJU,(Nb0.64Ta0.36)0.8Ti0.2FeSb,650,,249470,0.0001447,4.276,0.79402,,0.0000040085,0.0052234253,0.0012215681
27922,10.1002/aenm.201701313,25336,6b,31574,(Nb0.64Ta0.36)0.8Ti0.2FeSb ZJU,(Nb0.64Ta0.36)0.8Ti0.2FeSb,700,,229530,0.00015298,4.1676,0.90224,,0.0000043567,0.0053716631,0.0012889104
27922,10.1002/aenm.201701313,25336,6b,31574,(Nb0.64Ta0.36)0.8Ti0.2FeSb ZJU,(Nb0.64Ta0.36)0.8Ti0.2FeSb,750,,209580,0.0001609,4.0593,1.0025,,0.0000047714,0.0054257768,0.0013366287
27922,10.1002/aenm.201701313,25336,6b,31574,(Nb0.64Ta0.36)0.8Ti0.2FeSb ZJU,(Nb0.64Ta0.36)0.8Ti0.2FeSb,800,,189640,0.00016847,3.9509,1.0899,,0.0000052731,0.0053823892,0.0013623198
27922,10.1002/aenm.201701313,25336,6b,31574,(Nb0.64Ta0.36)0.8Ti0.2FeSb ZJU,(Nb0.64Ta0.36)0.8Ti0.2FeSb,850,,169700,0.0001757,3.8426,1.1588,,0.0000058928,0.0052387222,0.0013633275
27922,10.1002/aenm.201701313,25336,6b,31574,(Nb0.64Ta0.36)0.8Ti0.2FeSb ZJU,(Nb0.64Ta0.36)0.8Ti0.2FeSb,900,,149760,0.0001826,3.7342,1.2035,,0.0000066774,0.0049934117,0.0013372106
27922,10.1002/aenm.201701313,25336,6b,31574,(Nb0.64Ta0.36)0.8Ti0.2FeSb ZJU,(Nb0.64Ta0.36)0.8Ti0.2FeSb,950,,129810,0.00018916,3.6259,1.217,,0.0000077036,0.0046447972,0.0012810053
27922,10.1002/aenm.201701313,25336,6b,31574,(Nb0.64Ta0.36)0.8Ti0.2FeSb ZJU,(Nb0.64Ta0.36)0.8Ti0.2FeSb,1000,,109870,0.00019541,3.5175,1.1927,,0.0000091017,0.0041953934,0.0011927202
27922,10.1002/aenm.201701313,25336,6b,31574,(Nb0.64Ta0.36)0.8Ti0.2FeSb ZJU,(Nb0.64Ta0.36)0.8Ti0.2FeSb,1050,,89928,0.00020133,3.4092,1.1227,,0.00001112,0.0036451208,0.0010692012
27922,10.1002/aenm.201701313,25336,6b,31574,(Nb0.64Ta0.36)0.8Ti0.2FeSb ZJU,(Nb0.64Ta0.36)0.8Ti0.2FeSb,1100,,69985,0.00020695,3.3008,0.99887,,0.0000142888,0.0029973388,0.0009080643
27922,10.1002/aenm.201701313,25336,6b,31574,(Nb0.64Ta0.36)0.8Ti0.2FeSb ZJU,(Nb0.64Ta0.36)0.8Ti0.2FeSb,1150,,50042,0.00021226,3.1925,0.81215,,0.0000199832,0.0022546077,0.0007062201
27922,10.1002/aenm.201701313,26674,5b,33455, (Nb1−xTax)0.8Ti0.2FeSb,undefined,,2.5244e+26,,,,,0.05,,,
27922,10.1002/aenm.201701313,26674,5b,33455, (Nb1−xTax)0.8Ti0.2FeSb,undefined,,2.5293e+26,,,,,0.1,,,
27922,10.1002/aenm.201701313,26674,5b,33455, (Nb1−xTax)0.8Ti0.2FeSb,undefined,,2.5341e+26,,,,,0.15,,,
27922,10.1002/aenm.201701313,26674,5b,33455, (Nb1−xTax)0.8Ti0.2FeSb,undefined,,2.5389e+26,,,,,0.2,,,
27922,10.1002/aenm.201701313,26674,5b,33455, (Nb1−xTax)0.8Ti0.2FeSb,undefined,,2.5437e+26,,,,,0.25,,,
27922,10.1002/aenm.201701313,26674,5b,33455, (Nb1−xTax)0.8Ti0.2FeSb,undefined,,2.5485e+26,,,,,0.3,,,
27922,10.1002/aenm.201701313,26674,5b,33455, (Nb1−xTax)0.8Ti0.2FeSb,undefined,,2.5534e+26,,,,,0.35,,,
27922,10.1002/aenm.201701313,26674,5b,33455, (Nb1−xTax)0.8Ti0.2FeSb,undefined,,2.5582e+26,,,,,0.4,,,