sid,DOI,figureid,fignum,sampleid,samplename,composition,Temperature,Carrier concentration,Electrical conductivity,Seebeck coefficient,Thermal conductivity,ZT,content,Electrical resistivity,Power factor,Figure of merit Z
27922,10.1002/aenm.201701313,25328,3a,31559,(Nb1−xTax)0.8Ti0.2FeSb_ x=0,Nb0.8Ti0.2FeSb,300,,480260,,7.7043,0.067331,,0.0000020822,,
27922,10.1002/aenm.201701313,25328,3a,31559,(Nb1−xTax)0.8Ti0.2FeSb_ x=0,Nb0.8Ti0.2FeSb,350,,454870,0.000084678,7.4939,0.13023,,0.0000021984,0.0032615833,0.0004352318
27922,10.1002/aenm.201701313,25328,3a,31559,(Nb1−xTax)0.8Ti0.2FeSb_ x=0,Nb0.8Ti0.2FeSb,400,,429480,0.000092755,7.2835,0.19314,,0.0000023284,0.0036950269,0.0005073147
27922,10.1002/aenm.201701313,25328,3a,31559,(Nb1−xTax)0.8Ti0.2FeSb_ x=0,Nb0.8Ti0.2FeSb,450,,404090,0.00010083,7.0731,0.25604,,0.0000024747,0.0041082573,0.0005808284
27922,10.1002/aenm.201701313,25328,3a,31559,(Nb1−xTax)0.8Ti0.2FeSb_ x=0,Nb0.8Ti0.2FeSb,500,,378700,0.00010891,6.8627,0.31895,,0.0000026406,0.0044919077,0.0006545394
27922,10.1002/aenm.201701313,25328,3a,31559,(Nb1−xTax)0.8Ti0.2FeSb_ x=0,Nb0.8Ti0.2FeSb,550,,353310,0.00011699,6.6523,0.38185,,0.0000028304,0.0048356339,0.0007269116
27922,10.1002/aenm.201701313,25328,3a,31559,(Nb1−xTax)0.8Ti0.2FeSb_ x=0,Nb0.8Ti0.2FeSb,600,,327920,0.00012507,6.4419,0.44475,,0.0000030495,0.0051294902,0.0007962698
27922,10.1002/aenm.201701313,25328,3a,31559,(Nb1−xTax)0.8Ti0.2FeSb_ x=0,Nb0.8Ti0.2FeSb,650,,302530,0.00013314,6.2314,0.50766,,0.0000033055,0.0053627253,0.0008605972
27922,10.1002/aenm.201701313,25328,3a,31559,(Nb1−xTax)0.8Ti0.2FeSb_ x=0,Nb0.8Ti0.2FeSb,700,,277140,0.00014122,6.021,0.57056,,0.0000036083,0.0055270275,0.0009179584
27922,10.1002/aenm.201701313,25328,3a,31559,(Nb1−xTax)0.8Ti0.2FeSb_ x=0,Nb0.8Ti0.2FeSb,750,,251750,0.0001493,5.8106,0.63347,,0.0000039722,0.0056116309,0.0009657576
27922,10.1002/aenm.201701313,25328,3a,31559,(Nb1−xTax)0.8Ti0.2FeSb_ x=0,Nb0.8Ti0.2FeSb,800,,226360,0.00015737,5.6002,0.69637,,0.0000044177,0.0056058771,0.0010010137
27922,10.1002/aenm.201701313,25328,3a,31559,(Nb1−xTax)0.8Ti0.2FeSb_ x=0,Nb0.8Ti0.2FeSb,850,,200970,0.00016545,5.3898,0.75927,,0.0000049759,0.005501293,0.0010206859
27922,10.1002/aenm.201701313,25328,3a,31559,(Nb1−xTax)0.8Ti0.2FeSb_ x=0,Nb0.8Ti0.2FeSb,900,,175580,0.00017353,5.1794,0.82218,,0.0000056954,0.005287181,0.0010208096
27922,10.1002/aenm.201701313,25328,3a,31559,(Nb1−xTax)0.8Ti0.2FeSb_ x=0,Nb0.8Ti0.2FeSb,950,,150190,0.00018161,4.9689,0.88508,,0.0000066582,0.0049535954,0.0009969199
27922,10.1002/aenm.201701313,25328,3a,31559,(Nb1−xTax)0.8Ti0.2FeSb_ x=0,Nb0.8Ti0.2FeSb,1000,,124800,0.00018968,4.7585,0.94798,,0.0000080128,0.0044901171,0.0009435993
27922,10.1002/aenm.201701313,25328,3a,31559,(Nb1−xTax)0.8Ti0.2FeSb_ x=0,Nb0.8Ti0.2FeSb,1050,,99408,0.00019776,4.5481,1.0109,,0.0000100596,0.0038877492,0.0008548073
27922,10.1002/aenm.201701313,25328,3a,31559,(Nb1−xTax)0.8Ti0.2FeSb_ x=0,Nb0.8Ti0.2FeSb,1100,,74018,0.00020584,4.3377,1.0738,,0.0000135102,0.0031361505,0.0007229985
27922,10.1002/aenm.201701313,25328,3a,31559,(Nb1−xTax)0.8Ti0.2FeSb_ x=0,Nb0.8Ti0.2FeSb,1150,,48629,0.00021392,4.1273,1.1367,,0.0000205639,0.0022253489,0.0005391779
27922,10.1002/aenm.201701313,25328,3a,31560,(Nb1−xTax)0.8Ti0.2FeSb_ x=0.04,(Nb0.96Ta0.04)0.8Ti0.2FeSb,300,,500350,,7.2457,0.11376,,0.0000019986,,
27922,10.1002/aenm.201701313,25328,3a,31560,(Nb1−xTax)0.8Ti0.2FeSb_ x=0.04,(Nb0.96Ta0.04)0.8Ti0.2FeSb,350,,473640,0.000087706,7.0637,0.17504,,0.0000021113,0.0036434011,0.0005157922
27922,10.1002/aenm.201701313,25328,3a,31560,(Nb1−xTax)0.8Ti0.2FeSb_ x=0.04,(Nb0.96Ta0.04)0.8Ti0.2FeSb,400,,446930,0.000095432,6.8818,0.23632,,0.0000022375,0.0040703107,0.0005914602
27922,10.1002/aenm.201701313,25328,3a,31560,(Nb1−xTax)0.8Ti0.2FeSb_ x=0.04,(Nb0.96Ta0.04)0.8Ti0.2FeSb,450,,420210,0.00010316,6.6998,0.2976,,0.0000023798,0.0044718688,0.000667463
27922,10.1002/aenm.201701313,25328,3a,31560,(Nb1−xTax)0.8Ti0.2FeSb_ x=0.04,(Nb0.96Ta0.04)0.8Ti0.2FeSb,500,,393500,0.00011088,6.5178,0.35888,,0.0000025413,0.0048378363,0.0007422499
27922,10.1002/aenm.201701313,25328,3a,31560,(Nb1−xTax)0.8Ti0.2FeSb_ x=0.04,(Nb0.96Ta0.04)0.8Ti0.2FeSb,550,,366790,0.00011861,6.3358,0.42016,,0.0000027264,0.0051601235,0.0008144391
27922,10.1002/aenm.201701313,25328,3a,31560,(Nb1−xTax)0.8Ti0.2FeSb_ x=0.04,(Nb0.96Ta0.04)0.8Ti0.2FeSb,600,,340070,0.00012634,6.1538,0.48144,,0.0000029406,0.0054281278,0.0008820774
27922,10.1002/aenm.201701313,25328,3a,31560,(Nb1−xTax)0.8Ti0.2FeSb_ x=0.04,(Nb0.96Ta0.04)0.8Ti0.2FeSb,650,,313360,0.00013406,5.9718,0.54272,,0.0000031912,0.0056317321,0.0009430544
27922,10.1002/aenm.201701313,25328,3a,31560,(Nb1−xTax)0.8Ti0.2FeSb_ x=0.04,(Nb0.96Ta0.04)0.8Ti0.2FeSb,700,,286650,0.00014179,5.7898,0.60399,,0.0000034886,0.0057629274,0.0009953586
27922,10.1002/aenm.201701313,25328,3a,31560,(Nb1−xTax)0.8Ti0.2FeSb_ x=0.04,(Nb0.96Ta0.04)0.8Ti0.2FeSb,750,,259930,0.00014951,5.6078,0.66527,,0.0000038472,0.0058102777,0.0010361064
27922,10.1002/aenm.201701313,25328,3a,31560,(Nb1−xTax)0.8Ti0.2FeSb_ x=0.04,(Nb0.96Ta0.04)0.8Ti0.2FeSb,800,,233220,0.00015724,5.4258,0.72655,,0.0000042878,0.0057662287,0.0010627426
27922,10.1002/aenm.201701313,25328,3a,31560,(Nb1−xTax)0.8Ti0.2FeSb_ x=0.04,(Nb0.96Ta0.04)0.8Ti0.2FeSb,850,,206510,0.00016497,5.2438,0.78783,,0.0000048424,0.0056201905,0.0010717782
27922,10.1002/aenm.201701313,25328,3a,31560,(Nb1−xTax)0.8Ti0.2FeSb_ x=0.04,(Nb0.96Ta0.04)0.8Ti0.2FeSb,900,,179790,0.00017269,5.0618,0.84911,,0.000005562,0.0053616679,0.0010592414
27922,10.1002/aenm.201701313,25328,3a,31560,(Nb1−xTax)0.8Ti0.2FeSb_ x=0.04,(Nb0.96Ta0.04)0.8Ti0.2FeSb,950,,153080,0.00018042,4.8798,0.91039,,0.0000065325,0.0049829647,0.0010211412
27922,10.1002/aenm.201701313,25328,3a,31560,(Nb1−xTax)0.8Ti0.2FeSb_ x=0.04,(Nb0.96Ta0.04)0.8Ti0.2FeSb,1000,,126360,0.00018814,4.6978,0.97167,,0.0000079139,0.0044727219,0.0009520886
27922,10.1002/aenm.201701313,25328,3a,31560,(Nb1−xTax)0.8Ti0.2FeSb_ x=0.04,(Nb0.96Ta0.04)0.8Ti0.2FeSb,1050,,99651,0.00019587,4.5158,1.033,,0.000010035,0.0038231163,0.0008466089
27922,10.1002/aenm.201701313,25328,3a,31560,(Nb1−xTax)0.8Ti0.2FeSb_ x=0.04,(Nb0.96Ta0.04)0.8Ti0.2FeSb,1100,,72938,0.00020359,4.3338,1.0942,,0.0000137103,0.003023199,0.0006975862
27922,10.1002/aenm.201701313,25328,3a,31560,(Nb1−xTax)0.8Ti0.2FeSb_ x=0.04,(Nb0.96Ta0.04)0.8Ti0.2FeSb,1150,,46224,0.00021132,4.1518,1.1555,,0.0000216338,0.0020641855,0.0004971785
27922,10.1002/aenm.201701313,25332,5a,31560,(Nb1−xTax)0.8Ti0.2FeSb_ x=0.04,(Nb0.96Ta0.04)0.8Ti0.2FeSb,1200,,19511,,,,,0.0000512531,,
27922,10.1002/aenm.201701313,25328,3a,31561,(Nb1−xTax)0.8Ti0.2FeSb_ x=0.12,(Nb0.88Ta0.12)0.8Ti0.2FeSb,300,,,,6.1881,0.17248,,,,
27922,10.1002/aenm.201701313,25328,3a,31561,(Nb1−xTax)0.8Ti0.2FeSb_ x=0.12,(Nb0.88Ta0.12)0.8Ti0.2FeSb,350,,402120,0.000086368,6.0518,0.2349,,0.0000024868,0.0029995866,0.000495652
27922,10.1002/aenm.201701313,25328,3a,31561,(Nb1−xTax)0.8Ti0.2FeSb_ x=0.12,(Nb0.88Ta0.12)0.8Ti0.2FeSb,400,,381090,0.000096664,5.9155,0.29732,,0.0000026241,0.0035608779,0.0006019572
27922,10.1002/aenm.201701313,25328,3a,31561,(Nb1−xTax)0.8Ti0.2FeSb_ x=0.12,(Nb0.88Ta0.12)0.8Ti0.2FeSb,450,,360060,0.00010661,5.7793,0.35974,,0.0000027773,0.0040923311,0.0007081015
27922,10.1002/aenm.201701313,25328,3a,31561,(Nb1−xTax)0.8Ti0.2FeSb_ x=0.12,(Nb0.88Ta0.12)0.8Ti0.2FeSb,500,,339030,0.00011622,5.643,0.42216,,0.0000029496,0.0045793082,0.0008115024
27922,10.1002/aenm.201701313,25328,3a,31561,(Nb1−xTax)0.8Ti0.2FeSb_ x=0.12,(Nb0.88Ta0.12)0.8Ti0.2FeSb,550,,318010,0.00012548,5.5067,0.48459,,0.0000031446,0.0050071407,0.0009092816
27922,10.1002/aenm.201701313,25328,3a,31561,(Nb1−xTax)0.8Ti0.2FeSb_ x=0.12,(Nb0.88Ta0.12)0.8Ti0.2FeSb,600,,296980,0.0001344,5.3705,0.54701,,0.0000033672,0.0053644567,0.0009988747
27922,10.1002/aenm.201701313,25328,3a,31561,(Nb1−xTax)0.8Ti0.2FeSb_ x=0.12,(Nb0.88Ta0.12)0.8Ti0.2FeSb,650,,275950,0.00014297,5.2342,0.60943,,0.0000036238,0.0056405341,0.0010776306
27922,10.1002/aenm.201701313,25328,3a,31561,(Nb1−xTax)0.8Ti0.2FeSb_ x=0.12,(Nb0.88Ta0.12)0.8Ti0.2FeSb,700,,254920,0.00015119,5.0979,0.67185,,0.0000039228,0.0058270674,0.0011430329
27922,10.1002/aenm.201701313,25328,3a,31561,(Nb1−xTax)0.8Ti0.2FeSb_ x=0.12,(Nb0.88Ta0.12)0.8Ti0.2FeSb,750,,233890,0.00015907,4.9617,0.73428,,0.0000042755,0.0059181806,0.0011927728
27922,10.1002/aenm.201701313,25328,3a,31561,(Nb1−xTax)0.8Ti0.2FeSb_ x=0.12,(Nb0.88Ta0.12)0.8Ti0.2FeSb,800,,212870,0.0001666,4.8254,0.7967,,0.0000046977,0.0059083261,0.001224422
27922,10.1002/aenm.201701313,25328,3a,31561,(Nb1−xTax)0.8Ti0.2FeSb_ x=0.12,(Nb0.88Ta0.12)0.8Ti0.2FeSb,850,,191840,0.00017379,4.6891,0.85912,,0.0000052127,0.0057941366,0.0012356607
27922,10.1002/aenm.201701313,25328,3a,31561,(Nb1−xTax)0.8Ti0.2FeSb_ x=0.12,(Nb0.88Ta0.12)0.8Ti0.2FeSb,900,,170810,0.00018064,4.5529,0.92154,,0.0000058545,0.0055736686,0.0012242018
27922,10.1002/aenm.201701313,25328,3a,31561,(Nb1−xTax)0.8Ti0.2FeSb_ x=0.12,(Nb0.88Ta0.12)0.8Ti0.2FeSb,950,,149780,0.00018714,4.4166,0.98396,,0.0000066765,0.0052455022,0.0011876788
27922,10.1002/aenm.201701313,25328,3a,31561,(Nb1−xTax)0.8Ti0.2FeSb_ x=0.12,(Nb0.88Ta0.12)0.8Ti0.2FeSb,1000,,128750,0.00019329,4.2803,1.0464,,0.000007767,0.0048102319,0.0011238072
27922,10.1002/aenm.201701313,25328,3a,31561,(Nb1−xTax)0.8Ti0.2FeSb_ x=0.12,(Nb0.88Ta0.12)0.8Ti0.2FeSb,1050,,107730,0.0001991,4.1441,1.1088,,0.0000092825,0.0042705045,0.0010305023
27922,10.1002/aenm.201701313,25328,3a,31561,(Nb1−xTax)0.8Ti0.2FeSb_ x=0.12,(Nb0.88Ta0.12)0.8Ti0.2FeSb,1100,,86698,0.00020456,4.0078,1.1712,,0.0000115343,0.0036278599,0.0009051998
27922,10.1002/aenm.201701313,25328,3a,31561,(Nb1−xTax)0.8Ti0.2FeSb_ x=0.12,(Nb0.88Ta0.12)0.8Ti0.2FeSb,1150,,65670,0.00020968,3.8715,1.2337,,0.0000152277,0.0028872277,0.0007457646
27922,10.1002/aenm.201701313,25328,3a,31562,(Nb1−xTax)0.8Ti0.2FeSb_ x=0.20,(Nb0.80Ta0.20)0.8Ti0.2FeSb,300,,438470,,5.8234,0.15488,,0.0000022807,,
27922,10.1002/aenm.201701313,25328,3a,31562,(Nb1−xTax)0.8Ti0.2FeSb_ x=0.20,(Nb0.80Ta0.20)0.8Ti0.2FeSb,350,,415940,0.00008713,5.6948,0.21946,,0.0000024042,0.0031576655,0.0005544822
27922,10.1002/aenm.201701313,25328,3a,31562,(Nb1−xTax)0.8Ti0.2FeSb_ x=0.20,(Nb0.80Ta0.20)0.8Ti0.2FeSb,400,,393410,0.000095965,5.5662,0.28403,,0.0000025419,0.0036230233,0.0006508971
27922,10.1002/aenm.201701313,25328,3a,31562,(Nb1−xTax)0.8Ti0.2FeSb_ x=0.20,(Nb0.80Ta0.20)0.8Ti0.2FeSb,450,,370890,0.00010589,5.4375,0.34861,,0.0000026962,0.0041586754,0.0007648139
27922,10.1002/aenm.201701313,25328,3a,31562,(Nb1−xTax)0.8Ti0.2FeSb_ x=0.20,(Nb0.80Ta0.20)0.8Ti0.2FeSb,500,,348360,0.00011625,5.3089,0.41319,,0.0000028706,0.0047077588,0.0008867673
27922,10.1002/aenm.201701313,25328,3a,31562,(Nb1−xTax)0.8Ti0.2FeSb_ x=0.20,(Nb0.80Ta0.20)0.8Ti0.2FeSb,550,,325840,0.00012653,5.1803,0.47777,,0.000003069,0.0052166466,0.0010070163
27922,10.1002/aenm.201701313,25328,3a,31562,(Nb1−xTax)0.8Ti0.2FeSb_ x=0.20,(Nb0.80Ta0.20)0.8Ti0.2FeSb,600,,303310,0.00013632,5.0517,0.54234,,0.000003297,0.0056364529,0.0011157537
27922,10.1002/aenm.201701313,25328,3a,31562,(Nb1−xTax)0.8Ti0.2FeSb_ x=0.20,(Nb0.80Ta0.20)0.8Ti0.2FeSb,650,,280780,0.00014537,4.923,0.60692,,0.0000035615,0.0059335656,0.0012052744
27922,10.1002/aenm.201701313,25328,3a,31562,(Nb1−xTax)0.8Ti0.2FeSb_ x=0.20,(Nb0.80Ta0.20)0.8Ti0.2FeSb,700,,258260,0.0001535,4.7944,0.6715,,0.0000038721,0.0060851867,0.001269228
27922,10.1002/aenm.201701313,25328,3a,31562,(Nb1−xTax)0.8Ti0.2FeSb_ x=0.20,(Nb0.80Ta0.20)0.8Ti0.2FeSb,750,,235730,0.0001607,4.6658,0.73607,,0.0000042421,0.006087607,0.0013047295
27922,10.1002/aenm.201701313,25328,3a,31562,(Nb1−xTax)0.8Ti0.2FeSb_ x=0.20,(Nb0.80Ta0.20)0.8Ti0.2FeSb,800,,213210,0.00016706,4.5372,0.80065,,0.0000046902,0.0059504872,0.0013114888
27922,10.1002/aenm.201701313,25328,3a,31562,(Nb1−xTax)0.8Ti0.2FeSb_ x=0.20,(Nb0.80Ta0.20)0.8Ti0.2FeSb,850,,190680,0.00017279,4.4085,0.86523,,0.0000052444,0.0056930153,0.0012913724
27922,10.1002/aenm.201701313,25328,3a,31562,(Nb1−xTax)0.8Ti0.2FeSb_ x=0.20,(Nb0.80Ta0.20)0.8Ti0.2FeSb,900,,168150,0.00017824,4.2799,0.92981,,0.0000059471,0.005342041,0.0012481696
27922,10.1002/aenm.201701313,25328,3a,31562,(Nb1−xTax)0.8Ti0.2FeSb_ x=0.20,(Nb0.80Ta0.20)0.8Ti0.2FeSb,950,,145630,0.00018387,4.1513,0.99438,,0.0000068667,0.0049234848,0.0011860104
27922,10.1002/aenm.201701313,25328,3a,31562,(Nb1−xTax)0.8Ti0.2FeSb_ x=0.20,(Nb0.80Ta0.20)0.8Ti0.2FeSb,1000,,123100,0.00019026,4.0227,1.059,,0.0000081235,0.0044560806,0.0011077338
27922,10.1002/aenm.201701313,25328,3a,31562,(Nb1−xTax)0.8Ti0.2FeSb_ x=0.20,(Nb0.80Ta0.20)0.8Ti0.2FeSb,1050,,100570,0.00019814,3.894,1.1235,,0.0000099433,0.0039483239,0.0010139507
27922,10.1002/aenm.201701313,25328,3a,31562,(Nb1−xTax)0.8Ti0.2FeSb_ x=0.20,(Nb0.80Ta0.20)0.8Ti0.2FeSb,1100,,78048,0.00020832,3.7654,1.1881,,0.0000128126,0.0033870664,0.0008995237
27922,10.1002/aenm.201701313,25328,3a,31562,(Nb1−xTax)0.8Ti0.2FeSb_ x=0.20,(Nb0.80Ta0.20)0.8Ti0.2FeSb,1150,,55522,0.00022178,3.6368,1.2527,,0.0000180109,0.0027309255,0.0007509144
27922,10.1002/aenm.201701313,25328,3a,31563,(Nb1−xTax)0.8Ti0.2FeSb_ x=0.24,(Nb0.76Ta0.24)0.8Ti0.2FeSb,300,,,,5.7384,0.038229,,,,
27922,10.1002/aenm.201701313,25328,3a,31563,(Nb1−xTax)0.8Ti0.2FeSb_ x=0.24,(Nb0.76Ta0.24)0.8Ti0.2FeSb,350,,471670,0.000077699,5.6167,0.11523,,0.0000021201,0.0028475353,0.0005069766
27922,10.1002/aenm.201701313,25328,3a,31563,(Nb1−xTax)0.8Ti0.2FeSb_ x=0.24,(Nb0.76Ta0.24)0.8Ti0.2FeSb,400,,446100,0.00008565,5.495,0.19224,,0.0000022416,0.003272555,0.0005955514
27922,10.1002/aenm.201701313,25328,3a,31563,(Nb1−xTax)0.8Ti0.2FeSb_ x=0.24,(Nb0.76Ta0.24)0.8Ti0.2FeSb,450,,420530,0.000093602,5.3732,0.26925,,0.000002378,0.003684404,0.0006857001
27922,10.1002/aenm.201701313,25328,3a,31563,(Nb1−xTax)0.8Ti0.2FeSb_ x=0.24,(Nb0.76Ta0.24)0.8Ti0.2FeSb,500,,394950,0.00010155,5.2515,0.34625,,0.000002532,0.0040728834,0.0007755657
27922,10.1002/aenm.201701313,25328,3a,31563,(Nb1−xTax)0.8Ti0.2FeSb_ x=0.24,(Nb0.76Ta0.24)0.8Ti0.2FeSb,550,,369380,0.0001095,5.1298,0.42326,,0.0000027072,0.0044289585,0.0008633784
27922,10.1002/aenm.201701313,25328,3a,31563,(Nb1−xTax)0.8Ti0.2FeSb_ x=0.24,(Nb0.76Ta0.24)0.8Ti0.2FeSb,600,,343810,0.00011746,5.008,0.50026,,0.0000029086,0.0047434955,0.0009471836
27922,10.1002/aenm.201701313,25328,3a,31563,(Nb1−xTax)0.8Ti0.2FeSb_ x=0.24,(Nb0.76Ta0.24)0.8Ti0.2FeSb,650,,318240,0.00012541,4.8863,0.57727,,0.0000031423,0.0050051731,0.0010243278
27922,10.1002/aenm.201701313,25328,3a,31563,(Nb1−xTax)0.8Ti0.2FeSb_ x=0.24,(Nb0.76Ta0.24)0.8Ti0.2FeSb,700,,292660,0.00013336,4.7646,0.65427,,0.0000034169,0.0052049258,0.0010924161
27922,10.1002/aenm.201701313,25328,3a,31563,(Nb1−xTax)0.8Ti0.2FeSb_ x=0.24,(Nb0.76Ta0.24)0.8Ti0.2FeSb,750,,267090,0.00014131,4.6429,0.73128,,0.0000037441,0.005333391,0.0011487198
27922,10.1002/aenm.201701313,25328,3a,31563,(Nb1−xTax)0.8Ti0.2FeSb_ x=0.24,(Nb0.76Ta0.24)0.8Ti0.2FeSb,800,,241520,0.00014926,4.5211,0.80829,,0.0000041404,0.0053807148,0.001190134
27922,10.1002/aenm.201701313,25328,3a,31563,(Nb1−xTax)0.8Ti0.2FeSb_ x=0.24,(Nb0.76Ta0.24)0.8Ti0.2FeSb,850,,215940,0.00015721,4.3994,0.88529,,0.0000046309,0.0053369537,0.0012131094
27922,10.1002/aenm.201701313,25328,3a,31563,(Nb1−xTax)0.8Ti0.2FeSb_ x=0.24,(Nb0.76Ta0.24)0.8Ti0.2FeSb,900,,190370,0.00016517,4.2777,0.9623,,0.0000052529,0.0051935085,0.001214089
27922,10.1002/aenm.201701313,25328,3a,31563,(Nb1−xTax)0.8Ti0.2FeSb_ x=0.24,(Nb0.76Ta0.24)0.8Ti0.2FeSb,950,,164800,0.00017312,4.156,1.0393,,0.000006068,0.0049391441,0.001188437
27922,10.1002/aenm.201701313,25328,3a,31563,(Nb1−xTax)0.8Ti0.2FeSb_ x=0.24,(Nb0.76Ta0.24)0.8Ti0.2FeSb,1000,,139230,0.00018107,4.0342,1.1163,,0.0000071824,0.0045648428,0.0011315361
27922,10.1002/aenm.201701313,25328,3a,31563,(Nb1−xTax)0.8Ti0.2FeSb_ x=0.24,(Nb0.76Ta0.24)0.8Ti0.2FeSb,1050,,113650,0.00018902,3.9125,1.1933,,0.0000087989,0.0040605509,0.0010378405
27922,10.1002/aenm.201701313,25328,3a,31563,(Nb1−xTax)0.8Ti0.2FeSb_ x=0.24,(Nb0.76Ta0.24)0.8Ti0.2FeSb,1100,,88080,0.00019697,3.7908,1.2703,,0.0000113533,0.0034172557,0.0009014603
27922,10.1002/aenm.201701313,25328,3a,31563,(Nb1−xTax)0.8Ti0.2FeSb_ x=0.24,(Nb0.76Ta0.24)0.8Ti0.2FeSb,1150,,62508,0.00020492,3.6691,1.3473,,0.000015998,0.0026248488,0.0007153931
27922,10.1002/aenm.201701313,25332,5a,31563,(Nb1−xTax)0.8Ti0.2FeSb_ x=0.24,(Nb0.76Ta0.24)0.8Ti0.2FeSb,1200,,36935,,,,,0.0000270746,,
27922,10.1002/aenm.201701313,25328,3a,31564,(Nb1−xTax)0.8Ti0.2FeSb_ x=0.32,(Nb0.68Ta0.32)0.8Ti0.2FeSb,300,,451670,,5.3845,0.16983,,0.000002214,,
27922,10.1002/aenm.201701313,25328,3a,31564,(Nb1−xTax)0.8Ti0.2FeSb_ x=0.32,(Nb0.68Ta0.32)0.8Ti0.2FeSb,350,,428490,0.000088643,5.2663,0.24652,,0.0000023338,0.0033668951,0.0006393284
27922,10.1002/aenm.201701313,25328,3a,31564,(Nb1−xTax)0.8Ti0.2FeSb_ x=0.32,(Nb0.68Ta0.32)0.8Ti0.2FeSb,400,,405320,0.000098407,5.1481,0.32321,,0.0000024672,0.0039250936,0.0007624354
27922,10.1002/aenm.201701313,25328,3a,31564,(Nb1−xTax)0.8Ti0.2FeSb_ x=0.32,(Nb0.68Ta0.32)0.8Ti0.2FeSb,450,,382140,0.00010782,5.0299,0.3999,,0.0000026168,0.0044424357,0.0008832056
27922,10.1002/aenm.201701313,25328,3a,31564,(Nb1−xTax)0.8Ti0.2FeSb_ x=0.32,(Nb0.68Ta0.32)0.8Ti0.2FeSb,500,,358970,0.00011698,4.9117,0.47659,,0.0000027857,0.0049122605,0.0010001141
27922,10.1002/aenm.201701313,25328,3a,31564,(Nb1−xTax)0.8Ti0.2FeSb_ x=0.32,(Nb0.68Ta0.32)0.8Ti0.2FeSb,550,,335790,0.00012592,4.7935,0.55328,,0.0000029781,0.0053242347,0.0011107197
27922,10.1002/aenm.201701313,25328,3a,31564,(Nb1−xTax)0.8Ti0.2FeSb_ x=0.32,(Nb0.68Ta0.32)0.8Ti0.2FeSb,600,,312620,0.00013464,4.6753,0.62997,,0.0000031988,0.0056671534,0.0012121475
27922,10.1002/aenm.201701313,25328,3a,31564,(Nb1−xTax)0.8Ti0.2FeSb_ x=0.32,(Nb0.68Ta0.32)0.8Ti0.2FeSb,650,,289440,0.00014314,4.5571,0.70666,,0.0000034549,0.0059303534,0.0013013437
27922,10.1002/aenm.201701313,25328,3a,31564,(Nb1−xTax)0.8Ti0.2FeSb_ x=0.32,(Nb0.68Ta0.32)0.8Ti0.2FeSb,700,,266270,0.00015138,4.4389,0.78336,,0.0000037556,0.0061018179,0.0013746239
27922,10.1002/aenm.201701313,25328,3a,31564,(Nb1−xTax)0.8Ti0.2FeSb_ x=0.32,(Nb0.68Ta0.32)0.8Ti0.2FeSb,750,,243090,0.00015933,4.3208,0.86005,,0.0000041137,0.0061710946,0.0014282296
27922,10.1002/aenm.201701313,25328,3a,31564,(Nb1−xTax)0.8Ti0.2FeSb_ x=0.32,(Nb0.68Ta0.32)0.8Ti0.2FeSb,800,,219920,0.00016697,4.2026,0.93674,,0.0000045471,0.0061311455,0.0014588934
27922,10.1002/aenm.201701313,25328,3a,31564,(Nb1−xTax)0.8Ti0.2FeSb_ x=0.32,(Nb0.68Ta0.32)0.8Ti0.2FeSb,850,,196740,0.00017433,4.0844,1.0134,,0.0000050829,0.0059791153,0.0014638907
27922,10.1002/aenm.201701313,25328,3a,31564,(Nb1−xTax)0.8Ti0.2FeSb_ x=0.32,(Nb0.68Ta0.32)0.8Ti0.2FeSb,900,,173570,0.00018143,3.9662,1.0901,,0.0000057614,0.0057133768,0.0014405166
27922,10.1002/aenm.201701313,25328,3a,31564,(Nb1−xTax)0.8Ti0.2FeSb_ x=0.32,(Nb0.68Ta0.32)0.8Ti0.2FeSb,950,,150390,0.00018838,3.848,1.1668,,0.0000066494,0.0053368936,0.0013869266
27922,10.1002/aenm.201701313,25328,3a,31564,(Nb1−xTax)0.8Ti0.2FeSb_ x=0.32,(Nb0.68Ta0.32)0.8Ti0.2FeSb,1000,,127210,0.00019534,3.7298,1.2435,,0.000007861,0.004854043,0.0013014218
27922,10.1002/aenm.201701313,25328,3a,31564,(Nb1−xTax)0.8Ti0.2FeSb_ x=0.32,(Nb0.68Ta0.32)0.8Ti0.2FeSb,1050,,104040,0.00020252,3.6116,1.3202,,0.0000096117,0.004267133,0.0011815076
27922,10.1002/aenm.201701313,25328,3a,31564,(Nb1−xTax)0.8Ti0.2FeSb_ x=0.32,(Nb0.68Ta0.32)0.8Ti0.2FeSb,1100,,80864,0.00021025,3.4934,1.3969,,0.0000123664,0.0035745982,0.0010232433
27922,10.1002/aenm.201701313,25328,3a,31564,(Nb1−xTax)0.8Ti0.2FeSb_ x=0.32,(Nb0.68Ta0.32)0.8Ti0.2FeSb,1150,,57689,0.00021894,3.3752,1.4736,,0.0000173343,0.0027653063,0.0008193015
27922,10.1002/aenm.201701313,25328,3a,31564,(Nb1−xTax)0.8Ti0.2FeSb_ x=0.32,(Nb0.68Ta0.32)0.8Ti0.2FeSb,1200,,34514,,3.257,,,0.0000289737,,
27922,10.1002/aenm.201701313,25328,3a,31565,(Nb1−xTax)0.8Ti0.2FeSb_ x=0.36,(Nb0.64Ta0.36)0.8Ti0.2FeSb,300,,,,4.9819,0.16393,,,,
27922,10.1002/aenm.201701313,25328,3a,31565,(Nb1−xTax)0.8Ti0.2FeSb_ x=0.36,(Nb0.64Ta0.36)0.8Ti0.2FeSb,350,,397220,0.000091864,4.8659,0.24428,,0.0000025175,0.0033521374,0.0006889039
27922,10.1002/aenm.201701313,25328,3a,31565,(Nb1−xTax)0.8Ti0.2FeSb_ x=0.36,(Nb0.64Ta0.36)0.8Ti0.2FeSb,400,,375420,0.000099836,4.7499,0.32463,,0.0000026637,0.0037418963,0.0007877842