sid,DOI,figureid,fignum,sampleid,samplename,composition,Temperature,Electrical conductivity,Seebeck coefficient,Thermal conductivity,ZT,Electrical resistivity,Power factor,Figure of merit Z
10094,10.1063/1.2163979,1401,2(a),2235,4,Ba8Ga16Ge30,300,,-0.000061285,,,,,
10094,10.1063/1.2163979,1401,2(a),2235,4,Ba8Ga16Ge30,350,,-0.000088673,,,,,
10094,10.1063/1.2163979,1401,2(a),2235,4,Ba8Ga16Ge30,400,,-0.00010147,,,,,
10094,10.1063/1.2163979,1401,2(a),2235,4,Ba8Ga16Ge30,450,,-0.00011777,,,,,
10094,10.1063/1.2163979,1401,2(a),2235,4,Ba8Ga16Ge30,500,,-0.00013533,,,,,
10094,10.1063/1.2163979,1401,2(a),2235,4,Ba8Ga16Ge30,550,,-0.0001489,,,,,
10094,10.1063/1.2163979,1401,2(a),2235,4,Ba8Ga16Ge30,600,,-0.00016774,,,,,
10094,10.1063/1.2163979,1401,2(a),2236,5,Ba8Ga16Ge30,400,,-0.00010869,,,,,
10094,10.1063/1.2163979,1401,2(a),2236,5,Ba8Ga16Ge30,450,,-0.0001271,,,,,
10094,10.1063/1.2163979,1401,2(a),2236,5,Ba8Ga16Ge30,500,,-0.00013876,,,,,
10094,10.1063/1.2163979,1401,2(a),2236,5,Ba8Ga16Ge30,550,,-0.00014906,,,,,
10094,10.1063/1.2163979,1401,2(a),2236,5,Ba8Ga16Ge30,600,,-0.00016154,,,,,
10094,10.1063/1.2163979,1401,2(a),2236,5,Ba8Ga16Ge30,650,,-0.00017802,,,,,
10094,10.1063/1.2163979,1401,2(a),2236,5,Ba8Ga16Ge30,700,,-0.00019861,,,,,
10094,10.1063/1.2163979,1401,2(a),2236,5,Ba8Ga16Ge30,750,,-0.00022181,,,,,
10094,10.1063/1.2163979,1401,2(a),2236,5,Ba8Ga16Ge30,800,,-0.00024459,,,,,
10094,10.1063/1.2163979,1401,2(a),2236,5,Ba8Ga16Ge30,850,,-0.0002624,,,,,
10094,10.1063/1.2163979,1401,2(a),2236,5,Ba8Ga16Ge30,900,,-0.00026929,,,,,
10094,10.1063/1.2163979,1401,2(a),2236,5,Ba8Ga16Ge30,950,,-0.00025798,,,,,
10094,10.1063/1.2163979,1401,2(a),2237,6,Ba8Ga16Ge30,300,,-0.000051755,,,,,
10094,10.1063/1.2163979,1401,2(a),2237,6,Ba8Ga16Ge30,350,,-0.000055493,,,,,
10094,10.1063/1.2163979,1401,2(a),2237,6,Ba8Ga16Ge30,400,,-0.00007575,,,,,
10094,10.1063/1.2163979,1401,2(a),2237,6,Ba8Ga16Ge30,450,,-0.000098363,,,,,
10094,10.1063/1.2163979,1401,2(a),2237,6,Ba8Ga16Ge30,500,,-0.00011747,,,,,
10094,10.1063/1.2163979,1401,2(a),2237,6,Ba8Ga16Ge30,550,,-0.00013297,,,,,
10094,10.1063/1.2163979,1401,2(a),2237,6,Ba8Ga16Ge30,600,,-0.00014803,,,,,
10094,10.1063/1.2163979,1401,2(a),2237,6,Ba8Ga16Ge30,650,,-0.00016656,,,,,
10094,10.1063/1.2163979,1401,2(a),2237,6,Ba8Ga16Ge30,700,,-0.00019066,,,,,
10094,10.1063/1.2163979,1401,2(a),2238,7,Ba8Ga16Ge30,500,,-0.000085129,,,,,
10094,10.1063/1.2163979,1401,2(a),2238,7,Ba8Ga16Ge30,550,,-0.000098716,,,,,
10094,10.1063/1.2163979,1401,2(a),2238,7,Ba8Ga16Ge30,600,,-0.00011721,,,,,
10094,10.1063/1.2163979,1401,2(a),2238,7,Ba8Ga16Ge30,650,,-0.00013779,,,,,
10094,10.1063/1.2163979,1401,2(a),2238,7,Ba8Ga16Ge30,700,,-0.00015637,,,,,
10094,10.1063/1.2163979,1401,2(a),2238,7,Ba8Ga16Ge30,750,,-0.00017008,,,,,
10094,10.1063/1.2163979,1401,2(a),2238,7,Ba8Ga16Ge30,800,,-0.00017998,,,,,
10094,10.1063/1.2163979,1401,2(a),2239,9,Ba8Ga16Ge30,400,,-0.000091037,,,,,
10094,10.1063/1.2163979,1401,2(a),2239,9,Ba8Ga16Ge30,450,,-0.000097994,,,,,
10094,10.1063/1.2163979,1401,2(a),2239,9,Ba8Ga16Ge30,500,,-0.000086068,,,,,
10094,10.1063/1.2163979,1401,2(a),2239,9,Ba8Ga16Ge30,550,,-0.00008293,,,,,
10094,10.1063/1.2163979,1401,2(a),2239,9,Ba8Ga16Ge30,600,,-0.000096949,,,,,
10094,10.1063/1.2163979,1401,2(a),2239,9,Ba8Ga16Ge30,650,,-0.0001237,,,,,
10094,10.1063/1.2163979,1401,2(a),2239,9,Ba8Ga16Ge30,700,,-0.00015249,,,,,
10094,10.1063/1.2163979,1401,2(a),2239,9,Ba8Ga16Ge30,750,,-0.00017283,,,,,
10094,10.1063/1.2163979,1401,2(a),2239,9,Ba8Ga16Ge30,800,,-0.00018096,,,,,
10094,10.1063/1.2163979,1401,2(a),2239,9,Ba8Ga16Ge30,850,,-0.00018637,,,,,
10094,10.1063/1.2163979,1401,2(a),2240,15,Ba8Ga16Ge30,550,97530,-0.000085567,1.5708,0.22451,0.0000102533,0.0007140865,0.0004546005
10094,10.1063/1.2163979,1401,2(a),2240,15,Ba8Ga16Ge30,600,89417,-0.000095208,1.5494,0.2894,0.0000111836,0.0008105261,0.0005231225
10094,10.1063/1.2163979,1401,2(a),2240,15,Ba8Ga16Ge30,650,82053,-0.00010478,1.5178,0.37278,0.0000121872,0.0009008474,0.0005935218
10094,10.1063/1.2163979,1401,2(a),2240,15,Ba8Ga16Ge30,700,75530,-0.00011605,1.4698,0.47619,0.0000132398,0.001017208,0.0006920724
10094,10.1063/1.2163979,1401,2(a),2240,15,Ba8Ga16Ge30,750,69965,-0.00012908,1.4044,0.59834,0.0000142929,0.0011657321,0.000830057
10094,10.1063/1.2163979,1401,2(a),2240,15,Ba8Ga16Ge30,800,65456,-0.00014281,1.3285,0.7344,0.0000152774,0.0013349552,0.001004859
10094,10.1063/1.2163979,1401,2(a),2240,15,Ba8Ga16Ge30,850,62058,-0.00015565,1.2594,0.87534,0.000016114,0.0015034744,0.0011938021
10094,10.1063/1.2163979,1401,2(a),2240,15,Ba8Ga16Ge30,900,59743,-0.00016614,1.2268,1.0073,0.0000167384,0.0016490561,0.0013441931
10094,10.1063/1.2163979,1401,2(a),2240,15,Ba8Ga16Ge30,950,58367,-0.00017351,1.2749,1.1106,0.000017133,0.0017571806,0.0013782889
10094,10.1063/1.2163979,1401,2(a),2240,15,Ba8Ga16Ge30,1000,57636,-0.00017829,,1.1596,0.0000173503,0.0018320942,
10094,10.1063/1.2163979,1401,2(a),2240,15,Ba8Ga16Ge30,1050,57076,-0.00018294,,,0.0000175205,0.001910165,
10094,10.1063/1.2163979,1402,2(b),2240,15,Ba8Ga16Ge30,350,138190,,1.7565,0.058899,0.0000072364,,
10094,10.1063/1.2163979,1402,2(b),2240,15,Ba8Ga16Ge30,400,126430,,1.677,0.097552,0.0000079095,,
10094,10.1063/1.2163979,1402,2(b),2240,15,Ba8Ga16Ge30,450,115930,,1.6243,0.13409,0.0000086259,,
10094,10.1063/1.2163979,1402,2(b),2240,15,Ba8Ga16Ge30,500,106350,,1.5922,0.17444,0.0000094029,,
10094,10.1063/1.2163979,1401,2(a),2241,16,Ba8Ga16Ge30,600,,-0.000096862,,,,,
10094,10.1063/1.2163979,1401,2(a),2241,16,Ba8Ga16Ge30,650,,-0.00010966,,,,,
10094,10.1063/1.2163979,1401,2(a),2241,16,Ba8Ga16Ge30,700,,-0.0001211,,,,,
10094,10.1063/1.2163979,1401,2(a),2241,16,Ba8Ga16Ge30,750,,-0.00013144,,,,,
10094,10.1063/1.2163979,1401,2(a),2241,16,Ba8Ga16Ge30,800,,-0.00014017,,,,,
10094,10.1063/1.2163979,1401,2(a),2241,16,Ba8Ga16Ge30,850,,-0.00014754,,,,,
10094,10.1063/1.2163979,1401,2(a),2241,16,Ba8Ga16Ge30,900,,-0.00015593,,,,,
10094,10.1063/1.2163979,1401,2(a),2241,16,Ba8Ga16Ge30,950,,-0.00017132,,,,,
10094,10.1063/1.2163979,1401,2(a),2242,18,Ba8Ga16Ge30,300,,-0.000048948,,,,,
10094,10.1063/1.2163979,1401,2(a),2242,18,Ba8Ga16Ge30,350,140410,-0.000060234,,0.09787,0.000007122,0.0005094264,
10094,10.1063/1.2163979,1401,2(a),2242,18,Ba8Ga16Ge30,400,129100,-0.000073274,,0.1701,0.0000077459,0.0006931481,
10094,10.1063/1.2163979,1401,2(a),2242,18,Ba8Ga16Ge30,450,119140,-0.000086712,,0.24683,0.0000083935,0.0008958102,
10094,10.1063/1.2163979,1401,2(a),2242,18,Ba8Ga16Ge30,500,109470,-0.000099769,,0.32402,0.0000091349,0.0010896483,
10094,10.1063/1.2163979,1401,2(a),2242,18,Ba8Ga16Ge30,550,99732,-0.00011211,,0.40429,0.0000100269,0.0012534968,
10094,10.1063/1.2163979,1401,2(a),2242,18,Ba8Ga16Ge30,600,90097,-0.00012373,,0.49407,0.0000110991,0.0013793051,
10094,10.1063/1.2163979,1401,2(a),2242,18,Ba8Ga16Ge30,650,81032,-0.00013483,,0.60071,0.0000123408,0.0014730912,
10094,10.1063/1.2163979,1401,2(a),2242,18,Ba8Ga16Ge30,700,73070,-0.00014567,,0.72959,0.0000136855,0.0015505271,
10094,10.1063/1.2163979,1401,2(a),2242,18,Ba8Ga16Ge30,750,66593,-0.00015647,,0.88126,0.0000150166,0.0016303872,
10094,10.1063/1.2163979,1401,2(a),2242,18,Ba8Ga16Ge30,800,61603,-0.00016729,,1.0485,0.000016233,0.0017240181,
10094,10.1063/1.2163979,1401,2(a),2242,18,Ba8Ga16Ge30,850,57499,-0.00017788,,1.2137,0.0000173916,0.0018193428,
10094,10.1063/1.2163979,1401,2(a),2234,1,Ba8Ga16Ge30,300,,-0.000043562,,,,,
10094,10.1063/1.2163979,1401,2(a),2234,1,Ba8Ga16Ge30,350,,-0.000053618,,,,,
10094,10.1063/1.2163979,1401,2(a),2234,1,Ba8Ga16Ge30,400,,-0.000063674,,,,,
10094,10.1063/1.2163979,1401,2(a),2234,1,Ba8Ga16Ge30,450,,-0.00007373,,,,,
10094,10.1063/1.2163979,1401,2(a),2234,1,Ba8Ga16Ge30,500,,-0.000083786,,,,,
10094,10.1063/1.2163979,1401,2(a),2234,1,Ba8Ga16Ge30,550,,-0.000093843,,,,,
10094,10.1063/1.2163979,1401,2(a),2234,1,Ba8Ga16Ge30,600,,-0.0001039,,,,,
10094,10.1063/1.2163979,1401,2(a),2234,1,Ba8Ga16Ge30,650,,-0.00011395,,,,,
10094,10.1063/1.2163979,1401,2(a),2234,1,Ba8Ga16Ge30,700,,-0.00012401,,,,,
10094,10.1063/1.2163979,1401,2(a),2234,1,Ba8Ga16Ge30,750,,-0.00013407,,,,,
10094,10.1063/1.2163979,1401,2(a),2234,1,Ba8Ga16Ge30,800,,-0.00014412,,,,,