sid,DOI,figureid,fignum,sampleid,samplename,composition,Temperature,Carrier concentration,Carrier mobility,Doping level,Electrical conductivity,Electrical resistivity,Hall concentration,Hall movility,Lattice thermal conductivity,Power factor,Seebeck coefficient,Thermal conductivity,ZT,hall density,Figure of merit Z
4600,10.1039/c4cp00641k,7668,1(a),9324,y=0, Mg2(Si0.3Sn0.7),350,,,,1496.3,0.00066832,,,1.8421,0.00041469,-0.00040661,1.8484,0.084231,,0.0002243508
4600,10.1039/c4cp00641k,7668,1(a),9324,y=0, Mg2(Si0.3Sn0.7),400,,,,3460.4,0.00028898,,,1.9516,0.00039154,-0.0003683,1.9738,0.083204,,0.0001983686
4600,10.1039/c4cp00641k,7668,1(a),9324,y=0, Mg2(Si0.3Sn0.7),450,,,,5424.6,0.00018435,,,2.061,0.00036839,-0.00032999,2.0992,0.082178,,0.0001754907
4600,10.1039/c4cp00641k,7668,1(a),9324,y=0, Mg2(Si0.3Sn0.7),500,,,,7388.7,0.00013534,,,2.1705,0.00034524,-0.00029168,2.2247,0.081151,,0.000155185
4600,10.1039/c4cp00641k,7668,1(a),9324,y=0, Mg2(Si0.3Sn0.7),550,,,,9352.9,0.00010692,,,2.28,0.00032209,-0.00025336,2.3501,0.080124,,0.0001370537
4600,10.1039/c4cp00641k,7668,1(a),9324,y=0, Mg2(Si0.3Sn0.7),600,,,,11317,0.000088363,,,2.3894,0.00029895,-0.00021505,2.4755,0.079098,,0.0001207635
4600,10.1039/c4cp00641k,7668,1(a),9324,y=0, Mg2(Si0.3Sn0.7),650,,,,13281,0.000075296,,,2.4989,0.0002758,-0.00017674,2.6009,0.078071,,0.0001060402
4600,10.1039/c4cp00641k,7668,1(a),9324,y=0, Mg2(Si0.3Sn0.7),700,,,,15245,0.000065595,,,2.6084,0.00025265,-0.00013843,2.7263,0.077044,,0.0000926714
4600,10.1039/c4cp00641k,7668,1(a),9324,y=0, Mg2(Si0.3Sn0.7),750,,,,17209,0.000058109,,,2.7178,0.0002295,-0.00010012,2.8517,0.076017,,0.0000804783
4600,10.1039/c4cp00641k,7671,4(a),9324,y=0, Mg2(Si0.3Sn0.7),300,,,,,,,,,,,1.723,0.085258,2.8578e+25,
4600,10.1039/c4cp00641k,24879,2(a),9324,y=0, Mg2(Si0.3Sn0.7),100,,,,,,,0.0017967,,,,,,2.1141e+25,
4600,10.1039/c4cp00641k,24879,2(a),9324,y=0, Mg2(Si0.3Sn0.7),150,,,,,,,0.0041726,,,,,,2.3e+25,
4600,10.1039/c4cp00641k,24879,2(a),9324,y=0, Mg2(Si0.3Sn0.7),200,,,,,,,,,,,,,2.486e+25,
4600,10.1039/c4cp00641k,24879,2(a),9324,y=0, Mg2(Si0.3Sn0.7),250,,,,,,,,,,,,,2.6719e+25,
4600,10.1039/c4cp00641k,7668,1(a),9325,y=0.005,Mg2(Si0.3Sn0.7)0.995Bi0.005 ,350,,,,54410,0.000018379,,,1.7118,0.0030659,-0.00023767,2.004,0.59605,6.3613e+26,0.0015298902
4600,10.1039/c4cp00641k,7668,1(a),9325,y=0.005,Mg2(Si0.3Sn0.7)0.995Bi0.005 ,400,,,,51267,0.000019506,,,1.7225,0.0029732,-0.00024207,2.0091,0.627,6.4225e+26,0.0014798666
4600,10.1039/c4cp00641k,7668,1(a),9325,y=0.005,Mg2(Si0.3Sn0.7)0.995Bi0.005 ,450,,,,48124,0.00002078,,,1.7333,0.0028805,-0.00024648,2.0143,0.65795,6.4837e+26,0.0014300253
4600,10.1039/c4cp00641k,7668,1(a),9325,y=0.005,Mg2(Si0.3Sn0.7)0.995Bi0.005 ,500,,,,44981,0.000022232,,,1.744,0.0027879,-0.00025088,2.0194,0.6889,6.5449e+26,0.0013805586
4600,10.1039/c4cp00641k,7668,1(a),9325,y=0.005,Mg2(Si0.3Sn0.7)0.995Bi0.005 ,550,,,,41838,0.000023902,,,1.7548,0.0026952,-0.00025529,2.0245,0.71986,6.606e+26,0.0013312917
4600,10.1039/c4cp00641k,7668,1(a),9325,y=0.005,Mg2(Si0.3Sn0.7)0.995Bi0.005 ,600,,,,38695,0.000025843,,,1.7655,0.0026026,-0.00025969,2.0296,0.75081,6.6672e+26,0.0012823216
4600,10.1039/c4cp00641k,7668,1(a),9325,y=0.005,Mg2(Si0.3Sn0.7)0.995Bi0.005 ,650,,,,35551,0.000028129,,,1.7763,0.0025099,-0.00026409,2.0347,0.78176,6.7284e+26,0.0012335479
4600,10.1039/c4cp00641k,7668,1(a),9325,y=0.005,Mg2(Si0.3Sn0.7)0.995Bi0.005 ,700,,,,32408,0.000030857,,,1.787,0.0024173,-0.0002685,2.0399,0.81271,6.7896e+26,0.0011850091
4600,10.1039/c4cp00641k,7668,1(a),9325,y=0.005,Mg2(Si0.3Sn0.7)0.995Bi0.005 ,750,,,,29265,0.000034171,,,1.7978,0.0023246,-0.0002729,2.045,0.84367,6.8508e+26,0.0011367237
4600,10.1039/c4cp00641k,7669,1(b),9325,y=0.005,Mg2(Si0.3Sn0.7)0.995Bi0.005 ,300,,,,,,,,,0.0031585,-0.00023326,1.9989,0.47404,6.3001e+26,0.0015801191
4600,10.1039/c4cp00641k,24879,2(a),9325,y=0.005,Mg2(Si0.3Sn0.7)0.995Bi0.005 ,50,,,,,,,,,,,,,5.9942e+26,
4600,10.1039/c4cp00641k,24879,2(a),9325,y=0.005,Mg2(Si0.3Sn0.7)0.995Bi0.005 ,100,,,,,,,,,,,,,6.0554e+26,
4600,10.1039/c4cp00641k,24879,2(a),9325,y=0.005,Mg2(Si0.3Sn0.7)0.995Bi0.005 ,150,,,,,,,,,,,,,6.1166e+26,
4600,10.1039/c4cp00641k,24879,2(a),9325,y=0.005,Mg2(Si0.3Sn0.7)0.995Bi0.005 ,200,,,,,,,,,,,,,6.1778e+26,
4600,10.1039/c4cp00641k,24879,2(a),9325,y=0.005,Mg2(Si0.3Sn0.7)0.995Bi0.005 ,250,,,,,,,,,,,,,6.2389e+26,
4600,10.1039/c4cp00641k,7668,1(a),9326,y=0.010,Mg2(Si0.3Sn0.7)0.99Bi0.01,350,,,,144760,0.000006908,,0.0068388,1.69,0.0040884,-0.00016592,2.5785,0.5842,1.4432e+27,0.001585573
4600,10.1039/c4cp00641k,7668,1(a),9326,y=0.010,Mg2(Si0.3Sn0.7)0.99Bi0.01,400,,,,134490,0.0000074355,,0.0062176,1.6645,0.0040656,-0.00017481,2.5327,0.66865,1.4355e+27,0.0016052434
4600,10.1039/c4cp00641k,7668,1(a),9326,y=0.010,Mg2(Si0.3Sn0.7)0.99Bi0.01,450,,,,124210,0.0000080509,,0.0055963,1.6391,0.0040428,-0.00018371,2.4869,0.7531,1.4277e+27,0.0016256383
4600,10.1039/c4cp00641k,7668,1(a),9326,y=0.010,Mg2(Si0.3Sn0.7)0.99Bi0.01,500,,,,113930,0.0000087773,,0.0049751,1.6136,0.00402,-0.0001926,2.4411,0.83756,1.4199e+27,0.0016467986
4600,10.1039/c4cp00641k,7668,1(a),9326,y=0.010,Mg2(Si0.3Sn0.7)0.99Bi0.01,550,,,,103650,0.0000096479,,0.0043538,1.5881,0.0039972,-0.0002015,2.3954,0.92201,1.4122e+27,0.0016686983
4600,10.1039/c4cp00641k,7668,1(a),9326,y=0.010,Mg2(Si0.3Sn0.7)0.99Bi0.01,600,,,,93372,0.00001071,,0.0037326,1.5626,0.0039745,-0.0002104,2.3496,1.0065,1.4044e+27,0.0016915645
4600,10.1039/c4cp00641k,7668,1(a),9326,y=0.010,Mg2(Si0.3Sn0.7)0.99Bi0.01,650,,,,83094,0.000012035,,0.0031113,1.5371,0.0039517,-0.00021929,2.3038,1.0909,1.3967e+27,0.0017152965
4600,10.1039/c4cp00641k,7668,1(a),9326,y=0.010,Mg2(Si0.3Sn0.7)0.99Bi0.01,700,,,,72816,0.000013733,,0.0024901,1.5117,0.0039289,-0.00022819,2.258,1.1754,1.3889e+27,0.0017399911
4600,10.1039/c4cp00641k,7668,1(a),9326,y=0.010,Mg2(Si0.3Sn0.7)0.99Bi0.01,750,,,,62537,0.000015991,,0.0018688,1.4862,0.0039061,-0.00023708,2.2122,1.2598,1.3811e+27,0.0017657083
4600,10.1039/c4cp00641k,7669,1(b),9326,y=0.010,Mg2(Si0.3Sn0.7)0.99Bi0.01,300,,,,,,,0.0074601,,,-0.00015702,2.6243,,1.451e+27,
4600,10.1039/c4cp00641k,7670,3(a),9326,y=0.010,Mg2(Si0.3Sn0.7)0.99Bi0.01,800,,,,,,,,,0.0038833,,,1.3443,,
4600,10.1039/c4cp00641k,24879,2(a),9326,y=0.010,Mg2(Si0.3Sn0.7)0.99Bi0.01,50,,,,,,,0.010566,,,,,,1.4898e+27,
4600,10.1039/c4cp00641k,24879,2(a),9326,y=0.010,Mg2(Si0.3Sn0.7)0.99Bi0.01,100,,,,,,,0.0099451,,,,,,1.482e+27,
4600,10.1039/c4cp00641k,24879,2(a),9326,y=0.010,Mg2(Si0.3Sn0.7)0.99Bi0.01,150,,,,,,,0.0093238,,,,,,1.4743e+27,
4600,10.1039/c4cp00641k,24879,2(a),9326,y=0.010,Mg2(Si0.3Sn0.7)0.99Bi0.01,200,,,,,,,0.0087026,,,,,,1.4665e+27,
4600,10.1039/c4cp00641k,24879,2(a),9326,y=0.010,Mg2(Si0.3Sn0.7)0.99Bi0.01,250,,,,,,,0.0080813,,,,,,1.4587e+27,
4600,10.1039/c4cp00641k,7668,1(a),9327,y=0.015,Mg2(Si0.3Sn0.7)0.985Bi0.015,300,,,,191500,0.0000052219,,0.0075441,,0.0034973,-0.00013514,2.8063,0.41382,1.7874e+27,0.0012462317
4600,10.1039/c4cp00641k,7668,1(a),9327,y=0.015,Mg2(Si0.3Sn0.7)0.985Bi0.015,350,,,,179000,0.0000055866,,0.0069077,1.6337,0.0040451,-0.00014513,2.7546,0.51463,1.7853e+27,0.0014684891
4600,10.1039/c4cp00641k,7668,1(a),9327,y=0.015,Mg2(Si0.3Sn0.7)0.985Bi0.015,400,,,,166500,0.000006006,,0.0062714,1.6037,0.0040992,-0.00015512,2.7029,0.61543,1.7831e+27,0.0015165933
4600,10.1039/c4cp00641k,7668,1(a),9327,y=0.015,Mg2(Si0.3Sn0.7)0.985Bi0.015,450,,,,153990,0.0000064939,,0.005635,1.5736,0.0041532,-0.00016511,2.6513,0.71623,1.7809e+27,0.0015664768
4600,10.1039/c4cp00641k,7668,1(a),9327,y=0.015,Mg2(Si0.3Sn0.7)0.985Bi0.015,500,,,,141490,0.0000070676,,0.0049987,1.5436,0.0042073,-0.0001751,2.5996,0.81703,1.7788e+27,0.0016184413
4600,10.1039/c4cp00641k,7668,1(a),9327,y=0.015,Mg2(Si0.3Sn0.7)0.985Bi0.015,550,,,,128990,0.0000077525,,0.0043623,1.5136,0.0042614,-0.00018509,2.5479,0.91783,1.7766e+27,0.0016725146
4600,10.1039/c4cp00641k,7668,1(a),9327,y=0.015,Mg2(Si0.3Sn0.7)0.985Bi0.015,600,,,,116490,0.0000085844,,0.003726,1.4835,0.0043155,-0.00019508,2.4962,1.0186,1.7744e+27,0.0017288278
4600,10.1039/c4cp00641k,7668,1(a),9327,y=0.015,Mg2(Si0.3Sn0.7)0.985Bi0.015,650,,,,103990,0.0000096163,,0.0030897,1.4535,0.0043696,-0.00020507,2.4445,1.1194,1.7723e+27,0.001787523
4600,10.1039/c4cp00641k,7668,1(a),9327,y=0.015,Mg2(Si0.3Sn0.7)0.985Bi0.015,700,,,,91488,0.00001093,,0.0024533,1.4235,0.0044236,-0.00021506,2.3929,1.2202,1.7701e+27,0.0018486355
4600,10.1039/c4cp00641k,7668,1(a),9327,y=0.015,Mg2(Si0.3Sn0.7)0.985Bi0.015,750,,,,78986,0.00001266,,0.001817,1.3934,0.0044777,-0.00022505,2.3412,1.321,1.7679e+27,0.0019125662
4600,10.1039/c4cp00641k,7670,3(a),9327,y=0.015,Mg2(Si0.3Sn0.7)0.985Bi0.015,800,,,,,,,,,0.0045318,,,1.4218,,
4600,10.1039/c4cp00641k,24879,2(a),9327,y=0.015,Mg2(Si0.3Sn0.7)0.985Bi0.015,50,,,,,,,0.010726,,,,,,1.7982e+27,
4600,10.1039/c4cp00641k,24879,2(a),9327,y=0.015,Mg2(Si0.3Sn0.7)0.985Bi0.015,100,,,,,,,0.010089,,,,,,1.7961e+27,
4600,10.1039/c4cp00641k,24879,2(a),9327,y=0.015,Mg2(Si0.3Sn0.7)0.985Bi0.015,150,,,,,,,0.0094531,,,,,,1.7939e+27,
4600,10.1039/c4cp00641k,24879,2(a),9327,y=0.015,Mg2(Si0.3Sn0.7)0.985Bi0.015,200,,,,,,,0.0088167,,,,,,1.7918e+27,
4600,10.1039/c4cp00641k,24879,2(a),9327,y=0.015,Mg2(Si0.3Sn0.7)0.985Bi0.015,250,,,,,,,0.0081804,,,,,,1.7896e+27,
4600,10.1039/c4cp00641k,7668,1(a),9328,x=0.020,Mg2(Si0.3Sn0.7)0.98Bi0.02,350,,,,203150,0.0000049225,,0.0069169,1.6106,0.0038931,-0.00013677,3.0086,0.46589,2.069e+27,0.0012939906
4600,10.1039/c4cp00641k,7668,1(a),9328,x=0.020,Mg2(Si0.3Sn0.7)0.98Bi0.02,400,,,,188880,0.0000052944,,0.006263,1.5667,0.0039441,-0.00014581,2.9429,0.56114,2.0588e+27,0.0013402086
4600,10.1039/c4cp00641k,7668,1(a),9328,x=0.020,Mg2(Si0.3Sn0.7)0.98Bi0.02,450,,,,174610,0.000005727,,0.0056091,1.5229,0.0039951,-0.00015484,2.8772,0.65639,2.0486e+27,0.0013885375
4600,10.1039/c4cp00641k,7668,1(a),9328,x=0.020,Mg2(Si0.3Sn0.7)0.98Bi0.02,500,,,,160340,0.0000062367,,0.0049551,1.479,0.0040461,-0.00016388,2.8116,0.75163,2.0384e+27,0.0014390738
4600,10.1039/c4cp00641k,7668,1(a),9328,x=0.020,Mg2(Si0.3Sn0.7)0.98Bi0.02,550,,,,146070,0.000006846,,0.0043012,1.4352,0.0040971,-0.00017292,2.7459,0.84688,2.0282e+27,0.0014920791
4600,10.1039/c4cp00641k,7668,1(a),9328,x=0.020,Mg2(Si0.3Sn0.7)0.98Bi0.02,600,,,,131800,0.0000075873,,0.0036473,1.3913,0.0041481,-0.00018196,2.6802,0.94213,2.018e+27,0.001547683
4600,10.1039/c4cp00641k,7668,1(a),9328,x=0.020,Mg2(Si0.3Sn0.7)0.98Bi0.02,650,,,,117530,0.0000085085,,0.0029933,1.3474,0.0041991,-0.000191,2.6146,1.0374,2.0078e+27,0.00160602
4600,10.1039/c4cp00641k,7668,1(a),9328,x=0.020,Mg2(Si0.3Sn0.7)0.98Bi0.02,700,,,,103260,0.0000096843,,0.0023394,1.3036,0.0042501,-0.00020004,2.5489,1.1326,1.9976e+27,0.0016674252
4600,10.1039/c4cp00641k,7668,1(a),9328,x=0.020,Mg2(Si0.3Sn0.7)0.98Bi0.02,750,,,,88986,0.000011238,,0.0016855,1.2597,0.0043011,-0.00020907,2.4832,1.2279,1.9875e+27,0.0017320796
4600,10.1039/c4cp00641k,7669,1(b),9328,x=0.020,Mg2(Si0.3Sn0.7)0.98Bi0.02,800,,,,,,,,,,-0.00021811,,1.3231,,
4600,10.1039/c4cp00641k,7671,4(a),9328,x=0.020,Mg2(Si0.3Sn0.7)0.98Bi0.02,300,,,,,,,0.0075709,,,,3.0742,,2.0792e+27,
4600,10.1039/c4cp00641k,24879,2(a),9328,x=0.020,Mg2(Si0.3Sn0.7)0.98Bi0.02,50,,,,,,,0.010841,,,,,,2.1302e+27,
4600,10.1039/c4cp00641k,24879,2(a),9328,x=0.020,Mg2(Si0.3Sn0.7)0.98Bi0.02,100,,,,,,,0.010187,,,,,,2.12e+27,
4600,10.1039/c4cp00641k,24879,2(a),9328,x=0.020,Mg2(Si0.3Sn0.7)0.98Bi0.02,150,,,,,,,0.0095327,,,,,,2.1098e+27,
4600,10.1039/c4cp00641k,24879,2(a),9328,x=0.020,Mg2(Si0.3Sn0.7)0.98Bi0.02,200,,,,,,,0.0088787,,,,,,2.0996e+27,
4600,10.1039/c4cp00641k,24879,2(a),9328,x=0.020,Mg2(Si0.3Sn0.7)0.98Bi0.02,250,,,,,,,0.0082248,,,,,,2.0894e+27,
4600,10.1039/c4cp00641k,7668,1(a),9329,x=0.025,Mg2(Si0.3Sn0.7)0.975Bi0.025,350,,,,222910,0.0000044861,,0.0062801,1.6133,0.0039053,-0.0001272,3.0697,0.44864,2.4131e+27,0.001272209
4600,10.1039/c4cp00641k,7668,1(a),9329,x=0.025,Mg2(Si0.3Sn0.7)0.975Bi0.025,400,,,,207260,0.0000048249,,0.0057208,1.5757,0.0039884,-0.00013974,3.0032,0.55168,2.3967e+27,0.0013280501
4600,10.1039/c4cp00641k,7668,1(a),9329,x=0.025,Mg2(Si0.3Sn0.7)0.975Bi0.025,450,,,,191610,0.0000052189,,0.0051616,1.5381,0.0040716,-0.0001512,2.9368,0.65472,2.3804e+27,0.001386407
4600,10.1039/c4cp00641k,7668,1(a),9329,x=0.025,Mg2(Si0.3Sn0.7)0.975Bi0.025,500,,,,175960,0.0000056831,,0.0046024,1.5005,0.0041547,-0.00016183,2.8704,0.75776,2.364e+27,0.0014474289
4600,10.1039/c4cp00641k,7668,1(a),9329,x=0.025,Mg2(Si0.3Sn0.7)0.975Bi0.025,550,,,,160310,0.0000062379,,0.0040431,1.4629,0.0042379,-0.00017182,2.804,0.8608,2.3476e+27,0.0015113766
4600,10.1039/c4cp00641k,7668,1(a),9329,x=0.025,Mg2(Si0.3Sn0.7)0.975Bi0.025,600,,,,144660,0.0000069128,,0.0034839,1.4253,0.0043211,-0.00018124,2.7375,0.96384,2.3313e+27,0.001578484
4600,10.1039/c4cp00641k,7668,1(a),9329,x=0.025,Mg2(Si0.3Sn0.7)0.975Bi0.025,650,,,,129010,0.0000077513,,0.0029246,1.3878,0.0044042,-0.00019004,2.6711,1.0669,2.3149e+27,0.0016488338
4600,10.1039/c4cp00641k,7668,1(a),9329,x=0.025,Mg2(Si0.3Sn0.7)0.975Bi0.025,700,,,,113360,0.0000088215,,0.0023654,1.3502,0.0044874,-0.00019808,2.6047,1.1699,2.2985e+27,0.0017228088
4600,10.1039/c4cp00641k,7668,1(a),9329,x=0.025,Mg2(Si0.3Sn0.7)0.975Bi0.025,750,,,,97704,0.000010235,,0.0018061,1.3126,0.0045706,-0.00020511,2.5382,1.273,2.2822e+27,0.0018007249
4600,10.1039/c4cp00641k,7668,1(a),9329,x=0.025,Mg2(Si0.3Sn0.7)0.975Bi0.025,800,,,,82053,0.000012187,,,,0.0046537,,,1.376,,
4600,10.1039/c4cp00641k,7669,1(b),9329,x=0.025,Mg2(Si0.3Sn0.7)0.975Bi0.025,300,,,,,,,0.0068393,,,-0.00011317,3.1361,0.3456,2.4295e+27,
4600,10.1039/c4cp00641k,24879,2(a),9329,x=0.025,Mg2(Si0.3Sn0.7)0.975Bi0.025,50,,,,,,,0.0096356,,,,,,2.5113e+27,
4600,10.1039/c4cp00641k,24879,2(a),9329,x=0.025,Mg2(Si0.3Sn0.7)0.975Bi0.025,100,,,,,,,0.0090763,,,,,,2.4949e+27,
4600,10.1039/c4cp00641k,24879,2(a),9329,x=0.025,Mg2(Si0.3Sn0.7)0.975Bi0.025,150,,,,,,,0.0085171,,,,,,2.4786e+27,
4600,10.1039/c4cp00641k,24879,2(a),9329,x=0.025,Mg2(Si0.3Sn0.7)0.975Bi0.025,200,,,,,,,0.0079578,,,,,,2.4622e+27,
4600,10.1039/c4cp00641k,24879,2(a),9329,x=0.025,Mg2(Si0.3Sn0.7)0.975Bi0.025,250,,,,,,,0.0073986,,,,,,2.4458e+27,
4600,10.1039/c4cp00641k,7668,1(a),9330,x=0.030,Mg2(Si0.3Sn0.7)0.97Bi0.03,350,,,,232900,0.0000042937,,0.0066342,1.6765,0.0040273,-0.00012629,3.196,0.44144,2.4433e+27,0.0012601064
4600,10.1039/c4cp00641k,7668,1(a),9330,x=0.030,Mg2(Si0.3Sn0.7)0.97Bi0.03,400,,,,216580,0.0000046172,,0.0060243,1.6307,0.0041087,-0.00013763,3.1258,0.54226,2.4445e+27,0.0013144475
4600,10.1039/c4cp00641k,7668,1(a),9330,x=0.030,Mg2(Si0.3Sn0.7)0.97Bi0.03,450,,,,200260,0.0000049935,,0.0054143,1.5849,0.0041901,-0.00014858,3.0556,0.64308,2.4457e+27,0.0013712855
4600,10.1039/c4cp00641k,7668,1(a),9330,x=0.030,Mg2(Si0.3Sn0.7)0.97Bi0.03,500,,,,183950,0.0000054363,,0.0048043,1.5391,0.0042715,-0.00015945,2.9855,0.74391,2.4469e+27,0.0014307486
4600,10.1039/c4cp00641k,7668,1(a),9330,x=0.030,Mg2(Si0.3Sn0.7)0.97Bi0.03,550,,,,167630,0.0000059655,,0.0041944,1.4933,0.004353,-0.00017008,2.9153,0.84473,2.448e+27,0.0014931568
4600,10.1039/c4cp00641k,7668,1(a),9330,x=0.030,Mg2(Si0.3Sn0.7)0.97Bi0.03,600,,,,151310,0.0000066089,,0.0035844,1.4475,0.0044344,-0.00018012,2.8451,0.94555,2.4492e+27,0.0015586095
4600,10.1039/c4cp00641k,7668,1(a),9330,x=0.030,Mg2(Si0.3Sn0.7)0.97Bi0.03,650,,,,134990,0.000007408,,0.0029744,1.4017,0.0045158,-0.00018918,2.7749,1.0464,2.4504e+27,0.001627374
4600,10.1039/c4cp00641k,7668,1(a),9330,x=0.030,Mg2(Si0.3Sn0.7)0.97Bi0.03,700,,,,118670,0.0000084267,,0.0023644,1.3559,0.0045972,-0.00019706,2.7047,1.1472,2.4516e+27,0.0016997079
4600,10.1039/c4cp00641k,7668,1(a),9330,x=0.030,Mg2(Si0.3Sn0.7)0.97Bi0.03,750,,,,102360,0.0000097694,,0.0017545,1.3102,0.0046787,-0.00020399,2.6346,1.248,2.4528e+27,0.0017758673
4600,10.1039/c4cp00641k,7669,1(b),9330,x=0.030,Mg2(Si0.3Sn0.7)0.97Bi0.03,300,,,,,,,0.0072442,,,-0.00011364,3.2662,0.34062,2.4421e+27,
4600,10.1039/c4cp00641k,7672,4(c),9330,x=0.030,Mg2(Si0.3Sn0.7)0.97Bi0.03,800,,,,,,,,,,,,1.3488,,
4600,10.1039/c4cp00641k,24879,2(a),9330,x=0.030,Mg2(Si0.3Sn0.7)0.97Bi0.03,50,,,,,,,0.010294,,,,,,2.4362e+27,
4600,10.1039/c4cp00641k,24879,2(a),9330,x=0.030,Mg2(Si0.3Sn0.7)0.97Bi0.03,100,,,,,,,0.0096841,,,,,,2.4374e+27,
4600,10.1039/c4cp00641k,24879,2(a),9330,x=0.030,Mg2(Si0.3Sn0.7)0.97Bi0.03,150,,,,,,,0.0090741,,,,,,2.4386e+27,
4600,10.1039/c4cp00641k,24879,2(a),9330,x=0.030,Mg2(Si0.3Sn0.7)0.97Bi0.03,200,,,,,,,0.0084641,,,,,,2.4398e+27,
4600,10.1039/c4cp00641k,24879,2(a),9330,x=0.030,Mg2(Si0.3Sn0.7)0.97Bi0.03,250,,,,,,,0.0078542,,,,,,2.441e+27,
4600,10.1039/c4cp00641k,7668,1(a),9331,x=0.04,Mg2(Si0.3Sn0.7)0.96Bi0.04,350,,,,242760,0.0000041193,,0.0056653,1.5741,0.0035095,-0.00011678,3.1707,0.37694,2.8563e+27,0.0011068534
4600,10.1039/c4cp00641k,7668,1(a),9331,x=0.04,Mg2(Si0.3Sn0.7)0.96Bi0.04,400,,,,225710,0.0000044305,,0.0051767,1.5419,0.0036242,-0.00012921,3.1112,0.47545,2.845e+27,0.0011648881
4600,10.1039/c4cp00641k,7668,1(a),9331,x=0.04,Mg2(Si0.3Sn0.7)0.96Bi0.04,450,,,,208670,0.0000047923,,0.0046881,1.5097,0.0037389,-0.00014077,3.0517,0.57396,2.8338e+27,0.001225186
4600,10.1039/c4cp00641k,7668,1(a),9331,x=0.04,Mg2(Si0.3Sn0.7)0.96Bi0.04,500,,,,191630,0.0000052184,,0.0041995,1.4775,0.0038536,-0.00015144,2.9922,0.67248,2.8225e+27,0.0012878818
4600,10.1039/c4cp00641k,7668,1(a),9331,x=0.04,Mg2(Si0.3Sn0.7)0.96Bi0.04,550,,,,174590,0.0000057277,,0.0037109,1.4453,0.0039683,-0.00016122,2.9327,0.77099,2.8113e+27,0.0013531217
4600,10.1039/c4cp00641k,7668,1(a),9331,x=0.04,Mg2(Si0.3Sn0.7)0.96Bi0.04,600,,,,157540,0.0000063476,,0.0032223,1.4131,0.004083,-0.00017013,2.8732,0.8695,2.8e+27,0.0014210636
4600,10.1039/c4cp00641k,7668,1(a),9331,x=0.04,Mg2(Si0.3Sn0.7)0.96Bi0.04,650,,,,140500,0.0000071174,,0.0027336,1.3809,0.0041977,-0.00017815,2.8138,0.96802,2.7888e+27,0.001491826
4600,10.1039/c4cp00641k,7668,1(a),9331,x=0.04,Mg2(Si0.3Sn0.7)0.96Bi0.04,700,,,,123460,0.0000080998,,0.002245,1.3487,0.0043124,-0.00018529,2.7543,1.0665,2.7775e+27,0.0015656973
4600,10.1039/c4cp00641k,7668,1(a),9331,x=0.04,Mg2(Si0.3Sn0.7)0.96Bi0.04,750,,,,106410,0.0000093976,,0.0017564,1.3165,0.0044271,-0.00019154,2.6948,1.165,2.7663e+27,0.0016428306
4600,10.1039/c4cp00641k,7670,3(a),9331,x=0.04,Mg2(Si0.3Sn0.7)0.96Bi0.04,800,,,,,,,,,0.0045418,,,,,
4600,10.1039/c4cp00641k,7671,4(a),9331,x=0.04,Mg2(Si0.3Sn0.7)0.96Bi0.04,300,,,,,,,0.0061539,,,,3.2301,,2.8676e+27,
4600,10.1039/c4cp00641k,24879,2(a),9331,x=0.04,Mg2(Si0.3Sn0.7)0.96Bi0.04,50,,,,,,,0.0085969,,,,,,2.9238e+27,
4600,10.1039/c4cp00641k,24879,2(a),9331,x=0.04,Mg2(Si0.3Sn0.7)0.96Bi0.04,100,,,,,,,0.0081083,,,,,,2.9126e+27,
4600,10.1039/c4cp00641k,24879,2(a),9331,x=0.04,Mg2(Si0.3Sn0.7)0.96Bi0.04,150,,,,,,,0.0076197,,,,,,2.9013e+27,
4600,10.1039/c4cp00641k,24879,2(a),9331,x=0.04,Mg2(Si0.3Sn0.7)0.96Bi0.04,200,,,,,,,0.0071311,,,,,,2.8901e+27,
4600,10.1039/c4cp00641k,24879,2(a),9331,x=0.04,Mg2(Si0.3Sn0.7)0.96Bi0.04,250,,,,,,,0.0066425,,,,,,2.8788e+27,
4907,10.1103/physrevlett.108.166601,7694,1(a),9366,x=0.2,Mg2Si0.8Sn0.2,350,,,,,,,,,0.0018264,-0.000092871,,0.15036,,
4907,10.1103/physrevlett.108.166601,7694,1(a),9366,x=0.2,Mg2Si0.8Sn0.2,400,,,,,,,,,0.0019711,-0.00010251,,0.22474,,
4907,10.1103/physrevlett.108.166601,7694,1(a),9366,x=0.2,Mg2Si0.8Sn0.2,450,,,,,,,,,0.0021158,-0.00011231,,0.29911,,
4907,10.1103/physrevlett.108.166601,7694,1(a),9366,x=0.2,Mg2Si0.8Sn0.2,500,,,,,,,,,0.0022606,-0.00012227,,0.37349,,
4907,10.1103/physrevlett.108.166601,7694,1(a),9366,x=0.2,Mg2Si0.8Sn0.2,550,,,,,,,,,0.0024053,-0.00013238,,0.44787,,
4907,10.1103/physrevlett.108.166601,7694,1(a),9366,x=0.2,Mg2Si0.8Sn0.2,600,,,,,,,,,0.00255,-0.00014265,,0.52224,,
4907,10.1103/physrevlett.108.166601,7694,1(a),9366,x=0.2,Mg2Si0.8Sn0.2,650,,,,,,,,,0.0026947,-0.00015307,,0.59662,,
4907,10.1103/physrevlett.108.166601,7694,1(a),9366,x=0.2,Mg2Si0.8Sn0.2,700,,,,,,,,,0.0028395,-0.00016365,,0.671,,
4907,10.1103/physrevlett.108.166601,7694,1(a),9366,x=0.2,Mg2Si0.8Sn0.2,750,,,,,,,,,0.0029842,-0.00017438,,0.74538,,
4907,10.1103/physrevlett.108.166601,7697,1(b),9366,x=0.2,Mg2Si0.8Sn0.2,300,,,,,,,,,0.0016816,,,0.075982,,
4907,10.1103/physrevlett.108.166601,7697,1(b),9366,x=0.2,Mg2Si0.8Sn0.2,800,,,,,,,,,0.0031289,,,0.81975,,