sid,DOI,figureid,fignum,sampleid,samplename,composition,Temperature,Inverse temperature,Electrical conductivity,Electrical resistivity,Lattice thermal conductivity,Power factor,Seebeck coefficient,Thermal conductivity,ZT,electron thermal conductivity,Figure of merit Z
27947,10.1016/j.actamat.2017.10.015,25465,Figure 2A,31714,Mg(3-x-0.0125)ZnxNa0.0125Sb2_ x=0.9,undefined,650,0.0015385,32418,0.000030847,,0.00087895,0.00016466,0.93926,1.5563,,0.0009357899
27947,10.1016/j.actamat.2017.10.015,25465,Figure 2A,31714,Mg(3-x-0.0125)ZnxNa0.0125Sb2_ x=0.9,undefined,700,0.0014286,28883,0.000034622,,0.00086804,0.00017336,0.90806,1.6368,,0.000955928
27947,10.1016/j.actamat.2017.10.015,25465,Figure 2A,31714,Mg(3-x-0.0125)ZnxNa0.0125Sb2_ x=0.9,undefined,750,0.0013333,25348,0.000039451,,0.00084018,0.00018206,0.87685,1.7173,,0.0009581798
27947,10.1016/j.actamat.2017.10.015,25465,Figure 2A,31715,Mg(3-x-0.0125)ZnxNa0.0125Sb2_ x=1.2,undefined,350,0.0028571,63597,0.000015724,,0.00084708,0.00011541,1.1129,1.1456,,0.0007611466
27947,10.1016/j.actamat.2017.10.015,25465,Figure 2A,31715,Mg(3-x-0.0125)ZnxNa0.0125Sb2_ x=1.2,undefined,400,0.0025,60215,0.000016607,,0.00086594,0.00011992,1.131,1.1848,,0.000765641
27947,10.1016/j.actamat.2017.10.015,25465,Figure 2A,31715,Mg(3-x-0.0125)ZnxNa0.0125Sb2_ x=1.2,undefined,450,0.0022222,56834,0.000017595,,0.00087995,0.00012443,1.1491,1.224,,0.0007657732
27947,10.1016/j.actamat.2017.10.015,25465,Figure 2A,31715,Mg(3-x-0.0125)ZnxNa0.0125Sb2_ x=1.2,undefined,500,0.002,53452,0.000018708,,0.00088867,0.00012894,1.1671,1.2633,,0.0007614343
27947,10.1016/j.actamat.2017.10.015,25465,Figure 2A,31715,Mg(3-x-0.0125)ZnxNa0.0125Sb2_ x=1.2,undefined,550,0.0018182,50070,0.000019972,,0.00089169,0.00013345,1.1852,1.3025,,0.000752354
27947,10.1016/j.actamat.2017.10.015,25465,Figure 2A,31715,Mg(3-x-0.0125)ZnxNa0.0125Sb2_ x=1.2,undefined,600,0.0016667,46689,0.000021418,,0.00088863,0.00013796,1.2032,1.3417,,0.0007385555
27947,10.1016/j.actamat.2017.10.015,25465,Figure 2A,31715,Mg(3-x-0.0125)ZnxNa0.0125Sb2_ x=1.2,undefined,650,0.0015385,43307,0.000023091,,0.00087903,0.00014247,1.2213,1.3809,,0.0007197494
27947,10.1016/j.actamat.2017.10.015,25465,Figure 2A,31715,Mg(3-x-0.0125)ZnxNa0.0125Sb2_ x=1.2,undefined,700,0.0014286,39925,0.000025047,,0.0008625,0.00014698,1.2394,1.4202,,0.0006959012
27947,10.1016/j.actamat.2017.10.015,25465,Figure 2A,31715,Mg(3-x-0.0125)ZnxNa0.0125Sb2_ x=1.2,undefined,750,0.0013333,36543,0.000027365,,0.00083863,0.00015149,1.2574,1.4594,,0.0006669556