sid,DOI,figureid,fignum,sampleid,samplename,composition,Temperature,Inverse temperature,Electrical conductivity,Electrical resistivity,Lattice thermal conductivity,Power factor,Seebeck coefficient,Thermal conductivity,ZT,electron thermal conductivity,Figure of merit Z
71,10.1016/j.actamat.2015.01.018,4580,3(a),5851,MgAg0.97Sb0.99,MgAg0.97Sb0.99,350,0.0028571,25859,0.000038671,0.60256,0.0018472,0.00026612,0.74294,0.87649,,0.0024863381
71,10.1016/j.actamat.2015.01.018,4580,3(a),5851,MgAg0.97Sb0.99,MgAg0.97Sb0.99,400,0.0025,29463,0.000033941,,0.0019327,0.00025292,0.80017,0.96657,,0.0024153617
71,10.1016/j.actamat.2015.01.018,4580,3(a),5851,MgAg0.97Sb0.99,MgAg0.97Sb0.99,450,0.0022222,34235,0.00002921,,0.002019,0.00023973,0.8574,1.0566,,0.0023547936
71,10.1016/j.actamat.2015.01.018,4580,3(a),5851,MgAg0.97Sb0.99,MgAg0.97Sb0.99,500,0.002,40850,0.00002448,,0.0021061,0.00022653,0.91462,1.1467,,0.0023027049
71,10.1016/j.actamat.2015.01.018,4581,3(b),5851,MgAg0.97Sb0.99,MgAg0.97Sb0.99,550,0.0018182,,,,,0.00021334,,,,
71,10.1016/j.actamat.2015.01.018,4583,3(d),5851,MgAg0.97Sb0.99,MgAg0.97Sb0.99,300,0.0033333,,,,,,0.68572,,,
71,10.1016/j.actamat.2015.01.018,4580,3(a),5852,MgAg0.967Cu0.003Sb0.99,MgAg0.967Cu0.003Sb0.99,350,0.0028571,29517,0.000033879,0.56663,0.0021099,0.00025951,0.72192,0.97469,,0.002922623
71,10.1016/j.actamat.2015.01.018,4580,3(a),5852,MgAg0.967Cu0.003Sb0.99,MgAg0.967Cu0.003Sb0.99,400,0.0025,31682,0.000031564,,0.0021656,0.00024762,0.77965,1.0589,,0.0027776566
71,10.1016/j.actamat.2015.01.018,4580,3(a),5852,MgAg0.967Cu0.003Sb0.99,MgAg0.967Cu0.003Sb0.99,450,0.0022222,35787,0.000027943,,0.0022212,0.00023573,0.83739,1.1432,,0.0026525275
71,10.1016/j.actamat.2015.01.018,4580,3(a),5852,MgAg0.967Cu0.003Sb0.99,MgAg0.967Cu0.003Sb0.99,500,0.002,43448,0.000023016,,0.0022769,0.00022384,0.89512,1.2274,,0.0025436813
71,10.1016/j.actamat.2015.01.018,4583,3(d),5852,MgAg0.967Cu0.003Sb0.99,MgAg0.967Cu0.003Sb0.99,300,0.0033333,,,,,,0.66419,,,
71,10.1016/j.actamat.2015.01.018,4580,3(a),5853,MgAg0.963Cu0.007Sb0.99,MgAg0.963Cu0.007Sb0.99,350,0.0028571,34875,0.000028674,0.52296,0.0020093,0.00024503,0.70425,1.0422,,0.0028531061
71,10.1016/j.actamat.2015.01.018,4580,3(a),5853,MgAg0.963Cu0.007Sb0.99,MgAg0.963Cu0.007Sb0.99,400,0.0025,38165,0.000026202,,0.0020726,0.00023618,0.76107,1.1265,,0.0027232712
71,10.1016/j.actamat.2015.01.018,4580,3(a),5853,MgAg0.963Cu0.007Sb0.99,MgAg0.963Cu0.007Sb0.99,450,0.0022222,42141,0.00002373,,0.002136,0.00022733,0.81789,1.2109,,0.0026115981
71,10.1016/j.actamat.2015.01.018,4580,3(a),5853,MgAg0.963Cu0.007Sb0.99,MgAg0.963Cu0.007Sb0.99,500,0.002,47041,0.000021258,,0.0021994,0.00021848,0.8747,1.2952,,0.0025144621
71,10.1016/j.actamat.2015.01.018,4583,3(d),5853,MgAg0.963Cu0.007Sb0.99,MgAg0.963Cu0.007Sb0.99,300,0.0033333,,,,,,0.64744,,,
71,10.1016/j.actamat.2015.01.018,4580,3(a),5854,MgAg0.96Cu0.01Sb0.99,MgAg0.96Cu0.01Sb0.99,350,0.0028571,28236,0.000035416,0.54152,0.0019115,0.00026006,0.69415,0.9686,,0.0027537276
71,10.1016/j.actamat.2015.01.018,4580,3(a),5854,MgAg0.96Cu0.01Sb0.99,MgAg0.96Cu0.01Sb0.99,400,0.0025,31759,0.000031487,,0.001995,0.00024846,0.74817,1.066,,0.0026665063
71,10.1016/j.actamat.2015.01.018,4580,3(a),5854,MgAg0.96Cu0.01Sb0.99,MgAg0.96Cu0.01Sb0.99,450,0.0022222,36286,0.000027559,,0.0020786,0.00023685,0.80218,1.1633,,0.002591189
71,10.1016/j.actamat.2015.01.018,4580,3(a),5854,MgAg0.96Cu0.01Sb0.99,MgAg0.96Cu0.01Sb0.99,500,0.002,42319,0.00002363,,0.0021621,0.00022525,0.8562,1.2607,,0.0025252278
71,10.1016/j.actamat.2015.01.018,4583,3(d),5854,MgAg0.96Cu0.01Sb0.99,MgAg0.96Cu0.01Sb0.99,300,0.0033333,,,,,,0.64013,,,
71,10.1016/j.actamat.2015.01.018,4586,6(a),5855,parallel,MgAg0.97Sb0.99,350,0.0028571,24729,0.000040438,,0.001814,0.00026966,0.76174,0.85941,,0.00238139
71,10.1016/j.actamat.2015.01.018,4586,6(a),5855,parallel,MgAg0.97Sb0.99,400,0.0025,27212,0.000036748,,0.0018914,0.00025604,0.81514,0.9458,,0.0023203376
71,10.1016/j.actamat.2015.01.018,4586,6(a),5855,parallel,MgAg0.97Sb0.99,450,0.0022222,31353,0.000031895,,0.0019688,0.00024243,0.86853,1.0322,,0.0022668186
71,10.1016/j.actamat.2015.01.018,4586,6(a),5855,parallel,MgAg0.97Sb0.99,500,0.002,38641,0.000025879,,0.0020462,0.00022881,0.92193,1.1186,,0.0022194744
71,10.1016/j.actamat.2015.01.018,4589,6(d),5855,parallel,MgAg0.97Sb0.99,300,0.0033333,,,,,,0.70835,,,
71,10.1016/j.actamat.2015.01.018,4586,6(a),5856,perpendicular,MgAg0.97Sb0.99,350,0.0028571,25932,0.000038563,,0.0018101,0.00025519,0.74097,0.82749,,0.0024428789
71,10.1016/j.actamat.2015.01.018,4586,6(a),5856,perpendicular,MgAg0.97Sb0.99,400,0.0025,27072,0.000036939,,0.0018727,0.0002468,0.79847,0.91062,,0.0023453605
71,10.1016/j.actamat.2015.01.018,4586,6(a),5856,perpendicular,MgAg0.97Sb0.99,450,0.0022222,32671,0.000030608,,0.0019354,0.00023842,0.85596,0.99376,,0.002261087
71,10.1016/j.actamat.2015.01.018,4586,6(a),5856,perpendicular,MgAg0.97Sb0.99,500,0.002,41151,0.000024301,,0.001998,0.00023003,0.91345,1.0769,,0.0021873118
71,10.1016/j.actamat.2015.01.018,4589,6(d),5856,perpendicular,MgAg0.97Sb0.99,300,0.0033333,,,,,,0.68348,,,
73,10.1016/j.actamat.2015.04.023,4591,3(a),5857,x=0,Mg3Sb2,350,0.0028571,2.8034,0.35671,,-0.000008549,0.00084573,1.2145,-0.015098,,-0.0000070391
73,10.1016/j.actamat.2015.04.023,4591,3(a),5857,x=0,Mg3Sb2,400,0.0025,3.4175,0.29261,,0.000023926,0.00077677,1.1512,0.015256,,0.0000207835
73,10.1016/j.actamat.2015.04.023,4591,3(a),5857,x=0,Mg3Sb2,450,0.0022222,4.3764,0.2285,,0.000056401,0.00070781,1.088,0.045609,,0.0000518392
73,10.1016/j.actamat.2015.04.023,4591,3(a),5857,x=0,Mg3Sb2,500,0.002,6.0827,0.1644,,0.000088875,0.00063885,1.0247,0.075962,,0.0000867327
73,10.1016/j.actamat.2015.04.023,4591,3(a),5857,x=0,Mg3Sb2,550,0.0018182,9.9711,0.10029,,0.00012135,0.0005699,0.96145,0.10632,,0.0001262156
73,10.1016/j.actamat.2015.04.023,4591,3(a),5857,x=0,Mg3Sb2,600,0.0016667,27.636,0.036185,,0.00015382,0.00050094,0.89819,0.13667,,0.0001712555
73,10.1016/j.actamat.2015.04.023,4591,3(a),5857,x=0,Mg3Sb2,650,0.0015385,-35.815,-0.027921,,0.0001863,0.00043198,0.83493,0.16702,,0.0002231325
73,10.1016/j.actamat.2015.04.023,4591,3(a),5857,x=0,Mg3Sb2,700,0.0014286,-10.866,-0.092027,,0.00021877,0.00036302,0.77168,0.19738,,0.0002834983
73,10.1016/j.actamat.2015.04.023,4591,3(a),5857,x=0,Mg3Sb2,750,0.0013333,-6.4049,-0.15613,,0.00025125,0.00029406,0.70842,0.22773,,0.0003546625
73,10.1016/j.actamat.2015.04.023,4593,3(c),5857,x=0,Mg3Sb2,300,0.0033333,,,,-0.000041024,0.00091469,1.2777,-0.045451,,-0.0000321077
73,10.1016/j.actamat.2015.04.023,4596,4(d),5857,x=0,Mg3Sb2,0.0004651163,2150,,,0.99794,,,,,,
73,10.1016/j.actamat.2015.04.023,4596,4(d),5857,x=0,Mg3Sb2,0.0004545455,2200,,,1.0142,,,,,,
73,10.1016/j.actamat.2015.04.023,4596,4(d),5857,x=0,Mg3Sb2,0.0004444444,2250,,,1.0306,,,,,,
73,10.1016/j.actamat.2015.04.023,4596,4(d),5857,x=0,Mg3Sb2,0.0004347826,2300,,,1.0469,,,,,,
73,10.1016/j.actamat.2015.04.023,4596,4(d),5857,x=0,Mg3Sb2,0.0004255319,2350,,,1.0632,,,,,,
73,10.1016/j.actamat.2015.04.023,4596,4(d),5857,x=0,Mg3Sb2,0.0004166667,2400,,,1.0795,,,,,,
73,10.1016/j.actamat.2015.04.023,4596,4(d),5857,x=0,Mg3Sb2,0.0004081633,2450,,,1.0958,,,,,,
73,10.1016/j.actamat.2015.04.023,4596,4(d),5857,x=0,Mg3Sb2,0.0004,2500,,,1.1121,,,,,,
73,10.1016/j.actamat.2015.04.023,4596,4(d),5857,x=0,Mg3Sb2,0.0003921569,2550,,,1.1284,,,,,,
73,10.1016/j.actamat.2015.04.023,4596,4(d),5857,x=0,Mg3Sb2,0.0003846154,2600,,,1.1447,,,,,,
73,10.1016/j.actamat.2015.04.023,4596,4(d),5857,x=0,Mg3Sb2,0.0003773585,2650,,,1.161,,,,,,
73,10.1016/j.actamat.2015.04.023,4596,4(d),5857,x=0,Mg3Sb2,0.0003703704,2700,,,1.1773,,,,,,
73,10.1016/j.actamat.2015.04.023,4596,4(d),5857,x=0,Mg3Sb2,0.0003636364,2750,,,1.1936,,,,,,
73,10.1016/j.actamat.2015.04.023,4596,4(d),5857,x=0,Mg3Sb2,0.0003571429,2800,,,1.2099,,,,,,
73,10.1016/j.actamat.2015.04.023,4596,4(d),5857,x=0,Mg3Sb2,0.0003508772,2850,,,1.2262,,,,,,
73,10.1016/j.actamat.2015.04.023,4596,4(d),5857,x=0,Mg3Sb2,0.0003448276,2900,,,1.2425,,,,,,
73,10.1016/j.actamat.2015.04.023,4596,4(d),5857,x=0,Mg3Sb2,0.0003389831,2950,,,1.2589,,,,,,
73,10.1016/j.actamat.2015.04.023,4596,4(d),5857,x=0,Mg3Sb2,0.0003333333,3000,,,1.2752,,,,,,
73,10.1016/j.actamat.2015.04.023,4596,4(d),5857,x=0,Mg3Sb2,0.0003278689,3050,,,1.2915,,,,,,
73,10.1016/j.actamat.2015.04.023,4596,4(d),5857,x=0,Mg3Sb2,0.0003225806,3100,,,1.3078,,,,,,
73,10.1016/j.actamat.2015.04.023,4596,4(d),5857,x=0,Mg3Sb2,0.0003174603,3150,,,1.3241,,,,,,
73,10.1016/j.actamat.2015.04.023,4596,4(d),5857,x=0,Mg3Sb2,0.0003125,3200,,,1.3404,,,,,,
73,10.1016/j.actamat.2015.04.023,4596,4(d),5857,x=0,Mg3Sb2,0.0003076923,3250,,,1.3567,,,,,,
73,10.1016/j.actamat.2015.04.023,4596,4(d),5857,x=0,Mg3Sb2,0.0003030303,3300,,,1.373,,,,,,
73,10.1016/j.actamat.2015.04.023,4596,4(d),5857,x=0,Mg3Sb2,0.0002985075,3350,,,1.3893,,,,,,
73,10.1016/j.actamat.2015.04.023,4591,3(a),5858,x=0.006,Mg2.994Na0.006Sb2,350,0.0028571,13675,0.000073128,,0.0002739,0.00012835,1.43,0.074855,,0.0001915385
73,10.1016/j.actamat.2015.04.023,4591,3(a),5858,x=0.006,Mg2.994Na0.006Sb2,400,0.0025,13412,0.000074558,,0.00031498,0.00014045,1.3453,0.12851,,0.0002341337
73,10.1016/j.actamat.2015.04.023,4591,3(a),5858,x=0.006,Mg2.994Na0.006Sb2,450,0.0022222,13160,0.000075989,,0.00035605,0.00015254,1.2607,0.18216,,0.0002824225
73,10.1016/j.actamat.2015.04.023,4591,3(a),5858,x=0.006,Mg2.994Na0.006Sb2,500,0.002,12917,0.000077419,,0.00039713,0.00016463,1.176,0.23582,,0.0003376956
73,10.1016/j.actamat.2015.04.023,4591,3(a),5858,x=0.006,Mg2.994Na0.006Sb2,550,0.0018182,12682,0.00007885,,0.0004382,0.00017673,1.0914,0.28947,,0.0004015027
73,10.1016/j.actamat.2015.04.023,4591,3(a),5858,x=0.006,Mg2.994Na0.006Sb2,600,0.0016667,12456,0.00008028,,0.00047928,0.00018882,1.0067,0.34313,,0.0004760902
73,10.1016/j.actamat.2015.04.023,4591,3(a),5858,x=0.006,Mg2.994Na0.006Sb2,650,0.0015385,12238,0.000081711,,0.00052035,0.00020092,0.92207,0.39678,,0.0005643281
73,10.1016/j.actamat.2015.04.023,4591,3(a),5858,x=0.006,Mg2.994Na0.006Sb2,700,0.0014286,12028,0.000083141,,0.00056143,0.00021301,0.83742,0.45044,,0.0006704282
73,10.1016/j.actamat.2015.04.023,4591,3(a),5858,x=0.006,Mg2.994Na0.006Sb2,750,0.0013333,11824,0.000084572,,0.0006025,0.0002251,0.75277,0.50409,,0.0008003773
73,10.1016/j.actamat.2015.04.023,4592,3(b),5858,x=0.006,Mg2.994Na0.006Sb2,300,0.0033333,13948,0.000071697,,0.00023283,0.00011626,1.5146,0.021201,,0.0001537238
73,10.1016/j.actamat.2015.04.023,4596,4(d),5858,x=0.006,Mg2.994Na0.006Sb2,0.0004651163,2150,,,1.0274,,,,,,
73,10.1016/j.actamat.2015.04.023,4596,4(d),5858,x=0.006,Mg2.994Na0.006Sb2,0.0004545455,2200,,,1.0487,,,,,,
73,10.1016/j.actamat.2015.04.023,4596,4(d),5858,x=0.006,Mg2.994Na0.006Sb2,0.0004444444,2250,,,1.0701,,,,,,
73,10.1016/j.actamat.2015.04.023,4596,4(d),5858,x=0.006,Mg2.994Na0.006Sb2,0.0004347826,2300,,,1.0914,,,,,,
73,10.1016/j.actamat.2015.04.023,4596,4(d),5858,x=0.006,Mg2.994Na0.006Sb2,0.0004255319,2350,,,1.1128,,,,,,
73,10.1016/j.actamat.2015.04.023,4596,4(d),5858,x=0.006,Mg2.994Na0.006Sb2,0.0004166667,2400,,,1.1342,,,,,,
73,10.1016/j.actamat.2015.04.023,4596,4(d),5858,x=0.006,Mg2.994Na0.006Sb2,0.0004081633,2450,,,1.1555,,,,,,
73,10.1016/j.actamat.2015.04.023,4596,4(d),5858,x=0.006,Mg2.994Na0.006Sb2,0.0004,2500,,,1.1769,,,,,,
73,10.1016/j.actamat.2015.04.023,4596,4(d),5858,x=0.006,Mg2.994Na0.006Sb2,0.0003921569,2550,,,1.1982,,,,,,
73,10.1016/j.actamat.2015.04.023,4596,4(d),5858,x=0.006,Mg2.994Na0.006Sb2,0.0003846154,2600,,,1.2196,,,,,,
73,10.1016/j.actamat.2015.04.023,4596,4(d),5858,x=0.006,Mg2.994Na0.006Sb2,0.0003773585,2650,,,1.2409,,,,,,
73,10.1016/j.actamat.2015.04.023,4596,4(d),5858,x=0.006,Mg2.994Na0.006Sb2,0.0003703704,2700,,,1.2623,,,,,,
73,10.1016/j.actamat.2015.04.023,4596,4(d),5858,x=0.006,Mg2.994Na0.006Sb2,0.0003636364,2750,,,1.2836,,,,,,
73,10.1016/j.actamat.2015.04.023,4596,4(d),5858,x=0.006,Mg2.994Na0.006Sb2,0.0003571429,2800,,,1.305,,,,,,
73,10.1016/j.actamat.2015.04.023,4596,4(d),5858,x=0.006,Mg2.994Na0.006Sb2,0.0003508772,2850,,,1.3263,,,,,,
73,10.1016/j.actamat.2015.04.023,4596,4(d),5858,x=0.006,Mg2.994Na0.006Sb2,0.0003448276,2900,,,1.3477,,,,,,
73,10.1016/j.actamat.2015.04.023,4596,4(d),5858,x=0.006,Mg2.994Na0.006Sb2,0.0003389831,2950,,,1.369,,,,,,
73,10.1016/j.actamat.2015.04.023,4596,4(d),5858,x=0.006,Mg2.994Na0.006Sb2,0.0003333333,3000,,,1.3904,,,,,,
73,10.1016/j.actamat.2015.04.023,4596,4(d),5858,x=0.006,Mg2.994Na0.006Sb2,0.0003278689,3050,,,1.4117,,,,,,
73,10.1016/j.actamat.2015.04.023,4596,4(d),5858,x=0.006,Mg2.994Na0.006Sb2,0.0003225806,3100,,,1.4331,,,,,,
73,10.1016/j.actamat.2015.04.023,4596,4(d),5858,x=0.006,Mg2.994Na0.006Sb2,0.0003174603,3150,,,1.4544,,,,,,
73,10.1016/j.actamat.2015.04.023,4596,4(d),5858,x=0.006,Mg2.994Na0.006Sb2,0.0003125,3200,,,1.4758,,,,,,
73,10.1016/j.actamat.2015.04.023,4596,4(d),5858,x=0.006,Mg2.994Na0.006Sb2,0.0003076923,3250,,,1.4971,,,,,,
73,10.1016/j.actamat.2015.04.023,4596,4(d),5858,x=0.006,Mg2.994Na0.006Sb2,0.0003030303,3300,,,1.5185,,,,,,
73,10.1016/j.actamat.2015.04.023,4596,4(d),5858,x=0.006,Mg2.994Na0.006Sb2,0.0002985075,3350,,,1.5398,,,,,,
73,10.1016/j.actamat.2015.04.023,4591,3(a),5859,x=0.0125,Mg2.9875Na0.0125Sb2,300,0.0033333,25463,0.000039273,,0.00019495,0.000087499,1.7157,0.00097373,,0.0001136271
73,10.1016/j.actamat.2015.04.023,4591,3(a),5859,x=0.0125,Mg2.9875Na0.0125Sb2,350,0.0028571,25041,0.000039934,,0.00028652,0.000098618,1.625,0.063208,,0.00017632
73,10.1016/j.actamat.2015.04.023,4591,3(a),5859,x=0.0125,Mg2.9875Na0.0125Sb2,400,0.0025,24634,0.000040595,,0.00034728,0.00010974,1.5343,0.12544,,0.0002263443
73,10.1016/j.actamat.2015.04.023,4591,3(a),5859,x=0.0125,Mg2.9875Na0.0125Sb2,450,0.0022222,24239,0.000041255,,0.00040804,0.00012086,1.4435,0.18768,,0.0002826741
73,10.1016/j.actamat.2015.04.023,4591,3(a),5859,x=0.0125,Mg2.9875Na0.0125Sb2,500,0.002,23857,0.000041916,,0.00046879,0.00013198,1.3528,0.24991,,0.0003465331
73,10.1016/j.actamat.2015.04.023,4591,3(a),5859,x=0.0125,Mg2.9875Na0.0125Sb2,550,0.0018182,23487,0.000042577,,0.00052955,0.0001431,1.2621,0.31215,,0.0004195785
73,10.1016/j.actamat.2015.04.023,4591,3(a),5859,x=0.0125,Mg2.9875Na0.0125Sb2,600,0.0016667,23128,0.000043237,,0.00059031,0.00015421,1.1713,0.37438,,0.0005039785
73,10.1016/j.actamat.2015.04.023,4591,3(a),5859,x=0.0125,Mg2.9875Na0.0125Sb2,650,0.0015385,22780,0.000043898,,0.00065106,0.00016533,1.0806,0.43662,,0.0006024986
73,10.1016/j.actamat.2015.04.023,4591,3(a),5859,x=0.0125,Mg2.9875Na0.0125Sb2,700,0.0014286,22442,0.000044559,,0.00071182,0.00017645,0.98986,0.49885,,0.0007191118
73,10.1016/j.actamat.2015.04.023,4591,3(a),5859,x=0.0125,Mg2.9875Na0.0125Sb2,750,0.0013333,22115,0.000045219,,0.00077258,0.00018757,0.89912,0.56109,,0.0008592624
73,10.1016/j.actamat.2015.04.023,4596,4(d),5859,x=0.0125,Mg2.9875Na0.0125Sb2,0.0004651163,2150,,,1.0759,,,,,,
73,10.1016/j.actamat.2015.04.023,4596,4(d),5859,x=0.0125,Mg2.9875Na0.0125Sb2,0.0004545455,2200,,,1.102,,,,,,
73,10.1016/j.actamat.2015.04.023,4596,4(d),5859,x=0.0125,Mg2.9875Na0.0125Sb2,0.0004444444,2250,,,1.1281,,,,,,
73,10.1016/j.actamat.2015.04.023,4596,4(d),5859,x=0.0125,Mg2.9875Na0.0125Sb2,0.0004347826,2300,,,1.1541,,,,,,
73,10.1016/j.actamat.2015.04.023,4596,4(d),5859,x=0.0125,Mg2.9875Na0.0125Sb2,0.0004255319,2350,,,1.1802,,,,,,
73,10.1016/j.actamat.2015.04.023,4596,4(d),5859,x=0.0125,Mg2.9875Na0.0125Sb2,0.0004166667,2400,,,1.2063,,,,,,
73,10.1016/j.actamat.2015.04.023,4596,4(d),5859,x=0.0125,Mg2.9875Na0.0125Sb2,0.0004081633,2450,,,1.2324,,,,,,
73,10.1016/j.actamat.2015.04.023,4596,4(d),5859,x=0.0125,Mg2.9875Na0.0125Sb2,0.0004,2500,,,1.2585,,,,,,
73,10.1016/j.actamat.2015.04.023,4596,4(d),5859,x=0.0125,Mg2.9875Na0.0125Sb2,0.0003921569,2550,,,1.2845,,,,,,
73,10.1016/j.actamat.2015.04.023,4596,4(d),5859,x=0.0125,Mg2.9875Na0.0125Sb2,0.0003846154,2600,,,1.3106,,,,,,
73,10.1016/j.actamat.2015.04.023,4596,4(d),5859,x=0.0125,Mg2.9875Na0.0125Sb2,0.0003773585,2650,,,1.3367,,,,,,
73,10.1016/j.actamat.2015.04.023,4596,4(d),5859,x=0.0125,Mg2.9875Na0.0125Sb2,0.0003703704,2700,,,1.3628,,,,,,
73,10.1016/j.actamat.2015.04.023,4596,4(d),5859,x=0.0125,Mg2.9875Na0.0125Sb2,0.0003636364,2750,,,1.3889,,,,,,
73,10.1016/j.actamat.2015.04.023,4596,4(d),5859,x=0.0125,Mg2.9875Na0.0125Sb2,0.0003571429,2800,,,1.4149,,,,,,
73,10.1016/j.actamat.2015.04.023,4596,4(d),5859,x=0.0125,Mg2.9875Na0.0125Sb2,0.0003508772,2850,,,1.441,,,,,,
73,10.1016/j.actamat.2015.04.023,4596,4(d),5859,x=0.0125,Mg2.9875Na0.0125Sb2,0.0003448276,2900,,,1.4671,,,,,,
73,10.1016/j.actamat.2015.04.023,4596,4(d),5859,x=0.0125,Mg2.9875Na0.0125Sb2,0.0003389831,2950,,,1.4932,,,,,,
73,10.1016/j.actamat.2015.04.023,4596,4(d),5859,x=0.0125,Mg2.9875Na0.0125Sb2,0.0003333333,3000,,,1.5192,,,,,,
73,10.1016/j.actamat.2015.04.023,4596,4(d),5859,x=0.0125,Mg2.9875Na0.0125Sb2,0.0003278689,3050,,,1.5453,,,,,,
73,10.1016/j.actamat.2015.04.023,4596,4(d),5859,x=0.0125,Mg2.9875Na0.0125Sb2,0.0003225806,3100,,,1.5714,,,,,,
73,10.1016/j.actamat.2015.04.023,4596,4(d),5859,x=0.0125,Mg2.9875Na0.0125Sb2,0.0003174603,3150,,,1.5975,,,,,,
73,10.1016/j.actamat.2015.04.023,4596,4(d),5859,x=0.0125,Mg2.9875Na0.0125Sb2,0.0003125,3200,,,1.6236,,,,,,
73,10.1016/j.actamat.2015.04.023,4596,4(d),5859,x=0.0125,Mg2.9875Na0.0125Sb2,0.0003076923,3250,,,1.6496,,,,,,
73,10.1016/j.actamat.2015.04.023,4596,4(d),5859,x=0.0125,Mg2.9875Na0.0125Sb2,0.0003030303,3300,,,1.6757,,,,,,
73,10.1016/j.actamat.2015.04.023,4596,4(d),5859,x=0.0125,Mg2.9875Na0.0125Sb2,0.0002985075,3350,,,1.7018,,,,,,
73,10.1016/j.actamat.2015.04.023,4591,3(a),5860,x=0.025,Mg2.975Na0.025Sb2,300,0.0033333,38607,0.000025902,,0.00022979,0.000072315,2.0017,0.0060028,,0.0001147974
73,10.1016/j.actamat.2015.04.023,4591,3(a),5860,x=0.025,Mg2.975Na0.025Sb2,350,0.0028571,37857,0.000026415,,0.00028944,0.000081261,1.9036,0.05575,,0.0001520487
73,10.1016/j.actamat.2015.04.023,4591,3(a),5860,x=0.025,Mg2.975Na0.025Sb2,400,0.0025,37136,0.000026928,,0.0003491,0.000090207,1.8054,0.1055,,0.0001933644
73,10.1016/j.actamat.2015.04.023,4591,3(a),5860,x=0.025,Mg2.975Na0.025Sb2,450,0.0022222,36442,0.000027441,,0.00040875,0.000099153,1.7073,0.15524,,0.0002394131
73,10.1016/j.actamat.2015.04.023,4591,3(a),5860,x=0.025,Mg2.975Na0.025Sb2,500,0.002,35773,0.000027954,,0.00046841,0.0001081,1.6091,0.20499,,0.0002911006
73,10.1016/j.actamat.2015.04.023,4591,3(a),5860,x=0.025,Mg2.975Na0.025Sb2,550,0.0018182,35128,0.000028467,,0.00052806,0.00011705,1.511,0.25474,,0.0003494772
73,10.1016/j.actamat.2015.04.023,4591,3(a),5860,x=0.025,Mg2.975Na0.025Sb2,600,0.0016667,34507,0.00002898,,0.00058771,0.00012599,1.4128,0.30448,,0.0004159895
73,10.1016/j.actamat.2015.04.023,4591,3(a),5860,x=0.025,Mg2.975Na0.025Sb2,650,0.0015385,33906,0.000029493,,0.00064737,0.00013494,1.3146,0.35423,,0.0004924464
73,10.1016/j.actamat.2015.04.023,4591,3(a),5860,x=0.025,Mg2.975Na0.025Sb2,700,0.0014286,33327,0.000030006,,0.00070702,0.00014388,1.2165,0.40398,,0.0005811919
73,10.1016/j.actamat.2015.04.023,4591,3(a),5860,x=0.025,Mg2.975Na0.025Sb2,750,0.0013333,32766,0.000030519,,0.00076668,0.00015283,1.1183,0.45372,,0.0006855763
73,10.1016/j.actamat.2015.04.023,4596,4(d),5860,x=0.025,Mg2.975Na0.025Sb2,0.0004651163,2150,,,1.2336,,,,,,
73,10.1016/j.actamat.2015.04.023,4596,4(d),5860,x=0.025,Mg2.975Na0.025Sb2,0.0004545455,2200,,,1.2619,,,,,,
73,10.1016/j.actamat.2015.04.023,4596,4(d),5860,x=0.025,Mg2.975Na0.025Sb2,0.0004444444,2250,,,1.2901,,,,,,
73,10.1016/j.actamat.2015.04.023,4596,4(d),5860,x=0.025,Mg2.975Na0.025Sb2,0.0004347826,2300,,,1.3183,,,,,,
73,10.1016/j.actamat.2015.04.023,4596,4(d),5860,x=0.025,Mg2.975Na0.025Sb2,0.0004255319,2350,,,1.3466,,,,,,
73,10.1016/j.actamat.2015.04.023,4596,4(d),5860,x=0.025,Mg2.975Na0.025Sb2,0.0004166667,2400,,,1.3748,,,,,,
73,10.1016/j.actamat.2015.04.023,4596,4(d),5860,x=0.025,Mg2.975Na0.025Sb2,0.0004081633,2450,,,1.403,,,,,,
73,10.1016/j.actamat.2015.04.023,4596,4(d),5860,x=0.025,Mg2.975Na0.025Sb2,0.0004,2500,,,1.4313,,,,,,
73,10.1016/j.actamat.2015.04.023,4596,4(d),5860,x=0.025,Mg2.975Na0.025Sb2,0.0003921569,2550,,,1.4595,,,,,,
73,10.1016/j.actamat.2015.04.023,4596,4(d),5860,x=0.025,Mg2.975Na0.025Sb2,0.0003846154,2600,,,1.4877,,,,,,