sid,DOI,figureid,fignum,sampleid,samplename,composition,Temperature,Inverse temperature,Electrical conductivity,Hall movility,Lattice thermal conductivity,Power factor,Seebeck coefficient,Thermal conductivity,ZT,Electrical resistivity,Figure of merit Z
14602,10.1038/ncomms12167,1883,2(a),2833,x=0,Pb0.98Na0.02Te,300,0.0033333,247070,,2.6555,,,4.2185,,0.0000040474,
14602,10.1038/ncomms12167,1883,2(a),2833,x=0,Pb0.98Na0.02Te,350,0.0028571,204640,,2.1558,0.0015679,0.000085614,3.548,0.15467,0.0000048866,0.0004419109
14602,10.1038/ncomms12167,1883,2(a),2833,x=0,Pb0.98Na0.02Te,400,0.0025,161310,,1.7896,0.0020956,0.00011454,2.9774,0.28153,0.0000061992,0.0007038356
14602,10.1038/ncomms12167,1883,2(a),2833,x=0,Pb0.98Na0.02Te,450,0.0022222,122430,,1.5193,0.0024867,0.00014562,2.5061,0.44652,0.0000081679,0.0009922589
14602,10.1038/ncomms12167,1883,2(a),2833,x=0,Pb0.98Na0.02Te,500,0.002,90894,,1.3176,0.0027246,0.00017583,2.1291,0.63985,0.0000110018,0.0012796956
14602,10.1038/ncomms12167,1883,2(a),2833,x=0,Pb0.98Na0.02Te,550,0.0018182,67631,,1.1657,0.0028179,0.00020317,1.8378,0.84332,0.0000147861,0.0015333007
14602,10.1038/ncomms12167,1883,2(a),2833,x=0,Pb0.98Na0.02Te,600,0.0016667,52098,,1.0516,0.0027938,0.00022649,1.6215,1.0338,0.0000191946,0.0017229726
14602,10.1038/ncomms12167,1883,2(a),2833,x=0,Pb0.98Na0.02Te,650,0.0015385,42782,,0.96811,0.00269,0.00024529,1.4682,1.1909,0.0000233743,0.0018321755
14602,10.1038/ncomms12167,1883,2(a),2833,x=0,Pb0.98Na0.02Te,700,0.0014286,37693,,0.91134,0.0025472,0.00025953,1.366,1.3053,0.0000265301,0.0018647145
14602,10.1038/ncomms12167,1883,2(a),2833,x=0,Pb0.98Na0.02Te,750,0.0013333,34862,,0.87869,0.0024014,0.00026944,1.304,1.3812,0.0000286845,0.0018415644
14602,10.1038/ncomms12167,1883,2(a),2833,x=0,Pb0.98Na0.02Te,800,0.00125,32840,,0.86719,0.0022764,0.00027532,1.2738,1.4297,0.0000304507,0.0017870937
14602,10.1038/ncomms12167,1883,2(a),2833,x=0,Pb0.98Na0.02Te,850,0.0011765,31191,,0.87166,0.0021762,0.00027735,1.2705,1.4559,0.0000320605,0.0017128689
14602,10.1038/ncomms12167,1883,2(a),2833,x=0,Pb0.98Na0.02Te,900,0.0011111,30991,,0.88297,0.0020774,0.00027539,1.2938,1.4451,0.0000322674,0.0016056578
14602,10.1038/ncomms12167,1883,2(a),2834,x=1.5,Pb0.965Na0.02TeSr0.015,300,0.0033333,212860,,,0.001043,,,,0.0000046979,
14602,10.1038/ncomms12167,1883,2(a),2834,x=1.5,Pb0.965Na0.02TeSr0.015,350,0.0028571,179150,,1.9575,0.0018265,0.000098514,3.1969,0.19997,0.0000055819,0.0005713347
14602,10.1038/ncomms12167,1883,2(a),2834,x=1.5,Pb0.965Na0.02TeSr0.015,400,0.0025,142310,,1.6532,0.0022909,0.00012748,2.717,0.33727,0.0000070269,0.0008431726
14602,10.1038/ncomms12167,1883,2(a),2834,x=1.5,Pb0.965Na0.02TeSr0.015,450,0.0022222,108800,,1.4388,0.002572,0.00015685,2.3163,0.49968,0.0000091912,0.0011103916
14602,10.1038/ncomms12167,1883,2(a),2834,x=1.5,Pb0.965Na0.02TeSr0.015,500,0.002,82029,,1.2722,0.0027546,0.00018538,1.9909,0.6918,0.0000121908,0.0013835954
14602,10.1038/ncomms12167,1883,2(a),2834,x=1.5,Pb0.965Na0.02TeSr0.015,550,0.0018182,63006,,1.1325,0.0028829,0.00021178,1.7359,0.91341,0.0000158715,0.0016607523
14602,10.1038/ncomms12167,1883,2(a),2834,x=1.5,Pb0.965Na0.02TeSr0.015,600,0.0016667,50998,,1.014,0.0029721,0.00023485,1.5452,1.1541,0.0000196086,0.0019234403
14602,10.1038/ncomms12167,1883,2(a),2834,x=1.5,Pb0.965Na0.02TeSr0.015,650,0.0015385,44181,,0.9204,0.0030187,0.00025362,1.4118,1.3898,0.0000226342,0.0021381924
14602,10.1038/ncomms12167,1883,2(a),2834,x=1.5,Pb0.965Na0.02TeSr0.015,700,0.0014286,40296,,0.85883,0.003012,0.00026749,1.3279,1.5878,0.0000248164,0.0022682431
14602,10.1038/ncomms12167,1883,2(a),2834,x=1.5,Pb0.965Na0.02TeSr0.015,750,0.0013333,37301,,0.8339,0.002945,0.00027637,1.2848,1.7191,0.0000268089,0.0022921856
14602,10.1038/ncomms12167,1883,2(a),2834,x=1.5,Pb0.965Na0.02TeSr0.015,800,0.00125,34022,,0.84178,0.0028252,0.00028085,1.2729,1.7756,0.0000293927,0.0022194988
14602,10.1038/ncomms12167,1883,2(a),2834,x=1.5,Pb0.965Na0.02TeSr0.015,850,0.0011765,30811,,0.86429,0.0026857,0.00028232,1.282,1.7807,0.0000324559,0.0020949298
14602,10.1038/ncomms12167,1883,2(a),2834,x=1.5,Pb0.965Na0.02TeSr0.015,900,0.0011111,30193,,0.86295,0.0025961,0.00028313,1.3011,1.7958,0.0000331203,0.0019953117
14602,10.1038/ncomms12167,1883,2(a),2835,x=3,Pb0.95Na0.02TeSr0.03,350,0.0028571,174180,,1.8468,0.0020169,0.00010302,2.9985,0.23542,0.0000057412,0.0006726363
14602,10.1038/ncomms12167,1883,2(a),2835,x=3,Pb0.95Na0.02TeSr0.03,400,0.0025,139340,,1.576,0.0025011,0.00013267,2.5735,0.38875,0.0000071767,0.0009718671
14602,10.1038/ncomms12167,1883,2(a),2835,x=3,Pb0.95Na0.02TeSr0.03,450,0.0022222,108380,,1.3647,0.0027993,0.00016341,2.2167,0.56827,0.0000092268,0.0012628231
14602,10.1038/ncomms12167,1883,2(a),2835,x=3,Pb0.95Na0.02TeSr0.03,500,0.002,83270,,1.195,0.0029835,0.00019306,1.9228,0.77582,0.0000120091,0.0015516434
14602,10.1038/ncomms12167,1883,2(a),2835,x=3,Pb0.95Na0.02TeSr0.03,550,0.0018182,64626,,1.0562,0.0030951,0.0002199,1.6874,1.0088,0.0000154736,0.001834242
14602,10.1038/ncomms12167,1883,2(a),2835,x=3,Pb0.95Na0.02TeSr0.03,600,0.0016667,51989,,0.94347,0.0031527,0.00024273,1.5071,1.2551,0.0000192348,0.0020918983
14602,10.1038/ncomms12167,1883,2(a),2835,x=3,Pb0.95Na0.02TeSr0.03,650,0.0015385,44192,,0.8555,0.0031603,0.00026082,1.3777,1.491,0.0000226285,0.0022938956
14602,10.1038/ncomms12167,1883,2(a),2835,x=3,Pb0.95Na0.02TeSr0.03,700,0.0014286,39697,,0.79232,0.0031157,0.00027392,1.294,1.6855,0.0000251908,0.0024078053
14602,10.1038/ncomms12167,1883,2(a),2835,x=3,Pb0.95Na0.02TeSr0.03,750,0.0013333,36942,,0.75335,0.0030185,0.00028229,1.2484,1.8134,0.0000270695,0.0024178949
14602,10.1038/ncomms12167,1883,2(a),2835,x=3,Pb0.95Na0.02TeSr0.03,800,0.00125,34682,,0.73527,0.0028785,0.00028662,1.2301,1.872,0.0000288334,0.0023400537
14602,10.1038/ncomms12167,1883,2(a),2835,x=3,Pb0.95Na0.02TeSr0.03,850,0.0011765,32329,,0.72996,0.0027239,0.00028808,1.2245,1.8908,0.000030932,0.0022244998
14602,10.1038/ncomms12167,1883,2(a),2835,x=3,Pb0.95Na0.02TeSr0.03,900,0.0011111,30303,,0.72242,0.0026096,0.0002883,1.2117,1.9383,0.000033,0.0021536684
14602,10.1038/ncomms12167,1886,3(a),2835,x=3,Pb0.95Na0.02TeSr0.03,300,0.0033333,,,,,,3.4999,,,
14602,10.1038/ncomms12167,1883,2(a),2836,x=4.5,Pb0.935Na0.02TeSr0.045,300,0.0033333,207270,,,0.0016719,,3.2918,0.15237,0.0000048246,0.0005078984
14602,10.1038/ncomms12167,1883,2(a),2836,x=4.5,Pb0.935Na0.02TeSr0.045,350,0.0028571,173250,,1.7547,0.0022923,0.00011427,2.8274,0.28376,0.000005772,0.0008107449
14602,10.1038/ncomms12167,1883,2(a),2836,x=4.5,Pb0.935Na0.02TeSr0.045,400,0.0025,138610,,1.4995,0.0026992,0.00014279,2.4436,0.44184,0.0000072145,0.0011045998
14602,10.1038/ncomms12167,1883,2(a),2836,x=4.5,Pb0.935Na0.02TeSr0.045,450,0.0022222,107700,,1.3068,0.0029668,0.00017132,2.1235,0.62871,0.0000092851,0.0013971274
14602,10.1038/ncomms12167,1883,2(a),2836,x=4.5,Pb0.935Na0.02TeSr0.045,500,0.002,82807,,1.1552,0.0031407,0.00019901,1.8569,0.84568,0.0000120763,0.0016913673
14602,10.1038/ncomms12167,1883,2(a),2836,x=4.5,Pb0.935Na0.02TeSr0.045,550,0.0018182,64584,,1.0316,0.0032451,0.00022467,1.638,1.0896,0.0000154837,0.0019811355
14602,10.1038/ncomms12167,1883,2(a),2836,x=4.5,Pb0.935Na0.02TeSr0.045,600,0.0016667,52469,,0.92903,0.003289,0.00024708,1.4644,1.3476,0.0000190589,0.002245971
14602,10.1038/ncomms12167,1883,2(a),2836,x=4.5,Pb0.935Na0.02TeSr0.045,650,0.0015385,45111,,0.8451,0.0032736,0.00026515,1.3349,1.594,0.0000221675,0.0024523185
14602,10.1038/ncomms12167,1883,2(a),2836,x=4.5,Pb0.935Na0.02TeSr0.045,700,0.0014286,40794,,0.77955,0.0031985,0.00027821,1.2479,1.7942,0.0000245134,0.002563106
14602,10.1038/ncomms12167,1883,2(a),2836,x=4.5,Pb0.935Na0.02TeSr0.045,750,0.0013333,37863,,0.73246,0.0030684,0.00028616,1.1997,1.9182,0.000026411,0.0025576394
14602,10.1038/ncomms12167,1883,2(a),2836,x=4.5,Pb0.935Na0.02TeSr0.045,800,0.00125,35142,,0.70212,0.0029002,0.00028977,1.1827,1.9617,0.000028456,0.0024521857
14602,10.1038/ncomms12167,1883,2(a),2836,x=4.5,Pb0.935Na0.02TeSr0.045,850,0.0011765,32367,,0.68311,0.0027294,0.00029082,1.1835,1.9603,0.0000308957,0.0023062104
14602,10.1038/ncomms12167,1883,2(a),2836,x=4.5,Pb0.935Na0.02TeSr0.045,900,0.0011111,30602,,0.66423,0.0026169,0.00029242,1.1816,1.9932,0.0000326776,0.0022147089
14602,10.1038/ncomms12167,1883,2(a),2837,x=6,Pb0.92Na0.02TeSr0.06,300,0.0033333,207440,0.007748,1.9603,,,,,0.0000048207,
14602,10.1038/ncomms12167,1883,2(a),2837,x=6,Pb0.92Na0.02TeSr0.06,350,0.0028571,174620,0.0066388,1.603,0.002491,0.00011606,2.7433,0.31781,0.0000057267,0.0009080305
14602,10.1038/ncomms12167,1883,2(a),2837,x=6,Pb0.92Na0.02TeSr0.06,400,0.0025,140240,0.0055296,1.36,0.0029492,0.00014344,2.3422,0.50366,0.0000071306,0.0012591581
14602,10.1038/ncomms12167,1883,2(a),2837,x=6,Pb0.92Na0.02TeSr0.06,450,0.0022222,109210,0.0044204,1.1888,0.0032102,0.00017175,2.0184,0.71571,0.0000091567,0.0015904677
14602,10.1038/ncomms12167,1883,2(a),2837,x=6,Pb0.92Na0.02TeSr0.06,500,0.002,84101,0.0033112,1.0604,0.0033429,0.00019952,1.7618,0.94872,0.0000118905,0.0018974344
14602,10.1038/ncomms12167,1883,2(a),2837,x=6,Pb0.92Na0.02TeSr0.06,550,0.0018182,65661,0.002202,0.95645,0.0033898,0.00022528,1.5628,1.193,0.0000152297,0.0021690555
14602,10.1038/ncomms12167,1883,2(a),2837,x=6,Pb0.92Na0.02TeSr0.06,600,0.0016667,53311,0.0010928,0.86753,0.0033743,0.00024773,1.4121,1.4337,0.0000187579,0.0023895616
14602,10.1038/ncomms12167,1883,2(a),2837,x=6,Pb0.92Na0.02TeSr0.06,650,0.0015385,45634,,0.79049,0.0033076,0.00026583,1.301,1.6525,0.0000219135,0.002542352
14602,10.1038/ncomms12167,1883,2(a),2837,x=6,Pb0.92Na0.02TeSr0.06,700,0.0014286,40869,,0.72638,0.0031953,0.00027902,1.2219,1.8305,0.0000244684,0.0026150258
14602,10.1038/ncomms12167,1883,2(a),2837,x=6,Pb0.92Na0.02TeSr0.06,750,0.0013333,37407,,0.67819,0.0030448,0.00028734,1.1681,1.955,0.000026733,0.0026066261
14602,10.1038/ncomms12167,1883,2(a),2837,x=6,Pb0.92Na0.02TeSr0.06,800,0.00125,34289,,0.64856,0.002872,0.00029159,1.1342,2.0257,0.0000291639,0.0025321813
14602,10.1038/ncomms12167,1883,2(a),2837,x=6,Pb0.92Na0.02TeSr0.06,850,0.0011765,31694,,0.63755,0.0027083,0.00029346,1.1162,2.0624,0.0000315517,0.0024263573
14602,10.1038/ncomms12167,1883,2(a),2837,x=6,Pb0.92Na0.02TeSr0.06,900,0.0011111,31437,,0.64041,0.0026076,0.00029573,1.1121,2.1103,0.0000318097,0.0023447532
14602,10.1038/ncomms12167,1883,2(a),2838,x=8,Pb0.9Na0.02TeSr0.08,350,0.0028571,167220,0.0065542,1.4482,0.0023178,0.00011566,2.5364,0.31984,0.0000059801,0.0009138149
14602,10.1038/ncomms12167,1883,2(a),2838,x=8,Pb0.9Na0.02TeSr0.08,400,0.0025,133200,0.0054562,1.269,0.0027219,0.00014324,2.1882,0.49756,0.0000075075,0.0012438991
14602,10.1038/ncomms12167,1883,2(a),2838,x=8,Pb0.9Na0.02TeSr0.08,450,0.0022222,104460,0.0043583,1.121,0.0029548,0.00017196,1.8778,0.70809,0.000009573,0.0015735435
14602,10.1038/ncomms12167,1883,2(a),2838,x=8,Pb0.9Na0.02TeSr0.08,500,0.002,81696,0.0032603,0.99244,0.0030841,0.00019969,1.6243,0.94936,0.0000122405,0.0018987256
14602,10.1038/ncomms12167,1883,2(a),2838,x=8,Pb0.9Na0.02TeSr0.08,550,0.0018182,64819,0.0021623,0.87859,0.0031516,0.00022489,1.4332,1.2094,0.0000154276,0.0021989953
14602,10.1038/ncomms12167,1883,2(a),2838,x=8,Pb0.9Na0.02TeSr0.08,600,0.0016667,53121,0.0010644,0.7796,0.0031791,0.00024659,1.2998,1.4675,0.0000188249,0.0024458378
14602,10.1038/ncomms12167,1883,2(a),2838,x=8,Pb0.9Na0.02TeSr0.08,650,0.0015385,45508,,0.69813,0.0031746,0.00026431,1.2127,1.7016,0.0000219742,0.002617795
14602,10.1038/ncomms12167,1883,2(a),2838,x=8,Pb0.9Na0.02TeSr0.08,700,0.0014286,40708,,0.63715,0.0031378,0.00027792,1.1571,1.8982,0.0000245652,0.0027117794
14602,10.1038/ncomms12167,1883,2(a),2838,x=8,Pb0.9Na0.02TeSr0.08,750,0.0013333,37480,,0.59763,0.0030661,0.00028763,1.1184,2.0561,0.0000266809,0.0027415057
14602,10.1038/ncomms12167,1883,2(a),2838,x=8,Pb0.9Na0.02TeSr0.08,800,0.00125,34826,,0.57631,0.0029606,0.00029387,1.0855,2.1819,0.0000287142,0.0027274067
14602,10.1038/ncomms12167,1883,2(a),2838,x=8,Pb0.9Na0.02TeSr0.08,850,0.0011765,32199,,0.56344,0.0028316,0.00029723,1.0543,2.2829,0.0000310569,0.0026857631
14602,10.1038/ncomms12167,1883,2(a),2838,x=8,Pb0.9Na0.02TeSr0.08,900,0.0011111,29719,,0.54049,0.0027047,0.00029835,1.0312,2.3606,0.0000336485,0.0026228666
14602,10.1038/ncomms12167,1886,3(a),2838,x=8,Pb0.9Na0.02TeSr0.08,300,0.0033333,,0.0076522,,,,2.8862,,,
14602,10.1038/ncomms12167,1883,2(a),2839,x=10,Pb0.88Na0.02TeSr0.1,300,0.0033333,185320,0.0075388,1.5458,,,2.7056,,0.0000053961,
14602,10.1038/ncomms12167,1883,2(a),2839,x=10,Pb0.88Na0.02TeSr0.1,350,0.0028571,155330,0.0064624,1.3013,0.0021761,0.00011568,2.3541,0.32354,0.0000064379,0.0009243872
14602,10.1038/ncomms12167,1883,2(a),2839,x=10,Pb0.88Na0.02TeSr0.1,400,0.0025,125760,0.005386,1.1167,0.0026288,0.00014304,2.0301,0.51796,0.0000079517,0.0012949116
14602,10.1038/ncomms12167,1883,2(a),2839,x=10,Pb0.88Na0.02TeSr0.1,450,0.0022222,99496,0.0043096,0.97194,0.0028962,0.00017119,1.7476,0.74576,0.0000100507,0.0016572442
14602,10.1038/ncomms12167,1883,2(a),2839,x=10,Pb0.88Na0.02TeSr0.1,500,0.002,78042,0.0032333,0.85469,0.0030194,0.00019879,1.5138,0.99729,0.0000128136,0.0019945832
14602,10.1038/ncomms12167,1883,2(a),2839,x=10,Pb0.88Na0.02TeSr0.1,550,0.0018182,61791,0.0021569,0.75882,0.003039,0.00022443,1.3303,1.2564,0.0000161836,0.0022844471
14602,10.1038/ncomms12167,1883,2(a),2839,x=10,Pb0.88Na0.02TeSr0.1,600,0.0016667,50334,0.0010805,0.68226,0.0029927,0.00024683,1.1941,1.5037,0.0000198673,0.002506239
14602,10.1038/ncomms12167,1883,2(a),2839,x=10,Pb0.88Na0.02TeSr0.1,650,0.0015385,42747,,0.62511,0.0029133,0.00026496,1.0995,1.7223,0.0000233935,0.0026496589
14602,10.1038/ncomms12167,1883,2(a),2839,x=10,Pb0.88Na0.02TeSr0.1,700,0.0014286,37893,,0.58773,0.0028259,0.00027821,1.0387,1.9044,0.0000263901,0.0027206123
14602,10.1038/ncomms12167,1883,2(a),2839,x=10,Pb0.88Na0.02TeSr0.1,750,0.0013333,34715,,0.56876,0.0027461,0.00028655,1.0038,2.0518,0.000028806,0.0027357043
14602,10.1038/ncomms12167,1883,2(a),2839,x=10,Pb0.88Na0.02TeSr0.1,800,0.00125,32533,,0.56322,0.0026775,0.00029068,0.98782,2.1684,0.000030738,0.0027105141
14602,10.1038/ncomms12167,1883,2(a),2839,x=10,Pb0.88Na0.02TeSr0.1,850,0.0011765,31336,,0.56055,0.0026094,0.0002922,0.98593,2.2496,0.0000319122,0.0026466382
14602,10.1038/ncomms12167,1883,2(a),2839,x=10,Pb0.88Na0.02TeSr0.1,900,0.0011111,32085,,0.5427,0.0025147,0.00029376,0.99696,2.2701,0.0000311672,0.002522368
14602,10.1038/ncomms12167,1883,2(a),2840,x=12,Pb0.86Na0.02TeSr0.12,300,0.0033333,193400,,1.5136,,,2.6594,,0.0000051706,
14602,10.1038/ncomms12167,1883,2(a),2840,x=12,Pb0.86Na0.02TeSr0.12,350,0.0028571,162060,,1.2812,0.0022468,0.00011677,2.3538,0.33409,0.0000061706,0.0009545416
14602,10.1038/ncomms12167,1883,2(a),2840,x=12,Pb0.86Na0.02TeSr0.12,400,0.0025,130730,,1.1127,0.0026743,0.00014414,2.057,0.52004,0.0000076494,0.0013000972
14602,10.1038/ncomms12167,1883,2(a),2840,x=12,Pb0.86Na0.02TeSr0.12,450,0.0022222,102890,,0.98325,0.002934,0.00017214,1.7859,0.73929,0.0000097191,0.0016428691
14602,10.1038/ncomms12167,1883,2(a),2840,x=12,Pb0.86Na0.02TeSr0.12,500,0.002,80346,,0.87731,0.0030684,0.00019958,1.5513,0.98898,0.0000124462,0.001977954
14602,10.1038/ncomms12167,1883,2(a),2840,x=12,Pb0.86Na0.02TeSr0.12,550,0.0018182,63543,,0.78656,0.0031122,0.0002252,1.3594,1.2592,0.0000157374,0.0022893924
14602,10.1038/ncomms12167,1883,2(a),2840,x=12,Pb0.86Na0.02TeSr0.12,600,0.0016667,51956,,0.70808,0.0030933,0.00024774,1.2118,1.5316,0.0000192471,0.002552649
14602,10.1038/ncomms12167,1883,2(a),2840,x=12,Pb0.86Na0.02TeSr0.12,650,0.0015385,44442,,0.64247,0.0030332,0.00026617,1.1064,1.782,0.0000225012,0.002741504
14602,10.1038/ncomms12167,1883,2(a),2840,x=12,Pb0.86Na0.02TeSr0.12,700,0.0014286,39602,,0.59188,0.0029481,0.00027976,1.0386,1.987,0.0000252512,0.0028385326
14602,10.1038/ncomms12167,1883,2(a),2840,x=12,Pb0.86Na0.02TeSr0.12,750,0.0013333,36143,,0.55812,0.0028494,0.00028829,1.0014,2.1341,0.0000276679,0.0028454164
14602,10.1038/ncomms12167,1883,2(a),2840,x=12,Pb0.86Na0.02TeSr0.12,800,0.00125,33241,,0.54073,0.002744,0.00029216,0.98632,2.2256,0.0000300833,0.0027820586
14602,10.1038/ncomms12167,1883,2(a),2840,x=12,Pb0.86Na0.02TeSr0.12,850,0.0011765,30902,,0.53509,0.0026357,0.00029255,0.98431,2.2761,0.0000323604,0.0026777133
14602,10.1038/ncomms12167,1883,2(a),2840,x=12,Pb0.86Na0.02TeSr0.12,900,0.0011111,30321,,0.53049,0.0025252,0.00029158,0.98624,2.3044,0.0000329804,0.0025604315
14602,10.1038/ncomms12167,1888,3(d),2841,Pb0.98Na0.02Te,Pb0.98Na0.02Te,666.6666666667,0.0015,,,0.98223,,,,,,
14602,10.1038/ncomms12167,1888,3(d),2841,Pb0.98Na0.02Te,Pb0.98Na0.02Te,500,0.002,,,1.3551,,,,,,
14602,10.1038/ncomms12167,1888,3(d),2841,Pb0.98Na0.02Te,Pb0.98Na0.02Te,400,0.0025,,,1.8074,,,,,,
14602,10.1038/ncomms12167,1888,3(d),2841,Pb0.98Na0.02Te,Pb0.98Na0.02Te,333.3333333333,0.003,,,2.2684,,,,,,
14602,10.1038/ncomms12167,1889,5(a),2841,Pb0.98Na0.02Te,Pb0.98Na0.02Te,300,0.0033333,,,,,,,0.092166,,
14602,10.1038/ncomms12167,1889,5(a),2841,Pb0.98Na0.02Te,Pb0.98Na0.02Te,350,0.0028571,,,,,,,0.20582,,
14602,10.1038/ncomms12167,1889,5(a),2841,Pb0.98Na0.02Te,Pb0.98Na0.02Te,400,0.0025,,,,,,,0.34754,,
14602,10.1038/ncomms12167,1889,5(a),2841,Pb0.98Na0.02Te,Pb0.98Na0.02Te,450,0.0022222,,,,,,,0.5182,,
14602,10.1038/ncomms12167,1889,5(a),2841,Pb0.98Na0.02Te,Pb0.98Na0.02Te,500,0.002,,,,,,,0.7095,,
14602,10.1038/ncomms12167,1889,5(a),2841,Pb0.98Na0.02Te,Pb0.98Na0.02Te,550,0.0018182,,,,,,,0.90714,,
14602,10.1038/ncomms12167,1889,5(a),2841,Pb0.98Na0.02Te,Pb0.98Na0.02Te,600,0.0016667,,,,,,,1.094,,
14602,10.1038/ncomms12167,1889,5(a),2841,Pb0.98Na0.02Te,Pb0.98Na0.02Te,650,0.0015385,,,,,,,1.2534,,
14602,10.1038/ncomms12167,1889,5(a),2841,Pb0.98Na0.02Te,Pb0.98Na0.02Te,700,0.0014286,,,,,,,1.3722,,
14602,10.1038/ncomms12167,1889,5(a),2841,Pb0.98Na0.02Te,Pb0.98Na0.02Te,750,0.0013333,,,,,,,1.444,,
14602,10.1038/ncomms12167,1889,5(a),2841,Pb0.98Na0.02Te,Pb0.98Na0.02Te,800,0.00125,,,,,,,1.4723,,
14602,10.1038/ncomms12167,1889,5(a),2841,Pb0.98Na0.02Te,Pb0.98Na0.02Te,850,0.0011765,,,,,,,1.474,,
14602,10.1038/ncomms12167,1889,5(a),2841,Pb0.98Na0.02Te,Pb0.98Na0.02Te,900,0.0011111,,,,,,,1.482,,
14602,10.1038/ncomms12167,1889,5(a),2842,this study,Pb0.9Na0.02TeSr0.08,300,0.0033333,,,,,,,0.2013,,
14602,10.1038/ncomms12167,1889,5(a),2842,this study,Pb0.9Na0.02TeSr0.08,350,0.0028571,,,,,,,0.36881,,
14602,10.1038/ncomms12167,1889,5(a),2842,this study,Pb0.9Na0.02TeSr0.08,400,0.0025,,,,,,,0.54684,,
14602,10.1038/ncomms12167,1889,5(a),2842,this study,Pb0.9Na0.02TeSr0.08,450,0.0022222,,,,,,,0.75628,,
14602,10.1038/ncomms12167,1889,5(a),2842,this study,Pb0.9Na0.02TeSr0.08,500,0.002,,,,,,,1.0014,,
14602,10.1038/ncomms12167,1889,5(a),2842,this study,Pb0.9Na0.02TeSr0.08,550,0.0018182,,,,,,,1.2738,,
14602,10.1038/ncomms12167,1889,5(a),2842,this study,Pb0.9Na0.02TeSr0.08,600,0.0016667,,,,,,,1.5568,,
14602,10.1038/ncomms12167,1889,5(a),2842,this study,Pb0.9Na0.02TeSr0.08,650,0.0015385,,,,,,,1.8294,,
14602,10.1038/ncomms12167,1889,5(a),2842,this study,Pb0.9Na0.02TeSr0.08,700,0.0014286,,,,,,,2.0704,,
14602,10.1038/ncomms12167,1889,5(a),2842,this study,Pb0.9Na0.02TeSr0.08,750,0.0013333,,,,,,,2.2624,,
14602,10.1038/ncomms12167,1889,5(a),2842,this study,Pb0.9Na0.02TeSr0.08,800,0.00125,,,,,,,2.3961,,
14602,10.1038/ncomms12167,1889,5(a),2842,this study,Pb0.9Na0.02TeSr0.08,850,0.0011765,,,,,,,2.4745,,
14602,10.1038/ncomms12167,1889,5(a),2842,this study,Pb0.9Na0.02TeSr0.08,900,0.0011111,,,,,,,2.5166,,
14602,10.1038/ncomms12167,1889,5(a),2843,ref.8,Pb0.94Na0.02TeSr0.04,350,0.0028571,,,,,,,0.24937,,
14602,10.1038/ncomms12167,1889,5(a),2843,ref.8,Pb0.94Na0.02TeSr0.04,400,0.0025,,,,,,,0.39972,,
14602,10.1038/ncomms12167,1889,5(a),2843,ref.8,Pb0.94Na0.02TeSr0.04,450,0.0022222,,,,,,,0.57869,,
14602,10.1038/ncomms12167,1889,5(a),2843,ref.8,Pb0.94Na0.02TeSr0.04,500,0.002,,,,,,,0.77796,,
14602,10.1038/ncomms12167,1889,5(a),2843,ref.8,Pb0.94Na0.02TeSr0.04,550,0.0018182,,,,,,,0.99236,,
14602,10.1038/ncomms12167,1889,5(a),2843,ref.8,Pb0.94Na0.02TeSr0.04,600,0.0016667,,,,,,,1.2179,,
14602,10.1038/ncomms12167,1889,5(a),2843,ref.8,Pb0.94Na0.02TeSr0.04,650,0.0015385,,,,,,,1.4497,,