sid,DOI,figureid,fignum,sampleid,samplename,composition,Temperature,Inverse temperature,Electrical conductivity,Hall movility,Lattice thermal conductivity,Power factor,Seebeck coefficient,Thermal conductivity,ZT,Electrical resistivity,Figure of merit Z
14602,10.1038/ncomms12167,1889,5(a),2843,ref.8,Pb0.94Na0.02TeSr0.04,700,0.0014286,,,,,,,1.6804,,
14602,10.1038/ncomms12167,1889,5(a),2843,ref.8,Pb0.94Na0.02TeSr0.04,750,0.0013333,,,,,,,1.8977,,
14602,10.1038/ncomms12167,1889,5(a),2843,ref.8,Pb0.94Na0.02TeSr0.04,800,0.00125,,,,,,,2.0829,,
14602,10.1038/ncomms12167,1889,5(a),2843,ref.8,Pb0.94Na0.02TeSr0.04,850,0.0011765,,,,,,,2.2086,,
14602,10.1038/ncomms12167,1889,5(a),2843,ref.8,Pb0.94Na0.02TeSr0.04,900,0.0011111,,,,,,,2.2369,,