sid,DOI,figureid,fignum,sampleid,samplename,composition,Temperature,Electrical resistivity,Seebeck coefficient,Thermal conductivity,ZT,Electrical conductivity,Power factor,Figure of merit Z
117,10.1002/aenm.201400486,94,3(a),282,Pb0.9995La0.0005Te1,Pb0.9995La0.0005Te1,350,0.000018851,-0.00019845,1.8197,0.51442,53047.5836825633,0.0020891413,0.0011480691
117,10.1002/aenm.201400486,94,3(a),282,Pb0.9995La0.0005Te1,Pb0.9995La0.0005Te1,400,0.00002584,-0.00022169,1.5777,0.51821,38699.6904024768,0.0019019526,0.0012055224
117,10.1002/aenm.201400486,94,3(a),282,Pb0.9995La0.0005Te1,Pb0.9995La0.0005Te1,450,0.000033575,-0.00024076,1.4095,0.522,29784.0655249442,0.0017264446,0.0012248631
117,10.1002/aenm.201400486,94,3(a),282,Pb0.9995La0.0005Te1,Pb0.9995La0.0005Te1,500,0.000041851,-0.00025606,1.2923,0.52579,23894.2916537239,0.0015666704,0.0012123117
117,10.1002/aenm.201400486,94,3(a),282,Pb0.9995La0.0005Te1,Pb0.9995La0.0005Te1,550,0.000050298,-0.00026731,1.212,0.52958,19881.5062229114,0.0014206258,0.0011721335
117,10.1002/aenm.201400486,94,3(a),282,Pb0.9995La0.0005Te1,Pb0.9995La0.0005Te1,600,0.00005844,-0.00027373,1.1612,0.53337,17111.5674195756,0.0012821375,0.0011041487
117,10.1002/aenm.201400486,94,3(a),282,Pb0.9995La0.0005Te1,Pb0.9995La0.0005Te1,650,0.000065744,-0.00027427,1.1385,0.53716,15210.513506936,0.0011441962,0.0010050032
117,10.1002/aenm.201400486,94,3(a),282,Pb0.9995La0.0005Te1,Pb0.9995La0.0005Te1,700,0.000071673,-0.00026771,1.1469,0.54095,13952.2553820825,0.0009999392,0.0008718626
117,10.1002/aenm.201400486,94,3(a),282,Pb0.9995La0.0005Te1,Pb0.9995La0.0005Te1,750,0.000075744,-0.00025287,1.1924,0.54474,13202.3658639628,0.000844202,0.0007079856
117,10.1002/aenm.201400486,94,3(a),282,Pb0.9995La0.0005Te1,Pb0.9995La0.0005Te1,800,0.000077572,-0.00022878,1.283,0.54853,12891.2494198938,0.0006747317,0.0005259016
117,10.1002/aenm.201400486,4818,3(d),282,Pb0.9995La0.0005Te1,Pb0.9995La0.0005Te1,300,,,,0.51063,,,
117,10.1002/aenm.201400486,94,3(a),332,Pb0.999La0.001Te1,Pb0.999La0.001Te1,350,0.000010726,-0.00014572,2.2696,0.41375,93231.400335633,0.0019797052,0.0008722705
117,10.1002/aenm.201400486,94,3(a),332,Pb0.999La0.001Te1,Pb0.999La0.001Te1,400,0.000014352,-0.00016505,1.9487,0.45815,69676.7001114827,0.001898098,0.0009740329
117,10.1002/aenm.201400486,94,3(a),332,Pb0.999La0.001Te1,Pb0.999La0.001Te1,450,0.000018307,-0.00018347,1.7189,0.50254,54623.9143497023,0.0018387087,0.0010697008
117,10.1002/aenm.201400486,94,3(a),332,Pb0.999La0.001Te1,Pb0.999La0.001Te1,500,0.000022518,-0.00020093,1.5478,0.54693,44408.917310596,0.0017929152,0.0011583636
117,10.1002/aenm.201400486,94,3(a),332,Pb0.999La0.001Te1,Pb0.999La0.001Te1,550,0.000026933,-0.00021665,1.4173,0.59132,37129.1723907474,0.0017427402,0.0012296199
117,10.1002/aenm.201400486,94,3(a),332,Pb0.999La0.001Te1,Pb0.999La0.001Te1,600,0.000031504,-0.00022943,1.3199,0.63571,31742.001015744,0.0016708394,0.0012658833
117,10.1002/aenm.201400486,94,3(a),332,Pb0.999La0.001Te1,Pb0.999La0.001Te1,650,0.000036165,-0.00023801,1.2551,0.6801,27651.0438269045,0.0015663973,0.0012480259
117,10.1002/aenm.201400486,94,3(a),332,Pb0.999La0.001Te1,Pb0.999La0.001Te1,700,0.000040818,-0.00024141,1.226,0.7245,24498.9955411828,0.0014277718,0.0011645773
117,10.1002/aenm.201400486,94,3(a),332,Pb0.999La0.001Te1,Pb0.999La0.001Te1,750,0.000045316,-0.00023928,1.2359,0.76889,22067.2610115632,0.0012634592,0.0010222989
117,10.1002/aenm.201400486,94,3(a),332,Pb0.999La0.001Te1,Pb0.999La0.001Te1,800,0.00004944,-0.00023226,1.2843,0.81328,20226.5372168285,0.0010911146,0.0008495793
117,10.1002/aenm.201400486,9,3(b),332,Pb0.999La0.001Te1,Pb0.999La0.001Te1,300,0.0000075383,,,0.36936,132655.9038510009,,
117,10.1002/aenm.201400486,94,3(a),101,Pb0.99825La0.00175Te1,Pb0.99825La0.00175Te1,300,0.0000032419,-0.000075909,,0.19369,308461.087633795,0.0017774072,
117,10.1002/aenm.201400486,94,3(a),101,Pb0.99825La0.00175Te1,Pb0.99825La0.00175Te1,350,0.0000039759,-0.000089705,3.0635,0.29345,251515.3801654971,0.002023941,0.000660663
117,10.1002/aenm.201400486,94,3(a),101,Pb0.99825La0.00175Te1,Pb0.99825La0.00175Te1,400,0.0000050213,-0.00010428,2.6268,0.39321,199151.6141238325,0.0021656381,0.0008244396
117,10.1002/aenm.201400486,94,3(a),101,Pb0.99825La0.00175Te1,Pb0.99825La0.00175Te1,450,0.0000062364,-0.00011917,2.3068,0.49296,160348.9192482843,0.0022771934,0.0009871655
117,10.1002/aenm.201400486,94,3(a),101,Pb0.99825La0.00175Te1,Pb0.99825La0.00175Te1,500,0.0000075709,-0.00013386,2.0553,0.59272,132084.6927049624,0.0023667595,0.0011515397
117,10.1002/aenm.201400486,94,3(a),101,Pb0.99825La0.00175Te1,Pb0.99825La0.00175Te1,550,0.0000090425,-0.00014783,1.8457,0.69248,110588.8858169754,0.0024167773,0.0013094096
117,10.1002/aenm.201400486,94,3(a),101,Pb0.99825La0.00175Te1,Pb0.99825La0.00175Te1,600,0.000010714,-0.00016061,1.6676,0.79224,93335.8222885944,0.0024076509,0.001443782
117,10.1002/aenm.201400486,94,3(a),101,Pb0.99825La0.00175Te1,Pb0.99825La0.00175Te1,650,0.000012672,-0.00017181,1.5209,0.892,78914.1414141414,0.002329441,0.0015316201
117,10.1002/aenm.201400486,94,3(a),101,Pb0.99825La0.00175Te1,Pb0.99825La0.00175Te1,700,0.000014998,-0.0001812,1.4105,0.99176,66675.5567408988,0.0021891879,0.0015520651
117,10.1002/aenm.201400486,94,3(a),101,Pb0.99825La0.00175Te1,Pb0.99825La0.00175Te1,750,0.000017754,-0.00018874,1.3405,1.0915,56325.3351357441,0.0020064655,0.0014968038
117,10.1002/aenm.201400486,94,3(a),101,Pb0.99825La0.00175Te1,Pb0.99825La0.00175Te1,800,0.000020951,-0.0001946,1.3091,1.1913,47730.4185957711,0.0018075109,0.0013807279
117,10.1002/aenm.201400486,94,3(a),287,Pb0.99La0.01Te1,Pb0.99La0.01Te1,300,0.0000021856,-0.000041331,5.3794,-0.075372,457540.2635431918,0.0007815939,0.0001452939
117,10.1002/aenm.201400486,94,3(a),287,Pb0.99La0.01Te1,Pb0.99La0.01Te1,350,0.0000027701,-0.000048444,4.768,0.0088767,360997.7979134328,0.0008471973,0.000177684
117,10.1002/aenm.201400486,94,3(a),287,Pb0.99La0.01Te1,Pb0.99La0.01Te1,400,0.0000032692,-0.000056212,4.2713,0.093125,305885.2318610058,0.0009665328,0.0002262854
117,10.1002/aenm.201400486,94,3(a),287,Pb0.99La0.01Te1,Pb0.99La0.01Te1,450,0.0000037673,-0.000064828,3.85,0.17737,265442.0938072359,0.0011155654,0.0002897573
117,10.1002/aenm.201400486,94,3(a),287,Pb0.99La0.01Te1,Pb0.99La0.01Te1,500,0.000004308,-0.000074089,3.4784,0.26162,232126.2766945218,0.0012741829,0.0003663129
117,10.1002/aenm.201400486,94,3(a),287,Pb0.99La0.01Te1,Pb0.99La0.01Te1,550,0.0000049071,-0.000083594,3.1416,0.34587,203786.3503902509,0.0014240502,0.0004532882
117,10.1002/aenm.201400486,94,3(a),287,Pb0.99La0.01Te1,Pb0.99La0.01Te1,600,0.0000055663,-0.00009294,2.8334,0.43012,179652.5519645007,0.0015518106,0.000547685
117,10.1002/aenm.201400486,94,3(a),287,Pb0.99La0.01Te1,Pb0.99La0.01Te1,650,0.0000062862,-0.00010192,2.5532,0.51437,159078.6166523496,0.0016524588,0.0006472109
117,10.1002/aenm.201400486,94,3(a),287,Pb0.99La0.01Te1,Pb0.99La0.01Te1,700,0.0000070797,-0.00011072,2.3035,0.59862,141248.9229769623,0.001731559,0.0007517078
117,10.1002/aenm.201400486,94,3(a),287,Pb0.99La0.01Te1,Pb0.99La0.01Te1,750,0.0000079853,-0.00012011,2.0876,0.68286,125230.1103277272,0.0018066212,0.0008654058
117,10.1002/aenm.201400486,94,3(a),287,Pb0.99La0.01Te1,Pb0.99La0.01Te1,800,0.0000090805,-0.00013165,1.9065,0.76711,110126.0943780629,0.0019086749,0.0010011408
117,10.1002/aenm.201400486,94,3(a),123,Pb0.9985La0.0015Te1,Pb0.9985La0.0015Te1,350,0.0000056094,-0.00011357,2.7582,0.38836,178272.1859735444,0.0022993805,0.0008336526
117,10.1002/aenm.201400486,94,3(a),123,Pb0.9985La0.0015Te1,Pb0.9985La0.0015Te1,400,0.0000074891,-0.00013369,2.3537,0.4666,133527.3931447036,0.0023865372,0.0010139513
117,10.1002/aenm.201400486,94,3(a),123,Pb0.9985La0.0015Te1,Pb0.9985La0.0015Te1,450,0.0000095064,-0.00015213,2.0563,0.54484,105192.2915088782,0.0024345217,0.0011839331
117,10.1002/aenm.201400486,94,3(a),123,Pb0.9985La0.0015Te1,Pb0.9985La0.0015Te1,500,0.000011683,-0.00016893,1.8278,0.62307,85594.4534794145,0.0024426384,0.0013363817
117,10.1002/aenm.201400486,94,3(a),123,Pb0.9985La0.0015Te1,Pb0.9985La0.0015Te1,550,0.000014063,-0.00018376,1.6455,0.70131,71108.5828059447,0.002401176,0.0014592379
117,10.1002/aenm.201400486,94,3(a),123,Pb0.9985La0.0015Te1,Pb0.9985La0.0015Te1,600,0.000016699,-0.00019605,1.4984,0.77955,59883.8253787652,0.0023016709,0.0015360858
117,10.1002/aenm.201400486,94,3(a),123,Pb0.9985La0.0015Te1,Pb0.9985La0.0015Te1,650,0.000019629,-0.00020527,1.3838,0.85779,50945.030312293,0.0021466082,0.0015512417
117,10.1002/aenm.201400486,94,3(a),123,Pb0.9985La0.0015Te1,Pb0.9985La0.0015Te1,700,0.000022861,-0.00021111,1.3044,0.93602,43742.6184331394,0.0019494962,0.001494554
117,10.1002/aenm.201400486,94,3(a),123,Pb0.9985La0.0015Te1,Pb0.9985La0.0015Te1,750,0.000026352,-0.00021373,1.2643,1.0143,37947.7838494232,0.0017334742,0.0013710941
117,10.1002/aenm.201400486,94,3(a),123,Pb0.9985La0.0015Te1,Pb0.9985La0.0015Te1,800,0.000029995,-0.00021391,1.266,1.0925,33338.8898149692,0.0015255039,0.0012049793
117,10.1002/aenm.201400486,4818,3(d),123,Pb0.9985La0.0015Te1,Pb0.9985La0.0015Te1,300,,,,0.31013,,,
117,10.1002/aenm.201400486,55,3(c),26,Pb0.9975La0.0025Te1,Pb0.9975La0.0025Te1,350,0.0000042666,-0.000092211,3.2995,0.21246,234378.6621665964,0.0019928909,0.0006039979
117,10.1002/aenm.201400486,55,3(c),26,Pb0.9975La0.0025Te1,Pb0.9975La0.0025Te1,400,0.0000054969,-0.00010453,2.8272,0.31652,181920.7189506813,0.0019877605,0.0007030845
117,10.1002/aenm.201400486,55,3(c),26,Pb0.9975La0.0025Te1,Pb0.9975La0.0025Te1,450,0.0000068191,-0.00011684,2.487,0.42058,146646.9182150137,0.002001963,0.000804971
117,10.1002/aenm.201400486,55,3(c),26,Pb0.9975La0.0025Te1,Pb0.9975La0.0025Te1,500,0.0000082166,-0.00012915,2.22,0.52465,121704.8414185916,0.002030003,0.0009144158
117,10.1002/aenm.201400486,55,3(c),26,Pb0.9975La0.0025Te1,Pb0.9975La0.0025Te1,550,0.0000097053,-0.00014147,1.9949,0.62871,103036.4852194162,0.0020621476,0.0010337097
117,10.1002/aenm.201400486,55,3(c),26,Pb0.9975La0.0025Te1,Pb0.9975La0.0025Te1,600,0.000011323,-0.00015378,1.8006,0.73277,88315.8173628897,0.0020885179,0.0011599011
117,10.1002/aenm.201400486,55,3(c),26,Pb0.9975La0.0025Te1,Pb0.9975La0.0025Te1,650,0.000013121,-0.00016609,1.6385,0.83684,76213.7032238396,0.0021024227,0.0012831387
117,10.1002/aenm.201400486,55,3(c),26,Pb0.9975La0.0025Te1,Pb0.9975La0.0025Te1,700,0.000015151,-0.00017841,1.5146,0.9409,66002.2440762986,0.0021008599,0.0013870724
117,10.1002/aenm.201400486,55,3(c),26,Pb0.9975La0.0025Te1,Pb0.9975La0.0025Te1,750,0.000017457,-0.00019072,1.4323,1.045,57283.6111588475,0.0020836409,0.0014547517
117,10.1002/aenm.201400486,55,3(c),26,Pb0.9975La0.0025Te1,Pb0.9975La0.0025Te1,800,0.000020065,-0.00020303,1.3843,1.149,49838.026414154,0.0020543823,0.0014840586
117,10.1002/aenm.201400486,9,3(b),26,Pb0.9975La0.0025Te1,Pb0.9975La0.0025Te1,300,0.0000031871,,,0.10839,313764.8646104609,,