sid,DOI,figureid,fignum,sampleid,samplename,composition,Temperature,Electrical resistivity,Power factor,Seebeck coefficient,Electrical conductivity
303,10.1063/1.2939438,262,2-Seebeck,579,9.43*10^20,Ba8Ga16Ge30,350,,,-0.000054451,
303,10.1063/1.2939438,262,2-Seebeck,579,9.43*10^20,Ba8Ga16Ge30,400,,,-0.000063727,
303,10.1063/1.2939438,262,2-Seebeck,579,9.43*10^20,Ba8Ga16Ge30,450,,,-0.000073799,
303,10.1063/1.2939438,262,2-Seebeck,579,9.43*10^20,Ba8Ga16Ge30,500,,,-0.000083125,
303,10.1063/1.2939438,262,2-Seebeck,579,9.43*10^20,Ba8Ga16Ge30,550,,,-0.000091946,
303,10.1063/1.2939438,262,2-Seebeck,579,9.43*10^20,Ba8Ga16Ge30,600,,,-0.00010129,
303,10.1063/1.2939438,262,2-Seebeck,579,9.43*10^20,Ba8Ga16Ge30,650,,,-0.00011198,
303,10.1063/1.2939438,262,2-Seebeck,579,9.43*10^20,Ba8Ga16Ge30,700,,,-0.00012363,
303,10.1063/1.2939438,262,2-Seebeck,579,9.43*10^20,Ba8Ga16Ge30,750,,,-0.00013365,
303,10.1063/1.2939438,262,2-Seebeck,591,10.2*1e+20,Ba8Ga16Ge30,350,0.000014324,0.00022097,-0.00005626,69812.9014241832
303,10.1063/1.2939438,262,2-Seebeck,591,10.2*1e+20,Ba8Ga16Ge30,400,0.000015617,0.00028802,-0.000067067,64032.7847858103
303,10.1063/1.2939438,262,2-Seebeck,591,10.2*1e+20,Ba8Ga16Ge30,450,0.000016884,0.00034621,-0.000076455,59227.6711679697
303,10.1063/1.2939438,262,2-Seebeck,591,10.2*1e+20,Ba8Ga16Ge30,500,0.000018071,0.00040542,-0.000085594,55337.2807260251
303,10.1063/1.2939438,262,2-Seebeck,591,10.2*1e+20,Ba8Ga16Ge30,550,0.000019151,0.00047196,-0.000095071,52216.594433711
303,10.1063/1.2939438,262,2-Seebeck,591,10.2*1e+20,Ba8Ga16Ge30,600,0.000020151,0,-0.00010503,49625.3287678031
303,10.1063/1.2939438,262,2-Seebeck,591,10.2*1e+20,Ba8Ga16Ge30,650,0.000021164,0,-0.0001153,47250.0472500473
303,10.1063/1.2939438,262,2-Seebeck,591,10.2*1e+20,Ba8Ga16Ge30,700,,0,-0.00012554,
303,10.1063/1.2939438,262,2-Seebeck,591,10.2*1e+20,Ba8Ga16Ge30,750,,0,-0.00013537,
303,10.1063/1.2939438,262,2-Seebeck,591,10.2*1e+20,Ba8Ga16Ge30,800,,0,-0.00014447,
303,10.1063/1.2939438,262,2-Seebeck,591,10.2*1e+20,Ba8Ga16Ge30,850,,0,-0.00015279,
303,10.1063/1.2939438,262,2-Seebeck,591,10.2*1e+20,Ba8Ga16Ge30,900,,0,-0.0001606,
303,10.1063/1.2939438,262,2-Seebeck,591,10.2*1e+20,Ba8Ga16Ge30,950,,0,-0.0001687,
303,10.1063/1.2939438,266,3,591,10.2*1e+20,Ba8Ga16Ge30,1000,,0,,
303,10.1063/1.2939438,266,3,591,10.2*1e+20,Ba8Ga16Ge30,1050,,0,,
303,10.1063/1.2939438,266,3,591,10.2*1e+20,Ba8Ga16Ge30,1100,,0,,
303,10.1063/1.2939438,266,3,591,10.2*1e+20,Ba8Ga16Ge30,1150,,0,,
303,10.1063/1.2939438,266,3,591,10.2*1e+20,Ba8Ga16Ge30,1200,,0,,
303,10.1063/1.2939438,261,2-Res,591,10.2*1e+20,Ba8Ga16Ge30,100,0.0000091655,,,109104.7951557471
303,10.1063/1.2939438,261,2-Res,591,10.2*1e+20,Ba8Ga16Ge30,150,0.000010012,,,99880.1438274071
303,10.1063/1.2939438,261,2-Res,591,10.2*1e+20,Ba8Ga16Ge30,200,0.000010906,,,91692.6462497708
303,10.1063/1.2939438,261,2-Res,591,10.2*1e+20,Ba8Ga16Ge30,250,0.000011922,,,83878.5438684784
303,10.1063/1.2939438,261,2-Res,591,10.2*1e+20,Ba8Ga16Ge30,300,0.000013072,,,76499.388004896
303,10.1063/1.2939438,262,2-Seebeck,592,9.86*1e+20,Ba8Ga16Ge30,350,0.000013272,0.00021568,-0.000053502,75346.5943339361
303,10.1063/1.2939438,262,2-Seebeck,592,9.86*1e+20,Ba8Ga16Ge30,400,0.000014248,0.00027739,-0.000062867,70185.2891633914
303,10.1063/1.2939438,262,2-Seebeck,592,9.86*1e+20,Ba8Ga16Ge30,450,0.000015224,0.00033964,-0.000071907,65685.7593273778
303,10.1063/1.2939438,262,2-Seebeck,592,9.86*1e+20,Ba8Ga16Ge30,500,0.0000162,0.0004037,-0.00008087,61728.3950617284
303,10.1063/1.2939438,262,2-Seebeck,592,9.86*1e+20,Ba8Ga16Ge30,550,0.000017175,0.00047123,-0.000089963,58224.1630276565
303,10.1063/1.2939438,262,2-Seebeck,592,9.86*1e+20,Ba8Ga16Ge30,600,0.000018151,3e-10,-0.000099327,55093.3832846675
303,10.1063/1.2939438,262,2-Seebeck,592,9.86*1e+20,Ba8Ga16Ge30,650,0.000019127,4e-10,-0.00010902,52282.1142887018
303,10.1063/1.2939438,262,2-Seebeck,592,9.86*1e+20,Ba8Ga16Ge30,700,,5e-10,-0.00011899,
303,10.1063/1.2939438,262,2-Seebeck,592,9.86*1e+20,Ba8Ga16Ge30,750,,5e-10,-0.00012903,
303,10.1063/1.2939438,262,2-Seebeck,592,9.86*1e+20,Ba8Ga16Ge30,800,,6e-10,-0.00013881,
303,10.1063/1.2939438,262,2-Seebeck,592,9.86*1e+20,Ba8Ga16Ge30,850,,7e-10,-0.00014778,
303,10.1063/1.2939438,262,2-Seebeck,592,9.86*1e+20,Ba8Ga16Ge30,900,,8e-10,-0.0001552,
303,10.1063/1.2939438,262,2-Seebeck,592,9.86*1e+20,Ba8Ga16Ge30,950,,9e-10,-0.00016011,
303,10.1063/1.2939438,266,3,592,9.86*1e+20,Ba8Ga16Ge30,1000,,1e-9,,
303,10.1063/1.2939438,266,3,592,9.86*1e+20,Ba8Ga16Ge30,1050,,1.1e-9,,
303,10.1063/1.2939438,266,3,592,9.86*1e+20,Ba8Ga16Ge30,1100,,1.2e-9,,
303,10.1063/1.2939438,266,3,592,9.86*1e+20,Ba8Ga16Ge30,1150,,1.3e-9,,
303,10.1063/1.2939438,266,3,592,9.86*1e+20,Ba8Ga16Ge30,1200,,1.3e-9,,
303,10.1063/1.2939438,261,2-Res,592,9.86*1e+20,Ba8Ga16Ge30,100,0.0000083935,,,119139.8105677012
303,10.1063/1.2939438,261,2-Res,592,9.86*1e+20,Ba8Ga16Ge30,150,0.0000093693,,,106731.5594548152
303,10.1063/1.2939438,261,2-Res,592,9.86*1e+20,Ba8Ga16Ge30,200,0.000010345,,,96665.055582407
303,10.1063/1.2939438,261,2-Res,592,9.86*1e+20,Ba8Ga16Ge30,250,0.000011321,,,88331.4194859111
303,10.1063/1.2939438,261,2-Res,592,9.86*1e+20,Ba8Ga16Ge30,300,0.000012297,,,81320.6473123526
303,10.1063/1.2939438,262,2-Seebeck,593,9.43*1e+20,Ba8Ga16Ge30,350,0.000014159,778.57,-0.00005508,70626.4566706688
303,10.1063/1.2939438,262,2-Seebeck,593,9.43*1e+20,Ba8Ga16Ge30,400,0.000015446,874.95,-0.000064399,64741.6806940308
303,10.1063/1.2939438,262,2-Seebeck,593,9.43*1e+20,Ba8Ga16Ge30,450,0.000016665,968.63,-0.000074018,60006.00060006
303,10.1063/1.2939438,262,2-Seebeck,593,9.43*1e+20,Ba8Ga16Ge30,500,,,-0.000082986,
303,10.1063/1.2939438,262,2-Seebeck,593,9.43*1e+20,Ba8Ga16Ge30,550,,,-0.000091819,
303,10.1063/1.2939438,262,2-Seebeck,593,9.43*1e+20,Ba8Ga16Ge30,600,,,-0.00010152,
303,10.1063/1.2939438,262,2-Seebeck,593,9.43*1e+20,Ba8Ga16Ge30,650,,,-0.00011259,
303,10.1063/1.2939438,262,2-Seebeck,593,9.43*1e+20,Ba8Ga16Ge30,700,,,-0.00012408,
303,10.1063/1.2939438,262,2-Seebeck,593,9.43*1e+20,Ba8Ga16Ge30,750,,,-0.00013254,
303,10.1063/1.2939438,266,3,593,9.43*1e+20,Ba8Ga16Ge30,100,0.0000089583,365.7,,111628.3223379436
303,10.1063/1.2939438,266,3,593,9.43*1e+20,Ba8Ga16Ge30,150,0.0000098726,453.98,,101290.4402082531
303,10.1063/1.2939438,266,3,593,9.43*1e+20,Ba8Ga16Ge30,200,0.00001083,537.94,,92336.1034164358
303,10.1063/1.2939438,266,3,593,9.43*1e+20,Ba8Ga16Ge30,250,0.000011841,615.12,,84452.3266615995
303,10.1063/1.2939438,266,3,593,9.43*1e+20,Ba8Ga16Ge30,300,0.000012944,692.53,,77255.8714462299
303,10.1063/1.2939438,262,2-Seebeck,594,7.90*1e+20,Ba8Ga16Ge30,350,0.000016875,0,-0.000060869,59259.2592592593
303,10.1063/1.2939438,262,2-Seebeck,594,7.90*1e+20,Ba8Ga16Ge30,400,0.000018426,0,-0.00007174,54271.138608488
303,10.1063/1.2939438,262,2-Seebeck,594,7.90*1e+20,Ba8Ga16Ge30,450,0.000019998,0,-0.000081118,50005.00050005
303,10.1063/1.2939438,262,2-Seebeck,594,7.90*1e+20,Ba8Ga16Ge30,500,0.000021528,0.00037945,-0.000090382,46451.1334076551
303,10.1063/1.2939438,262,2-Seebeck,594,7.90*1e+20,Ba8Ga16Ge30,550,0.000022959,0.00043791,-0.00010027,43555.9040027876
303,10.1063/1.2939438,262,2-Seebeck,594,7.90*1e+20,Ba8Ga16Ge30,600,0.000024252,0.00050832,-0.00011103,41233.71268349
303,10.1063/1.2939438,262,2-Seebeck,594,7.90*1e+20,Ba8Ga16Ge30,650,0.000025392,0.00059079,-0.00012248,39382.4826717076
303,10.1063/1.2939438,262,2-Seebeck,594,7.90*1e+20,Ba8Ga16Ge30,700,,,-0.00013422,
303,10.1063/1.2939438,262,2-Seebeck,594,7.90*1e+20,Ba8Ga16Ge30,750,,,-0.00014567,
303,10.1063/1.2939438,262,2-Seebeck,594,7.90*1e+20,Ba8Ga16Ge30,800,,,-0.00015625,
303,10.1063/1.2939438,262,2-Seebeck,594,7.90*1e+20,Ba8Ga16Ge30,850,,,-0.00016546,
303,10.1063/1.2939438,262,2-Seebeck,594,7.90*1e+20,Ba8Ga16Ge30,900,,,-0.00017303,
303,10.1063/1.2939438,266,3,594,7.90*1e+20,Ba8Ga16Ge30,100,0.000010754,0,,92988.6553840431
303,10.1063/1.2939438,266,3,594,7.90*1e+20,Ba8Ga16Ge30,150,0.000011773,0,,84940.1172173618
303,10.1063/1.2939438,266,3,594,7.90*1e+20,Ba8Ga16Ge30,200,0.000012854,0,,77796.7947720554
303,10.1063/1.2939438,266,3,594,7.90*1e+20,Ba8Ga16Ge30,250,0.000014058,0,,71133.8739507754
303,10.1063/1.2939438,266,3,594,7.90*1e+20,Ba8Ga16Ge30,300,0.000015405,0,,64913.9889646219
303,10.1063/1.2939438,262,2-Seebeck,595,7.81*1e+20,Ba8Ga16Ge30,350,0.000016935,0.00033635,-0.000056095,59049.3061706525
303,10.1063/1.2939438,262,2-Seebeck,595,7.81*1e+20,Ba8Ga16Ge30,400,0.00001847,0.00042747,-0.00006579,54141.8516513265
303,10.1063/1.2939438,262,2-Seebeck,595,7.81*1e+20,Ba8Ga16Ge30,450,0.000020011,0.00050929,-0.000075818,49972.5151166858
303,10.1063/1.2939438,262,2-Seebeck,595,7.81*1e+20,Ba8Ga16Ge30,500,,0.00058754,-0.000085587,
303,10.1063/1.2939438,262,2-Seebeck,595,7.81*1e+20,Ba8Ga16Ge30,550,,0.00066665,-0.000095288,
303,10.1063/1.2939438,262,2-Seebeck,595,7.81*1e+20,Ba8Ga16Ge30,600,,0.00074897,-0.00010541,
303,10.1063/1.2939438,262,2-Seebeck,595,7.81*1e+20,Ba8Ga16Ge30,650,,0.00083403,-0.00011625,
303,10.1063/1.2939438,262,2-Seebeck,595,7.81*1e+20,Ba8Ga16Ge30,700,,0.00091777,-0.00012741,
303,10.1063/1.2939438,262,2-Seebeck,595,7.81*1e+20,Ba8Ga16Ge30,750,,0.00099177,-0.00013733,
303,10.1063/1.2939438,261,2-Res,595,7.81*1e+20,Ba8Ga16Ge30,100,0.00001079,,,92678.405931418
303,10.1063/1.2939438,261,2-Res,595,7.81*1e+20,Ba8Ga16Ge30,150,0.000011821,,,84595.2119110058
303,10.1063/1.2939438,261,2-Res,595,7.81*1e+20,Ba8Ga16Ge30,200,0.000012921,,,77393.3906044424
303,10.1063/1.2939438,261,2-Res,595,7.81*1e+20,Ba8Ga16Ge30,250,0.000014134,,,70751.3796519032
303,10.1063/1.2939438,261,2-Res,595,7.81*1e+20,Ba8Ga16Ge30,300,0.000015475,,,64620.3554119548
303,10.1063/1.2939438,262,2-Seebeck,596,6.95*1e+20,Ba8Ga16Ge30,350,0.000016545,0.00020968,-0.000058899,60441.2209126624
303,10.1063/1.2939438,262,2-Seebeck,596,6.95*1e+20,Ba8Ga16Ge30,400,0.000017907,0.00026011,-0.000068248,55844.0833193723
303,10.1063/1.2939438,262,2-Seebeck,596,6.95*1e+20,Ba8Ga16Ge30,450,0.000019328,0.00032094,-0.00007876,51738.4105960265
303,10.1063/1.2939438,262,2-Seebeck,596,6.95*1e+20,Ba8Ga16Ge30,500,0.000020775,0.0003873,-0.0000897,48134.7773766546
303,10.1063/1.2939438,262,2-Seebeck,596,6.95*1e+20,Ba8Ga16Ge30,550,0.000022199,0.00045616,-0.00010063,45047.0741925312
303,10.1063/1.2939438,262,2-Seebeck,596,6.95*1e+20,Ba8Ga16Ge30,600,0.000023536,0.0005268,-0.00011135,42488.1033310673
303,10.1063/1.2939438,262,2-Seebeck,596,6.95*1e+20,Ba8Ga16Ge30,650,0.000024703,0.00060064,-0.00012181,40480.9132494029
303,10.1063/1.2939438,262,2-Seebeck,596,6.95*1e+20,Ba8Ga16Ge30,700,,,-0.00013204,
303,10.1063/1.2939438,262,2-Seebeck,596,6.95*1e+20,Ba8Ga16Ge30,750,,,-0.0001421,
303,10.1063/1.2939438,262,2-Seebeck,596,6.95*1e+20,Ba8Ga16Ge30,800,,,-0.00015199,
303,10.1063/1.2939438,262,2-Seebeck,596,6.95*1e+20,Ba8Ga16Ge30,850,,,-0.00016157,
303,10.1063/1.2939438,262,2-Seebeck,596,6.95*1e+20,Ba8Ga16Ge30,900,,,-0.00017052,
303,10.1063/1.2939438,262,2-Seebeck,596,6.95*1e+20,Ba8Ga16Ge30,950,,,-0.00017822,
303,10.1063/1.2939438,261,2-Res,596,6.95*1e+20,Ba8Ga16Ge30,100,0.00001093,,,91491.308325709
303,10.1063/1.2939438,261,2-Res,596,6.95*1e+20,Ba8Ga16Ge30,150,0.000011914,,,83934.8665435622
303,10.1063/1.2939438,261,2-Res,596,6.95*1e+20,Ba8Ga16Ge30,200,0.000012953,,,77202.1925422682
303,10.1063/1.2939438,261,2-Res,596,6.95*1e+20,Ba8Ga16Ge30,250,0.000014065,,,71098.4713828653
303,10.1063/1.2939438,261,2-Res,596,6.95*1e+20,Ba8Ga16Ge30,300,0.000015262,,,65522.2120298781
303,10.1063/1.2939438,262,2-Seebeck,597,6.84*1e+20,Ba8Ga16Ge30,350,0.000018304,0.00019926,-0.000060393,54632.8671328671
303,10.1063/1.2939438,262,2-Seebeck,597,6.84*1e+20,Ba8Ga16Ge30,400,0.000019959,0.00025723,-0.000071653,50102.7105566411
303,10.1063/1.2939438,262,2-Seebeck,597,6.84*1e+20,Ba8Ga16Ge30,450,0.000021641,0.00031661,-0.000082775,46208.5855551962
303,10.1063/1.2939438,262,2-Seebeck,597,6.84*1e+20,Ba8Ga16Ge30,500,,,-0.000093186,
303,10.1063/1.2939438,262,2-Seebeck,597,6.84*1e+20,Ba8Ga16Ge30,550,,,-0.00010329,
303,10.1063/1.2939438,262,2-Seebeck,597,6.84*1e+20,Ba8Ga16Ge30,600,,,-0.00011386,
303,10.1063/1.2939438,262,2-Seebeck,597,6.84*1e+20,Ba8Ga16Ge30,650,,,-0.00012542,
303,10.1063/1.2939438,262,2-Seebeck,597,6.84*1e+20,Ba8Ga16Ge30,700,,,-0.00013764,
303,10.1063/1.2939438,262,2-Seebeck,597,6.84*1e+20,Ba8Ga16Ge30,750,,,-0.00014871,
303,10.1063/1.2939438,261,2-Res,597,6.84*1e+20,Ba8Ga16Ge30,100,0.000011914,,,83934.8665435622
303,10.1063/1.2939438,261,2-Res,597,6.84*1e+20,Ba8Ga16Ge30,150,0.000013005,,,76893.5024990388
303,10.1063/1.2939438,261,2-Res,597,6.84*1e+20,Ba8Ga16Ge30,200,0.000014116,,,70841.5981864551
303,10.1063/1.2939438,261,2-Res,597,6.84*1e+20,Ba8Ga16Ge30,250,0.000015351,,,65142.3360041691
303,10.1063/1.2939438,261,2-Res,597,6.84*1e+20,Ba8Ga16Ge30,300,0.000016751,,,59697.9284818817
303,10.1063/1.2939438,262,2-Seebeck,598,5.94*1e+20,Ba8Ga16Ge30,350,0.000019111,0.00020652,-0.000062824,52325.885615614
303,10.1063/1.2939438,262,2-Seebeck,598,5.94*1e+20,Ba8Ga16Ge30,400,0.000020859,0.00026225,-0.000073961,47940.9367659044
303,10.1063/1.2939438,262,2-Seebeck,598,5.94*1e+20,Ba8Ga16Ge30,450,0.000022636,0.00031917,-0.000084999,44177.4165046828
303,10.1063/1.2939438,262,2-Seebeck,598,5.94*1e+20,Ba8Ga16Ge30,500,,,-0.000095521,
303,10.1063/1.2939438,262,2-Seebeck,598,5.94*1e+20,Ba8Ga16Ge30,550,,,-0.00010584,
303,10.1063/1.2939438,262,2-Seebeck,598,5.94*1e+20,Ba8Ga16Ge30,600,,,-0.00011655,
303,10.1063/1.2939438,262,2-Seebeck,598,5.94*1e+20,Ba8Ga16Ge30,650,,,-0.00012806,
303,10.1063/1.2939438,262,2-Seebeck,598,5.94*1e+20,Ba8Ga16Ge30,700,,,-0.0001402,
303,10.1063/1.2939438,262,2-Seebeck,598,5.94*1e+20,Ba8Ga16Ge30,750,,,-0.0001517,
303,10.1063/1.2939438,261,2-Res,598,5.94*1e+20,Ba8Ga16Ge30,100,0.000012852,,,77808.9013383131
303,10.1063/1.2939438,261,2-Res,598,5.94*1e+20,Ba8Ga16Ge30,150,0.00001396,,,71633.2378223496
303,10.1063/1.2939438,261,2-Res,598,5.94*1e+20,Ba8Ga16Ge30,200,0.000015036,,,66507.0497472732
303,10.1063/1.2939438,261,2-Res,598,5.94*1e+20,Ba8Ga16Ge30,250,0.000016199,,,61732.2056917094
303,10.1063/1.2939438,261,2-Res,598,5.94*1e+20,Ba8Ga16Ge30,300,0.000017543,,,57002.7931368637
303,10.1063/1.2939438,262,2-Seebeck,599,5.57*1e+20,Ba8Ga16Ge30,350,0.000022958,0.00013694,-0.000056071,43557.8012021953
303,10.1063/1.2939438,262,2-Seebeck,599,5.57*1e+20,Ba8Ga16Ge30,400,0.000024867,0.00017438,-0.00006585,40213.9381509631
303,10.1063/1.2939438,262,2-Seebeck,599,5.57*1e+20,Ba8Ga16Ge30,450,0.000026878,0.00021429,-0.000075893,37205.1491926483
303,10.1063/1.2939438,262,2-Seebeck,599,5.57*1e+20,Ba8Ga16Ge30,500,,,-0.000085798,
303,10.1063/1.2939438,262,2-Seebeck,599,5.57*1e+20,Ba8Ga16Ge30,550,,,-0.000095644,
303,10.1063/1.2939438,262,2-Seebeck,599,5.57*1e+20,Ba8Ga16Ge30,600,,,-0.00010573,
303,10.1063/1.2939438,262,2-Seebeck,599,5.57*1e+20,Ba8Ga16Ge30,650,,,-0.00011631,
303,10.1063/1.2939438,262,2-Seebeck,599,5.57*1e+20,Ba8Ga16Ge30,700,,,-0.00012735,
303,10.1063/1.2939438,262,2-Seebeck,599,5.57*1e+20,Ba8Ga16Ge30,750,,,-0.00013825,
303,10.1063/1.2939438,261,2-Res,599,5.57*1e+20,Ba8Ga16Ge30,50,0.000017495,,,57159.1883395256
303,10.1063/1.2939438,261,2-Res,599,5.57*1e+20,Ba8Ga16Ge30,100,0.000018297,,,54653.7683773296
303,10.1063/1.2939438,261,2-Res,599,5.57*1e+20,Ba8Ga16Ge30,150,0.000018903,,,52901.6558218272
303,10.1063/1.2939438,261,2-Res,599,5.57*1e+20,Ba8Ga16Ge30,200,0.000019497,,,51289.9420423655
303,10.1063/1.2939438,261,2-Res,599,5.57*1e+20,Ba8Ga16Ge30,250,0.000020277,,,49316.9601025793
303,10.1063/1.2939438,261,2-Res,599,5.57*1e+20,Ba8Ga16Ge30,300,0.000021406,,,46715.8740540036
303,10.1063/1.2939438,261,2-Res,578,10.2*10^20,Ba8Ga16Ge30,100,0.0000091237,,,109604.6560057871
303,10.1063/1.2939438,261,2-Res,578,10.2*10^20,Ba8Ga16Ge30,150,0.00001002,,,99800.3992015968
303,10.1063/1.2939438,261,2-Res,578,10.2*10^20,Ba8Ga16Ge30,200,0.000011038,,,90596.1224859576
303,10.1063/1.2939438,261,2-Res,578,10.2*10^20,Ba8Ga16Ge30,250,0.000012148,,,82318.0770497201
303,10.1063/1.2939438,261,2-Res,578,10.2*10^20,Ba8Ga16Ge30,300,0.000013317,,,75091.987684914
303,10.1063/1.2939438,261,2-Res,578,10.2*10^20,Ba8Ga16Ge30,350,0.00001451,,,68917.9875947622
303,10.1063/1.2939438,261,2-Res,578,10.2*10^20,Ba8Ga16Ge30,400,0.000015696,,,63710.499490316
303,10.1063/1.2939438,261,2-Res,578,10.2*10^20,Ba8Ga16Ge30,450,0.000016852,,,59340.1376691194
303,10.1063/1.2939438,261,2-Res,578,10.2*10^20,Ba8Ga16Ge30,500,0.000017966,,,55660.6924190137
303,10.1063/1.2939438,261,2-Res,578,10.2*10^20,Ba8Ga16Ge30,550,0.000019037,,,52529.2850764301
303,10.1063/1.2939438,261,2-Res,578,10.2*10^20,Ba8Ga16Ge30,600,0.000020085,,,49788.3993029624
303,10.1063/1.2939438,261,2-Res,578,10.2*10^20,Ba8Ga16Ge30,650,0.000021149,,,47283.5595063596