sid,DOI,figureid,fignum,sampleid,samplename,composition,Temperature,Carrier concentration,Carrier mobility,Electrical conductivity,Electrical resistivity,Power factor,Seebeck coefficient,Thermal conductivity,ZT,Figure of merit Z
16681,10.1073/pnas.1111419109,25545,3b,31799,Br-PbSe_ 1E19,undefined,300,,,1711200,5.844e-7,,,,,
16681,10.1073/pnas.1111419109,25545,3b,31799,Br-PbSe_ 1E19,undefined,850,,,13927,0.000071805,,,0.858,0.76549,
16681,10.1073/pnas.1111419109,25544,3a,31800,Br-PbSe_ 2E19,undefined,350,,,2271000,4.403e-7,25584000000,-106.14,2.2073,0.35041,11590631087.75427
16681,10.1073/pnas.1111419109,25544,3a,31800,Br-PbSe_ 2E19,undefined,400,,,213730,0.0000046788,3081800000,-120.08,2.0702,0.42149,1488648439.7642741
16681,10.1073/pnas.1111419109,25544,3a,31800,Br-PbSe_ 2E19,undefined,450,,,112140,0.0000089172,2014200000,-134.02,1.933,0.49257,1042007242.6280392
16681,10.1073/pnas.1111419109,25544,3a,31800,Br-PbSe_ 2E19,undefined,500,,,76011,0.000013156,1664000000,-147.96,1.7959,0.56364,926554930.6754273
16681,10.1073/pnas.1111419109,25544,3a,31800,Br-PbSe_ 2E19,undefined,550,,,57491,0.000017394,1506900000,-161.9,1.6587,0.63472,908482546.572617
16681,10.1073/pnas.1111419109,25544,3a,31800,Br-PbSe_ 2E19,undefined,600,,,46228,0.000021632,1429400000,-175.84,1.5216,0.70579,939405888.5383806
16681,10.1073/pnas.1111419109,25544,3a,31800,Br-PbSe_ 2E19,undefined,650,,,38653,0.000025871,1392100000,-189.78,1.3844,0.77687,1005561976.3074255
16681,10.1073/pnas.1111419109,25544,3a,31800,Br-PbSe_ 2E19,undefined,700,,,33213,0.000030109,1378500000,-203.73,1.2473,0.84794,1105187204.3614206
16681,10.1073/pnas.1111419109,25544,3a,31800,Br-PbSe_ 2E19,undefined,750,,,29114,0.000034348,1379400000,-217.67,1.1101,0.91902,1242590757.5894063
16681,10.1073/pnas.1111419109,25544,3a,31800,Br-PbSe_ 2E19,undefined,800,,,25916,0.000038586,1390200000,-231.61,0.97296,0.99009,1428835717.8095708
16681,10.1073/pnas.1111419109,25545,3b,31800,Br-PbSe_ 2E19,undefined,300,,,-263290,-0.0000037981,,,,0.27934,
16681,10.1073/pnas.1111419109,25545,3b,31800,Br-PbSe_ 2E19,undefined,850,,,23351,0.000042825,,,,1.0612,
16681,10.1073/pnas.1111419109,25544,3a,31801,Br-PbSe_ 3E19,undefined,350,,,1164900,8.584e-7,6506200000,-74.734,2.7274,0.16251,2385495343.5506344
16681,10.1073/pnas.1111419109,25544,3a,31801,Br-PbSe_ 3E19,undefined,400,,,313470,0.0000031901,2458300000,-88.556,2.5437,0.26251,966426858.5131896
16681,10.1073/pnas.1111419109,25544,3a,31801,Br-PbSe_ 3E19,undefined,450,,,181100,0.0000055218,1898200000,-102.38,2.36,0.36251,804322033.8983052
16681,10.1073/pnas.1111419109,25544,3a,31801,Br-PbSe_ 3E19,undefined,500,,,127330,0.0000078535,1719300000,-116.2,2.1762,0.46251,790046870.692032
16681,10.1073/pnas.1111419109,25544,3a,31801,Br-PbSe_ 3E19,undefined,550,,,98184,0.000010185,1659800000,-130.02,1.9925,0.56251,833023839.3977416
16681,10.1073/pnas.1111419109,25544,3a,31801,Br-PbSe_ 3E19,undefined,600,,,79891,0.000012517,1653200000,-143.85,1.8087,0.66251,914026648.9744015
16681,10.1073/pnas.1111419109,25544,3a,31801,Br-PbSe_ 3E19,undefined,650,,,67345,0.000014849,1674200000,-157.67,1.625,0.76251,1030276923.0769231
16681,10.1073/pnas.1111419109,25544,3a,31801,Br-PbSe_ 3E19,undefined,700,,,58207,0.00001718,1711800000,-171.49,1.4413,0.86251,1187677790.8832304
16681,10.1073/pnas.1111419109,25544,3a,31801,Br-PbSe_ 3E19,undefined,750,,,51251,0.000019512,1759900000,-185.31,1.2575,0.96251,1399522862.8230615
16681,10.1073/pnas.1111419109,25544,3a,31801,Br-PbSe_ 3E19,undefined,800,,,45779,0.000021844,1815400000,-199.14,1.0738,1.0625,1690631402.495809
16681,10.1073/pnas.1111419109,25544,3a,31801,Br-PbSe_ 3E19,undefined,850,,,41365,0.000024175,1876000000,-212.96,0.89007,1.1625,2107699394.4296515
16681,10.1073/pnas.1111419109,25545,3b,31801,Br-PbSe_ 3E19,undefined,300,,,-678790,-0.0000014732,,,,,
16681,10.1073/pnas.1111419109,25544,3a,31803,Br-PbSe_ 5E19,undefined,350,,,529020,0.0000018903,1859000000,-59.279,3.2345,0.10644,574741072.8087803
16681,10.1073/pnas.1111419109,25544,3a,31803,Br-PbSe_ 5E19,undefined,400,,,287220,0.0000034816,1437400000,-70.742,3.0133,0.1888,477018551.0901669
16681,10.1073/pnas.1111419109,25544,3a,31803,Br-PbSe_ 5E19,undefined,450,,,197120,0.000005073,1332100000,-82.205,2.7921,0.27117,477096092.54682857
16681,10.1073/pnas.1111419109,25544,3a,31803,Br-PbSe_ 5E19,undefined,500,,,150050,0.0000066643,1316500000,-93.669,2.571,0.35354,512057565.14974713
16681,10.1073/pnas.1111419109,25544,3a,31803,Br-PbSe_ 5E19,undefined,550,,,121130,0.0000082556,1338800000,-105.13,2.3498,0.4359,569750617.0737935
16681,10.1073/pnas.1111419109,25544,3a,31803,Br-PbSe_ 5E19,undefined,600,,,101550,0.000009847,1380400000,-116.59,2.1286,0.51827,648501362.3978201
16681,10.1073/pnas.1111419109,25544,3a,31803,Br-PbSe_ 5E19,undefined,650,,,87428,0.000011438,1433800000,-128.06,1.9074,0.60063,751703890.1121947
16681,10.1073/pnas.1111419109,25544,3a,31803,Br-PbSe_ 5E19,undefined,700,,,76746,0.00001303,1493900000,-139.52,1.6862,0.683,885956588.7795043
16681,10.1073/pnas.1111419109,25544,3a,31803,Br-PbSe_ 5E19,undefined,750,,,68395,0.000014621,1559100000,-150.98,1.465,0.76537,1064232081.9112628
16681,10.1073/pnas.1111419109,25544,3a,31803,Br-PbSe_ 5E19,undefined,800,,,61683,0.000016212,1627800000,-162.45,1.2438,0.84773,1308731307.2841294
16681,10.1073/pnas.1111419109,25544,3a,31803,Br-PbSe_ 5E19,undefined,850,,,,,,-173.91,1.0227,0.9301,
16681,10.1073/pnas.1111419109,25544,3a,31802,Br-PbSe_ 4E19,undefined,350,,,285060,0.000003508,1374100000,-69.428,3.05,0.15722,450524590.16393447
16681,10.1073/pnas.1111419109,25544,3a,31802,Br-PbSe_ 4E19,undefined,400,,,237470,0.0000042111,1600500000,-82.095,2.8387,0.24785,563814422.0946208
16681,10.1073/pnas.1111419109,25544,3a,31802,Br-PbSe_ 4E19,undefined,450,,,191330,0.0000052265,1718100000,-94.762,2.6274,0.33848,653916419.2738068
16681,10.1073/pnas.1111419109,25544,3a,31802,Br-PbSe_ 4E19,undefined,500,,,152570,0.0000065543,1760800000,-107.43,2.4161,0.42911,728777782.3765572
16681,10.1073/pnas.1111419109,25544,3a,31802,Br-PbSe_ 4E19,undefined,550,,,122030,0.0000081945,1760200000,-120.1,2.2048,0.51974,798349056.6037736
16681,10.1073/pnas.1111419109,25544,3a,31802,Br-PbSe_ 4E19,undefined,600,,,98551,0.000010147,1737000000,-132.76,1.9934,0.61036,871375539.2796227
16681,10.1073/pnas.1111419109,25544,3a,31802,Br-PbSe_ 4E19,undefined,650,,,80567,0.000012412,1704000000,-145.43,1.7821,0.70099,956175298.8047808
16681,10.1073/pnas.1111419109,25544,3a,31802,Br-PbSe_ 4E19,undefined,700,,,66716,0.000014989,1667600000,-158.1,1.5708,0.79162,1061624649.859944
16681,10.1073/pnas.1111419109,25544,3a,31802,Br-PbSe_ 4E19,undefined,750,,,55932,0.000017879,1630900000,-170.76,1.3595,0.88225,1199632217.7271056
16681,10.1073/pnas.1111419109,25544,3a,31802,Br-PbSe_ 4E19,undefined,800,,,47436,0.000021081,1596100000,-183.43,1.1482,0.97288,1390088834.6977878
16681,10.1073/pnas.1111419109,25545,3b,31802,Br-PbSe_ 4E19,undefined,850,,,40657,0.000024596,,,,1.0635,
16681,10.1073/pnas.1111419109,25547,4a,31802,Br-PbSe_ 4E19,undefined,300,,,,,,,,0.066594,
16681,10.1073/pnas.1111419109,25544,3a,31804,Br-PbSe_ 6E19,undefined,350,,,410420,0.0000024365,951650000,-48.153,3.6664,0.065055,259559786.16626665
16681,10.1073/pnas.1111419109,25544,3a,31804,Br-PbSe_ 6E19,undefined,400,,,340560,0.0000029363,1191300000,-59.145,3.4178,0.14243,348557551.6414067
16681,10.1073/pnas.1111419109,25544,3a,31804,Br-PbSe_ 6E19,undefined,450,,,275760,0.0000036263,1356500000,-70.137,3.1692,0.21981,428026000.2524296
16681,10.1073/pnas.1111419109,25544,3a,31804,Br-PbSe_ 6E19,undefined,500,,,221900,0.0000045065,1460500000,-81.129,2.9206,0.29719,500068479.07964116
16681,10.1073/pnas.1111419109,25544,3a,31804,Br-PbSe_ 6E19,undefined,550,,,179310,0.0000055768,1521600000,-92.12,2.672,0.37456,569461077.8443114
16681,10.1073/pnas.1111419109,25544,3a,31804,Br-PbSe_ 6E19,undefined,600,,,146250,0.0000068374,1554900000,-103.11,2.4234,0.45194,641619212.6764051
16681,10.1073/pnas.1111419109,25544,3a,31804,Br-PbSe_ 6E19,undefined,650,,,120660,0.000008288,1570800000,-114.1,2.1749,0.52932,722240102.9932411
16681,10.1073/pnas.1111419109,25544,3a,31804,Br-PbSe_ 6E19,undefined,700,,,100720,0.0000099289,1576300000,-125.1,1.9263,0.60669,818304521.6217619
16681,10.1073/pnas.1111419109,25544,3a,31804,Br-PbSe_ 6E19,undefined,750,,,85034,0.00001176,1574900000,-136.09,1.6777,0.68407,938725636.2877749
16681,10.1073/pnas.1111419109,25544,3a,31804,Br-PbSe_ 6E19,undefined,800,,,72564,0.000013781,1569700000,-147.08,1.4291,0.76145,1098383598.0687146
16681,10.1073/pnas.1111419109,25544,3a,31804,Br-PbSe_ 6E19,undefined,850,,,62527,0.000015993,1562300000,-158.07,,0.83883,
16681,10.1073/pnas.1111419109,25545,3b,31804,Br-PbSe_ 6E19,undefined,300,,,470170,0.0000021269,,,,,
18596,10.1002/aenm.201700099,25444,2a,31676,Pb1−xBixTe_ x=0.3%,Pb0.997Bi0.003Te,350,,,47831,0.000020907,0.00094097,-0.00014026,2.4533,0.19497,0.0003835528
18596,10.1002/aenm.201700099,25444,2a,31676,Pb1−xBixTe_ x=0.3%,Pb0.997Bi0.003Te,400,,,45017,0.000022214,0.0010473,-0.00015253,2.3312,0.25448,0.0004492536
18596,10.1002/aenm.201700099,25444,2a,31676,Pb1−xBixTe_ x=0.3%,Pb0.997Bi0.003Te,450,,,42204,0.000023694,0.0011461,-0.00016479,2.209,0.314,0.0005188321
18596,10.1002/aenm.201700099,25444,2a,31676,Pb1−xBixTe_ x=0.3%,Pb0.997Bi0.003Te,500,,,39391,0.000025387,0.0012348,-0.00017705,2.0869,0.37352,0.000591691
18596,10.1002/aenm.201700099,25444,2a,31676,Pb1−xBixTe_ x=0.3%,Pb0.997Bi0.003Te,550,,,36577,0.00002734,0.0013109,-0.00018931,1.9648,0.43303,0.0006671926
18596,10.1002/aenm.201700099,25444,2a,31676,Pb1−xBixTe_ x=0.3%,Pb0.997Bi0.003Te,600,,,33764,0.000029617,0.0013718,-0.00020157,1.8426,0.49255,0.0007444915
18596,10.1002/aenm.201700099,25444,2a,31676,Pb1−xBixTe_ x=0.3%,Pb0.997Bi0.003Te,650,,,30950,0.00003231,0.0014151,-0.00021383,1.7205,0.55207,0.0008224935
18596,10.1002/aenm.201700099,25444,2a,31676,Pb1−xBixTe_ x=0.3%,Pb0.997Bi0.003Te,700,,,28137,0.00003554,0.0014383,-0.00022609,1.5984,0.61158,0.0008998373
18596,10.1002/aenm.201700099,25444,2a,31676,Pb1−xBixTe_ x=0.3%,Pb0.997Bi0.003Te,750,,,25324,0.000039488,0.0014387,-0.00023835,1.4762,0.6711,0.0009745969
18596,10.1002/aenm.201700099,25444,2a,31676,Pb1−xBixTe_ x=0.3%,Pb0.997Bi0.003Te,800,,,22510,0.000044425,0.0014137,-0.00025061,1.3541,0.73061,0.0010440145
18596,10.1002/aenm.201700099,25444,2a,31676,Pb1−xBixTe_ x=0.3%,Pb0.997Bi0.003Te,850,,,19697,0.000050769,0.0013611,-0.00026287,1.232,0.79013,0.001104789
18596,10.1002/aenm.201700099,25444,2a,31677,Pb1−xBixTe_ x=0.5%,Pb0.995Bi0.005Te,350,,,65053,0.000015372,0.00079201,-0.00011034,2.613,0.15479,0.0003031037
18596,10.1002/aenm.201700099,25444,2a,31677,Pb1−xBixTe_ x=0.5%,Pb0.995Bi0.005Te,400,,,60480,0.000016534,0.0009355,-0.00012437,2.4764,0.21507,0.0003777661
18596,10.1002/aenm.201700099,25444,2a,31677,Pb1−xBixTe_ x=0.5%,Pb0.995Bi0.005Te,450,,,55906,0.000017887,0.0010709,-0.0001384,2.3398,0.27536,0.0004576887
18596,10.1002/aenm.201700099,25444,2a,31677,Pb1−xBixTe_ x=0.5%,Pb0.995Bi0.005Te,500,,,51333,0.000019481,0.0011927,-0.00015243,2.2032,0.33565,0.0005413489
18596,10.1002/aenm.201700099,25444,2a,31677,Pb1−xBixTe_ x=0.5%,Pb0.995Bi0.005Te,550,,,46759,0.000021386,0.0012956,-0.00016646,2.0666,0.39594,0.0006269234
18596,10.1002/aenm.201700099,25444,2a,31677,Pb1−xBixTe_ x=0.5%,Pb0.995Bi0.005Te,600,,,42186,0.000023705,0.0013743,-0.00018049,1.93,0.45623,0.0007120725
18596,10.1002/aenm.201700099,25444,2a,31677,Pb1−xBixTe_ x=0.5%,Pb0.995Bi0.005Te,650,,,37612,0.000026587,0.0014232,-0.00019452,1.7934,0.51652,0.0007935764
18596,10.1002/aenm.201700099,25444,2a,31677,Pb1−xBixTe_ x=0.5%,Pb0.995Bi0.005Te,700,,,33039,0.000030267,0.001437,-0.00020855,1.6567,0.57681,0.000867387
18596,10.1002/aenm.201700099,25444,2a,31677,Pb1−xBixTe_ x=0.5%,Pb0.995Bi0.005Te,750,,,28465,0.000035131,0.0014103,-0.00022259,1.5201,0.63709,0.0009277679
18596,10.1002/aenm.201700099,25444,2a,31677,Pb1−xBixTe_ x=0.5%,Pb0.995Bi0.005Te,800,,,23892,0.000041855,0.0013377,-0.00023662,1.3835,0.69738,0.0009668956
18596,10.1002/aenm.201700099,25444,2a,31677,Pb1−xBixTe_ x=0.5%,Pb0.995Bi0.005Te,850,,,19318,0.000051765,0.0012137,-0.00025065,1.2469,0.75767,0.000973374
18596,10.1002/aenm.201700099,25444,2a,31678,Pb1−xBixTe_ x= 0.7%,Pb0.993Bi0.007Te,350,,,99311,0.000010069,0.00077032,-0.000088072,2.7077,0.11296,0.0002844924
18596,10.1002/aenm.201700099,25444,2a,31678,Pb1−xBixTe_ x= 0.7%,Pb0.993Bi0.007Te,400,,,91283,0.000010955,0.00094841,-0.00010193,2.5638,0.17573,0.0003699236
18596,10.1002/aenm.201700099,25444,2a,31678,Pb1−xBixTe_ x= 0.7%,Pb0.993Bi0.007Te,450,,,83256,0.000012011,0.001116,-0.00011578,2.4199,0.2385,0.0004611761
18596,10.1002/aenm.201700099,25444,2a,31678,Pb1−xBixTe_ x= 0.7%,Pb0.993Bi0.007Te,500,,,75228,0.000013293,0.0012641,-0.00012963,2.276,0.30126,0.0005554042
18596,10.1002/aenm.201700099,25444,2a,31678,Pb1−xBixTe_ x= 0.7%,Pb0.993Bi0.007Te,550,,,67200,0.000014881,0.0013836,-0.00014349,2.132,0.36403,0.0006489681
18596,10.1002/aenm.201700099,25444,2a,31678,Pb1−xBixTe_ x= 0.7%,Pb0.993Bi0.007Te,600,,,59172,0.0000169,0.0014649,-0.00015734,1.9881,0.4268,0.0007368342
18596,10.1002/aenm.201700099,25444,2a,31678,Pb1−xBixTe_ x= 0.7%,Pb0.993Bi0.007Te,650,,,51145,0.000019552,0.001499,-0.0001712,1.8442,0.48957,0.0008128186
18596,10.1002/aenm.201700099,25444,2a,31678,Pb1−xBixTe_ x= 0.7%,Pb0.993Bi0.007Te,700,,,43117,0.000023193,0.0014765,-0.00018505,1.7003,0.55233,0.0008683762
18596,10.1002/aenm.201700099,25444,2a,31678,Pb1−xBixTe_ x= 0.7%,Pb0.993Bi0.007Te,750,,,35089,0.000028499,0.0013883,-0.00019891,1.5564,0.6151,0.0008919943
18596,10.1002/aenm.201700099,25444,2a,31678,Pb1−xBixTe_ x= 0.7%,Pb0.993Bi0.007Te,800,,,27061,0.000036954,0.001225,-0.00021276,1.4125,0.67787,0.0008672566
18596,10.1002/aenm.201700099,25444,2a,31678,Pb1−xBixTe_ x= 0.7%,Pb0.993Bi0.007Te,850,,,19034,0.000052538,0.00097744,-0.00022661,1.2685,0.74064,0.0007705479
18596,10.1002/aenm.201700099,25444,2a,31678,Pb1−xBixTe_ x= 0.7%,Pb0.993Bi0.007Te,900,,,11006,0.00009086,0.00063643,-0.00024047,,0.8034,
18596,10.1002/aenm.201700099,25444,2a,31679,Pb1−xBixTe. x=1.0%,Pb0.99Bi0.01Te,350,,,118580,0.0000084331,0.00065538,-0.000074343,2.7219,0.09837,0.0002407803
18596,10.1002/aenm.201700099,25444,2a,31679,Pb1−xBixTe. x=1.0%,Pb0.99Bi0.01Te,400,,,108610,0.0000092073,0.00084741,-0.000088331,2.5789,0.1597,0.0003285936
18596,10.1002/aenm.201700099,25444,2a,31679,Pb1−xBixTe. x=1.0%,Pb0.99Bi0.01Te,450,,,98648,0.000010137,0.0010328,-0.00010232,2.4359,0.22103,0.0004239911
18596,10.1002/aenm.201700099,25444,2a,31679,Pb1−xBixTe. x=1.0%,Pb0.99Bi0.01Te,500,,,88683,0.000011276,0.0011997,-0.00011631,2.293,0.28236,0.000523201
18596,10.1002/aenm.201700099,25444,2a,31679,Pb1−xBixTe. x=1.0%,Pb0.99Bi0.01Te,550,,,78718,0.000012704,0.0013363,-0.00013029,2.15,0.34369,0.0006215349
18596,10.1002/aenm.201700099,25444,2a,31679,Pb1−xBixTe. x=1.0%,Pb0.99Bi0.01Te,600,,,68752,0.000014545,0.0014312,-0.00014428,2.007,0.40502,0.0007131041
18596,10.1002/aenm.201700099,25444,2a,31679,Pb1−xBixTe. x=1.0%,Pb0.99Bi0.01Te,650,,,58787,0.000017011,0.0014726,-0.00015827,1.864,0.46635,0.0007900215
18596,10.1002/aenm.201700099,25444,2a,31679,Pb1−xBixTe. x=1.0%,Pb0.99Bi0.01Te,700,,,48822,0.000020483,0.0014487,-0.00017226,1.721,0.52768,0.000841778
18596,10.1002/aenm.201700099,25444,2a,31679,Pb1−xBixTe. x=1.0%,Pb0.99Bi0.01Te,750,,,38857,0.000025735,0.0013479,-0.00018625,1.5781,0.58901,0.0008541284
18596,10.1002/aenm.201700099,25444,2a,31679,Pb1−xBixTe. x=1.0%,Pb0.99Bi0.01Te,800,,,28891,0.000034613,0.0011583,-0.00020023,1.4351,0.65034,0.0008071215
18596,10.1002/aenm.201700099,25444,2a,31679,Pb1−xBixTe. x=1.0%,Pb0.99Bi0.01Te,850,,,18926,0.000052837,0.00086852,-0.00021422,1.2921,0.71168,0.0006721771
18596,10.1002/aenm.201700099,25444,2a,31679,Pb1−xBixTe. x=1.0%,Pb0.99Bi0.01Te,900,,,8960.9,0.0001116,,,,0.77301,
18596,10.1002/aenm.201700099,25444,2a,31680,Pb1−xBixTe_ x= 1.25%,Pb0.9875Bi0.0125Te,350,,,141990,0.0000070427,0.00067218,-0.000068804,2.7694,0.08406,0.0002427168
18596,10.1002/aenm.201700099,25444,2a,31680,Pb1−xBixTe_ x= 1.25%,Pb0.9875Bi0.0125Te,400,,,130180,0.0000076817,0.00087266,-0.000081875,2.6306,0.14675,0.0003317342
18596,10.1002/aenm.201700099,25444,2a,31680,Pb1−xBixTe_ x= 1.25%,Pb0.9875Bi0.0125Te,450,,,118360,0.0000084488,0.001067,-0.000094947,2.4917,0.20944,0.0004282217
18596,10.1002/aenm.201700099,25444,2a,31680,Pb1−xBixTe_ x= 1.25%,Pb0.9875Bi0.0125Te,500,,,106550,0.0000093853,0.0012433,-0.00010802,2.3529,0.27213,0.0005284117
18596,10.1002/aenm.201700099,25444,2a,31680,Pb1−xBixTe_ x= 1.25%,Pb0.9875Bi0.0125Te,550,,,94742,0.000010555,0.0013892,-0.00012109,2.214,0.33481,0.0006274616
18596,10.1002/aenm.201700099,25444,2a,31680,Pb1−xBixTe_ x= 1.25%,Pb0.9875Bi0.0125Te,600,,,82930,0.000012058,0.0014926,-0.00013416,2.0752,0.3975,0.000719256
18596,10.1002/aenm.201700099,25444,2a,31680,Pb1−xBixTe_ x= 1.25%,Pb0.9875Bi0.0125Te,650,,,71118,0.000014061,0.0015416,-0.00014723,1.9363,0.46019,0.0007961576
18596,10.1002/aenm.201700099,25444,2a,31680,Pb1−xBixTe_ x= 1.25%,Pb0.9875Bi0.0125Te,700,,,59307,0.000016861,0.001524,-0.0001603,1.7975,0.52288,0.0008478442
18596,10.1002/aenm.201700099,25444,2a,31680,Pb1−xBixTe_ x= 1.25%,Pb0.9875Bi0.0125Te,750,,,47495,0.000021055,0.0014276,-0.00017337,1.6586,0.58557,0.0008607259
18596,10.1002/aenm.201700099,25444,2a,31680,Pb1−xBixTe_ x= 1.25%,Pb0.9875Bi0.0125Te,800,,,35684,0.000028024,0.0012405,-0.00018645,1.5198,0.64826,0.0008162258
18596,10.1002/aenm.201700099,25444,2a,31680,Pb1−xBixTe_ x= 1.25%,Pb0.9875Bi0.0125Te,850,,,23872,0.00004189,0.0009503,-0.00019952,1.381,0.71095,0.0006881245
18596,10.1002/aenm.201700099,25444,2a,31680,Pb1−xBixTe_ x= 1.25%,Pb0.9875Bi0.0125Te,900,,,12060,0.000082919,0.00054505,-0.00021259,1.2421,0.77363,0.0004388133
18596,10.1002/aenm.201700099,25445,2b,31680,Pb1−xBixTe_ x= 1.25%,Pb0.9875Bi0.0125Te,300,,,,,,-0.000055732,,,
18596,10.1002/aenm.201700099,25445,2b,31681,Pb1−xBixTe_ x=1.5%,Pb.985Bi0.015Te,350,,,169820,0.0000058886,0.00045142,-0.000051558,2.7642,0.031857,0.0001633095
18596,10.1002/aenm.201700099,25445,2b,31681,Pb1−xBixTe_ x=1.5%,Pb.985Bi0.015Te,400,,,154810,0.0000064595,0.00064741,-0.000064668,2.6246,0.093069,0.00024667
18596,10.1002/aenm.201700099,25445,2b,31681,Pb1−xBixTe_ x=1.5%,Pb.985Bi0.015Te,450,,,139790,0.0000071536,0.00084563,-0.000077777,2.485,0.15428,0.0003402938
18596,10.1002/aenm.201700099,25445,2b,31681,Pb1−xBixTe_ x=1.5%,Pb.985Bi0.015Te,500,,,124780,0.0000080141,0.0010307,-0.000090886,2.3455,0.21549,0.0004394372
18596,10.1002/aenm.201700099,25445,2b,31681,Pb1−xBixTe_ x=1.5%,Pb.985Bi0.015Te,550,,,109770,0.00000911,0.0011873,-0.000104,2.2059,0.2767,0.0005382384
18596,10.1002/aenm.201700099,25445,2b,31681,Pb1−xBixTe_ x=1.5%,Pb.985Bi0.015Te,600,,,94755,0.000010554,0.0012995,-0.00011711,2.0664,0.33792,0.0006288715
18596,10.1002/aenm.201700099,25445,2b,31681,Pb1−xBixTe_ x=1.5%,Pb.985Bi0.015Te,650,,,79742,0.00001254,0.001352,-0.00013021,1.9268,0.39913,0.0007016815
18596,10.1002/aenm.201700099,25445,2b,31681,Pb1−xBixTe_ x=1.5%,Pb.985Bi0.015Te,700,,,64728,0.000015449,0.0013296,-0.00014332,1.7872,0.46034,0.000743957
18596,10.1002/aenm.201700099,25445,2b,31681,Pb1−xBixTe_ x=1.5%,Pb.985Bi0.015Te,750,,,49715,0.000020115,0.0012165,-0.00015643,1.6477,0.52155,0.0007383019
18596,10.1002/aenm.201700099,25445,2b,31681,Pb1−xBixTe_ x=1.5%,Pb.985Bi0.015Te,800,,,34702,0.000028817,0.00099747,-0.00016954,1.5081,0.58276,0.0006614084
18596,10.1002/aenm.201700099,25445,2b,31681,Pb1−xBixTe_ x=1.5%,Pb.985Bi0.015Te,850,,,19689,0.00005079,0.00065685,-0.00018265,1.3686,0.64397,0.000479943
18596,10.1002/aenm.201700099,25445,2b,31681,Pb1−xBixTe_ x=1.5%,Pb.985Bi0.015Te,900,,,,,,-0.00019576,,0.70519,
18596,10.1002/aenm.201700099,25474,4a,31681,Pb1−xBixTe_ x=1.5%,Pb.985Bi0.015Te,300,,,184830,0.0000054104,,,2.9037,,
18596,10.1002/aenm.201700099,25446,2c,31682,Pb1−xSbxTe_ x=0.3%,Pb0.997Sb0.003Te,300,,,2818.8,0.00035476,,,,,
18596,10.1002/aenm.201700099,25446,2c,31682,Pb1−xSbxTe_ x=0.3%,Pb0.997Sb0.003Te,350,,,3455.9,0.00028936,0.0001062,-0.0001753,1.8287,0.055373,0.000058074