sid,DOI,figureid,fignum,sampleid,samplename,composition,Temperature,Carrier concentration,Carrier mobility,Electrical conductivity,Electrical resistivity,Power factor,Seebeck coefficient,Thermal conductivity,ZT,Figure of merit Z
117,10.1002/aenm.201400486,94,3(a),282,Pb0.9995La0.0005Te1,Pb0.9995La0.0005Te1,350,,,53048,0.000018851,0.0020892,-0.00019845,1.8197,0.51442,0.0011481013
117,10.1002/aenm.201400486,94,3(a),282,Pb0.9995La0.0005Te1,Pb0.9995La0.0005Te1,400,,,38700,0.00002584,0.001902,-0.00022169,1.5777,0.51821,0.0012055524
117,10.1002/aenm.201400486,94,3(a),282,Pb0.9995La0.0005Te1,Pb0.9995La0.0005Te1,450,,,29784,0.000033575,0.0017264,-0.00024076,1.4095,0.522,0.0012248315
117,10.1002/aenm.201400486,94,3(a),282,Pb0.9995La0.0005Te1,Pb0.9995La0.0005Te1,500,,,23894,0.000041851,0.0015667,-0.00025606,1.2923,0.52579,0.0012123346
117,10.1002/aenm.201400486,94,3(a),282,Pb0.9995La0.0005Te1,Pb0.9995La0.0005Te1,550,,,19882,0.000050298,0.0014207,-0.00026731,1.212,0.52958,0.0011721947
117,10.1002/aenm.201400486,94,3(a),282,Pb0.9995La0.0005Te1,Pb0.9995La0.0005Te1,600,,,17112,0.00005844,0.0012822,-0.00027373,1.1612,0.53337,0.0011042025
117,10.1002/aenm.201400486,94,3(a),282,Pb0.9995La0.0005Te1,Pb0.9995La0.0005Te1,650,,,15211,0.000065744,0.0011442,-0.00027427,1.1385,0.53716,0.0010050066
117,10.1002/aenm.201400486,94,3(a),282,Pb0.9995La0.0005Te1,Pb0.9995La0.0005Te1,700,,,13952,0.000071673,0.00099992,-0.00026771,1.1469,0.54095,0.0008718458
117,10.1002/aenm.201400486,94,3(a),282,Pb0.9995La0.0005Te1,Pb0.9995La0.0005Te1,750,,,13202,0.000075744,0.00084418,-0.00025287,1.1924,0.54474,0.0007079671
117,10.1002/aenm.201400486,94,3(a),282,Pb0.9995La0.0005Te1,Pb0.9995La0.0005Te1,800,,,12891,0.000077572,0.00067472,-0.00022878,1.283,0.54853,0.0005258924
117,10.1002/aenm.201400486,4818,3(d),282,Pb0.9995La0.0005Te1,Pb0.9995La0.0005Te1,300,,,,,,,,0.51063,
117,10.1002/aenm.201400486,94,3(a),332,Pb0.999La0.001Te1,Pb0.999La0.001Te1,350,,,93231,0.000010726,0.0019797,-0.00014572,2.2696,0.41375,0.0008722682
117,10.1002/aenm.201400486,94,3(a),332,Pb0.999La0.001Te1,Pb0.999La0.001Te1,400,,,69677,0.000014352,0.0018981,-0.00016505,1.9487,0.45815,0.000974034
117,10.1002/aenm.201400486,94,3(a),332,Pb0.999La0.001Te1,Pb0.999La0.001Te1,450,,,54624,0.000018307,0.0018387,-0.00018347,1.7189,0.50254,0.0010696957
117,10.1002/aenm.201400486,94,3(a),332,Pb0.999La0.001Te1,Pb0.999La0.001Te1,500,,,44409,0.000022518,0.0017929,-0.00020093,1.5478,0.54693,0.0011583538
117,10.1002/aenm.201400486,94,3(a),332,Pb0.999La0.001Te1,Pb0.999La0.001Te1,550,,,37129,0.000026933,0.0017427,-0.00021665,1.4173,0.59132,0.0012295915
117,10.1002/aenm.201400486,94,3(a),332,Pb0.999La0.001Te1,Pb0.999La0.001Te1,600,,,31742,0.000031504,0.0016708,-0.00022943,1.3199,0.63571,0.0012658535
117,10.1002/aenm.201400486,94,3(a),332,Pb0.999La0.001Te1,Pb0.999La0.001Te1,650,,,27651,0.000036165,0.0015664,-0.00023801,1.2551,0.6801,0.001248028
117,10.1002/aenm.201400486,94,3(a),332,Pb0.999La0.001Te1,Pb0.999La0.001Te1,700,,,24499,0.000040818,0.0014278,-0.00024141,1.226,0.7245,0.0011646003
117,10.1002/aenm.201400486,94,3(a),332,Pb0.999La0.001Te1,Pb0.999La0.001Te1,750,,,22067,0.000045316,0.0012634,-0.00023928,1.2359,0.76889,0.001022251
117,10.1002/aenm.201400486,94,3(a),332,Pb0.999La0.001Te1,Pb0.999La0.001Te1,800,,,20227,0.00004944,0.0010911,-0.00023226,1.2843,0.81328,0.0008495679
117,10.1002/aenm.201400486,9,3(b),332,Pb0.999La0.001Te1,Pb0.999La0.001Te1,300,,,132660,0.0000075383,,,,0.36936,
117,10.1002/aenm.201400486,94,3(a),101,Pb0.99825La0.00175Te1,Pb0.99825La0.00175Te1,300,,,308460,0.0000032419,0.0017774,-0.000075909,,0.19369,
117,10.1002/aenm.201400486,94,3(a),101,Pb0.99825La0.00175Te1,Pb0.99825La0.00175Te1,350,,,251520,0.0000039759,0.002024,-0.000089705,3.0635,0.29345,0.0006606822
117,10.1002/aenm.201400486,94,3(a),101,Pb0.99825La0.00175Te1,Pb0.99825La0.00175Te1,400,,,199150,0.0000050213,0.0021656,-0.00010428,2.6268,0.39321,0.0008244252
117,10.1002/aenm.201400486,94,3(a),101,Pb0.99825La0.00175Te1,Pb0.99825La0.00175Te1,450,,,160350,0.0000062364,0.0022772,-0.00011917,2.3068,0.49296,0.0009871684
117,10.1002/aenm.201400486,94,3(a),101,Pb0.99825La0.00175Te1,Pb0.99825La0.00175Te1,500,,,132080,0.0000075709,0.0023667,-0.00013386,2.0553,0.59272,0.0011515107
117,10.1002/aenm.201400486,94,3(a),101,Pb0.99825La0.00175Te1,Pb0.99825La0.00175Te1,550,,,110590,0.0000090425,0.0024168,-0.00014783,1.8457,0.69248,0.0013094219
117,10.1002/aenm.201400486,94,3(a),101,Pb0.99825La0.00175Te1,Pb0.99825La0.00175Te1,600,,,93336,0.000010714,0.0024077,-0.00016061,1.6676,0.79224,0.0014438115
117,10.1002/aenm.201400486,94,3(a),101,Pb0.99825La0.00175Te1,Pb0.99825La0.00175Te1,650,,,78914,0.000012672,0.0023294,-0.00017181,1.5209,0.892,0.0015315931
117,10.1002/aenm.201400486,94,3(a),101,Pb0.99825La0.00175Te1,Pb0.99825La0.00175Te1,700,,,66676,0.000014998,0.0021892,-0.0001812,1.4105,0.99176,0.0015520737
117,10.1002/aenm.201400486,94,3(a),101,Pb0.99825La0.00175Te1,Pb0.99825La0.00175Te1,750,,,56325,0.000017754,0.0020065,-0.00018874,1.3405,1.0915,0.0014968295
117,10.1002/aenm.201400486,94,3(a),101,Pb0.99825La0.00175Te1,Pb0.99825La0.00175Te1,800,,,47730,0.000020951,0.0018075,-0.0001946,1.3091,1.1913,0.0013807196
117,10.1002/aenm.201400486,94,3(a),287,Pb0.99La0.01Te1,Pb0.99La0.01Te1,300,,,457540,0.0000021856,0.00078159,-0.000041331,5.3794,-0.075372,0.0001452932
117,10.1002/aenm.201400486,94,3(a),287,Pb0.99La0.01Te1,Pb0.99La0.01Te1,350,,,361000,0.0000027701,0.0008472,-0.000048444,4.768,0.0088767,0.0001776846
117,10.1002/aenm.201400486,94,3(a),287,Pb0.99La0.01Te1,Pb0.99La0.01Te1,400,,,305890,0.0000032692,0.00096655,-0.000056212,4.2713,0.093125,0.0002262894
117,10.1002/aenm.201400486,94,3(a),287,Pb0.99La0.01Te1,Pb0.99La0.01Te1,450,,,265440,0.0000037673,0.0011156,-0.000064828,3.85,0.17737,0.0002897662
117,10.1002/aenm.201400486,94,3(a),287,Pb0.99La0.01Te1,Pb0.99La0.01Te1,500,,,232130,0.000004308,0.0012742,-0.000074089,3.4784,0.26162,0.0003663178
117,10.1002/aenm.201400486,94,3(a),287,Pb0.99La0.01Te1,Pb0.99La0.01Te1,550,,,203790,0.0000049071,0.0014241,-0.000083594,3.1416,0.34587,0.000453304
117,10.1002/aenm.201400486,94,3(a),287,Pb0.99La0.01Te1,Pb0.99La0.01Te1,600,,,179650,0.0000055663,0.0015518,-0.00009294,2.8334,0.43012,0.0005476812
117,10.1002/aenm.201400486,94,3(a),287,Pb0.99La0.01Te1,Pb0.99La0.01Te1,650,,,159080,0.0000062862,0.0016525,-0.00010192,2.5532,0.51437,0.000647227
117,10.1002/aenm.201400486,94,3(a),287,Pb0.99La0.01Te1,Pb0.99La0.01Te1,700,,,141250,0.0000070797,0.0017316,-0.00011072,2.3035,0.59862,0.0007517256
117,10.1002/aenm.201400486,94,3(a),287,Pb0.99La0.01Te1,Pb0.99La0.01Te1,750,,,125230,0.0000079853,0.0018066,-0.00012011,2.0876,0.68286,0.0008653957
117,10.1002/aenm.201400486,94,3(a),287,Pb0.99La0.01Te1,Pb0.99La0.01Te1,800,,,110130,0.0000090805,0.0019087,-0.00013165,1.9065,0.76711,0.0010011539
117,10.1002/aenm.201400486,94,3(a),123,Pb0.9985La0.0015Te1,Pb0.9985La0.0015Te1,350,,,178270,0.0000056094,0.0022994,-0.00011357,2.7582,0.38836,0.0008336596
117,10.1002/aenm.201400486,94,3(a),123,Pb0.9985La0.0015Te1,Pb0.9985La0.0015Te1,400,,,133530,0.0000074891,0.0023866,-0.00013369,2.3537,0.4666,0.001013978
117,10.1002/aenm.201400486,94,3(a),123,Pb0.9985La0.0015Te1,Pb0.9985La0.0015Te1,450,,,105190,0.0000095064,0.0024345,-0.00015213,2.0563,0.54484,0.0011839226
117,10.1002/aenm.201400486,94,3(a),123,Pb0.9985La0.0015Te1,Pb0.9985La0.0015Te1,500,,,85594,0.000011683,0.0024426,-0.00016893,1.8278,0.62307,0.0013363607
117,10.1002/aenm.201400486,94,3(a),123,Pb0.9985La0.0015Te1,Pb0.9985La0.0015Te1,550,,,71109,0.000014063,0.0024012,-0.00018376,1.6455,0.70131,0.0014592525
117,10.1002/aenm.201400486,94,3(a),123,Pb0.9985La0.0015Te1,Pb0.9985La0.0015Te1,600,,,59884,0.000016699,0.0023017,-0.00019605,1.4984,0.77955,0.0015361052
117,10.1002/aenm.201400486,94,3(a),123,Pb0.9985La0.0015Te1,Pb0.9985La0.0015Te1,650,,,50945,0.000019629,0.0021466,-0.00020527,1.3838,0.85779,0.0015512357
117,10.1002/aenm.201400486,94,3(a),123,Pb0.9985La0.0015Te1,Pb0.9985La0.0015Te1,700,,,43743,0.000022861,0.0019495,-0.00021111,1.3044,0.93602,0.0014945569
117,10.1002/aenm.201400486,94,3(a),123,Pb0.9985La0.0015Te1,Pb0.9985La0.0015Te1,750,,,37948,0.000026352,0.0017335,-0.00021373,1.2643,1.0143,0.0013711145
117,10.1002/aenm.201400486,94,3(a),123,Pb0.9985La0.0015Te1,Pb0.9985La0.0015Te1,800,,,33339,0.000029995,0.0015255,-0.00021391,1.266,1.0925,0.0012049763
117,10.1002/aenm.201400486,4818,3(d),123,Pb0.9985La0.0015Te1,Pb0.9985La0.0015Te1,300,,,,,,,,0.31013,
117,10.1002/aenm.201400486,55,3(c),26,Pb0.9975La0.0025Te1,Pb0.9975La0.0025Te1,350,,,234380,0.0000042666,0.0019929,-0.000092211,3.2995,0.21246,0.0006040006
117,10.1002/aenm.201400486,55,3(c),26,Pb0.9975La0.0025Te1,Pb0.9975La0.0025Te1,400,,,181920,0.0000054969,0.0019878,-0.00010453,2.8272,0.31652,0.0007030985
117,10.1002/aenm.201400486,55,3(c),26,Pb0.9975La0.0025Te1,Pb0.9975La0.0025Te1,450,,,146650,0.0000068191,0.002002,-0.00011684,2.487,0.42058,0.0008049859
117,10.1002/aenm.201400486,55,3(c),26,Pb0.9975La0.0025Te1,Pb0.9975La0.0025Te1,500,,,121700,0.0000082166,0.0020299,-0.00012915,2.22,0.52465,0.0009143694
117,10.1002/aenm.201400486,55,3(c),26,Pb0.9975La0.0025Te1,Pb0.9975La0.0025Te1,550,,,103040,0.0000097053,0.0020622,-0.00014147,1.9949,0.62871,0.001033736
117,10.1002/aenm.201400486,55,3(c),26,Pb0.9975La0.0025Te1,Pb0.9975La0.0025Te1,600,,,88316,0.000011323,0.0020885,-0.00015378,1.8006,0.73277,0.0011598911
117,10.1002/aenm.201400486,55,3(c),26,Pb0.9975La0.0025Te1,Pb0.9975La0.0025Te1,650,,,76214,0.000013121,0.0021024,-0.00016609,1.6385,0.83684,0.0012831248
117,10.1002/aenm.201400486,55,3(c),26,Pb0.9975La0.0025Te1,Pb0.9975La0.0025Te1,700,,,66002,0.000015151,0.0021009,-0.00017841,1.5146,0.9409,0.0013870989
117,10.1002/aenm.201400486,55,3(c),26,Pb0.9975La0.0025Te1,Pb0.9975La0.0025Te1,750,,,57284,0.000017457,0.0020837,-0.00019072,1.4323,1.045,0.001454793
117,10.1002/aenm.201400486,55,3(c),26,Pb0.9975La0.0025Te1,Pb0.9975La0.0025Te1,800,,,49838,0.000020065,0.0020544,-0.00020303,1.3843,1.149,0.0014840714
117,10.1002/aenm.201400486,9,3(b),26,Pb0.9975La0.0025Te1,Pb0.9975La0.0025Te1,300,,,313760,0.0000031871,,,,0.10839,
860,10.1039/c1ee01314a,88,2,108,Pb1Te0.99I0.01,Pb1Te0.99I0.01,350,,,744990,0.0000013423,0.00054266,-0.000026989,5.8948,0.03222,0.0000920574
860,10.1039/c1ee01314a,88,2,108,Pb1Te0.99I0.01,Pb1Te0.99I0.01,400,,,607680,0.0000016456,0.00061641,-0.000031849,5.3295,0.046264,0.00011566
860,10.1039/c1ee01314a,88,2,108,Pb1Te0.99I0.01,Pb1Te0.99I0.01,450,,,507380,0.0000019709,0.00077038,-0.000038966,4.8292,0.071786,0.0001595254
860,10.1039/c1ee01314a,88,2,108,Pb1Te0.99I0.01,Pb1Te0.99I0.01,500,,,429260,0.0000023296,0.00092829,-0.000046503,4.3739,0.10612,0.0002122339
860,10.1039/c1ee01314a,88,2,108,Pb1Te0.99I0.01,Pb1Te0.99I0.01,550,,,367660,0.0000027199,0.0010686,-0.000053911,3.9549,0.14861,0.0002701965
860,10.1039/c1ee01314a,88,2,108,Pb1Te0.99I0.01,Pb1Te0.99I0.01,600,,,318570,0.000003139,0.0012031,-0.000061455,3.5699,0.20221,0.0003370122
860,10.1039/c1ee01314a,88,2,108,Pb1Te0.99I0.01,Pb1Te0.99I0.01,650,,,278250,0.0000035939,0.0013536,-0.000069748,3.2191,0.27332,0.0004204902
860,10.1039/c1ee01314a,88,2,108,Pb1Te0.99I0.01,Pb1Te0.99I0.01,700,,,243090,0.0000041137,0.0015278,-0.000079278,2.9011,0.36864,0.0005266278
860,10.1039/c1ee01314a,88,2,108,Pb1Te0.99I0.01,Pb1Te0.99I0.01,750,,,210050,0.0000047608,0.0016993,-0.000089945,2.6083,0.48862,0.0006514971
860,10.1039/c1ee01314a,51,7,108,Pb1Te0.99I0.01,Pb1Te0.99I0.01,800,,,,,,,2.3232,,
860,10.1039/c1ee01314a,8,3,108,Pb1Te0.99I0.01,Pb1Te0.99I0.01,300,,,975320,0.0000010253,,,,,
860,10.1039/c1ee01314a,88,2,133,Pb1Te0.998I0.002,Pb1Te0.998I0.002,350,,,397190,0.0000025177,0.0022778,-0.000075729,3.368,0.23671,0.0006763064
860,10.1039/c1ee01314a,88,2,133,Pb1Te0.998I0.002,Pb1Te0.998I0.002,400,,,296740,0.00000337,0.0024348,-0.000090582,2.8552,0.3411,0.0008527599
860,10.1039/c1ee01314a,88,2,133,Pb1Te0.998I0.002,Pb1Te0.998I0.002,450,,,226830,0.0000044085,0.0025723,-0.00010649,2.4782,0.46709,0.0010379711
860,10.1039/c1ee01314a,88,2,133,Pb1Te0.998I0.002,Pb1Te0.998I0.002,500,,,179180,0.000005581,0.0026473,-0.00012155,2.1832,0.60629,0.0012125779
860,10.1039/c1ee01314a,88,2,133,Pb1Te0.998I0.002,Pb1Te0.998I0.002,550,,,145120,0.000006891,0.0026597,-0.00013538,1.939,0.75443,0.0013716864
860,10.1039/c1ee01314a,88,2,133,Pb1Te0.998I0.002,Pb1Te0.998I0.002,600,,,119310,0.0000083813,0.0026289,-0.00014844,1.7313,0.91107,0.0015184543
860,10.1039/c1ee01314a,88,2,133,Pb1Te0.998I0.002,Pb1Te0.998I0.002,650,,,98844,0.000010117,0.0025771,-0.00016147,1.5575,1.0755,0.0016546388
860,10.1039/c1ee01314a,88,2,133,Pb1Te0.998I0.002,Pb1Te0.998I0.002,700,,,82183,0.000012168,0.0025125,-0.00017485,1.4206,1.238,0.0017686189
860,10.1039/c1ee01314a,88,2,133,Pb1Te0.998I0.002,Pb1Te0.998I0.002,750,,,68526,0.000014593,0.0024212,-0.00018797,1.3238,1.3717,0.0018289772
860,10.1039/c1ee01314a,51,7,133,Pb1Te0.998I0.002,Pb1Te0.998I0.002,800,,,,,,,1.265,,
860,10.1039/c1ee01314a,8,3,133,Pb1Te0.998I0.002,Pb1Te0.998I0.002,300,,,505890,0.0000019767,,,,,
860,10.1039/c1ee01314a,88,2,2,Pb1Te0.9945I0.0055,Pb1Te0.9945I0.0055,350,,,653770,0.0000015296,0.00075629,-0.000034012,5.0697,0.052212,0.0001491785
860,10.1039/c1ee01314a,88,2,2,Pb1Te0.9945I0.0055,Pb1Te0.9945I0.0055,400,,,513400,0.0000019478,0.00089091,-0.000041657,4.4477,0.080123,0.000200308
860,10.1039/c1ee01314a,88,2,2,Pb1Te0.9945I0.0055,Pb1Te0.9945I0.0055,450,,,422190,0.0000023686,0.0010628,-0.000050174,3.9392,0.12141,0.000269801
860,10.1039/c1ee01314a,88,2,2,Pb1Te0.9945I0.0055,Pb1Te0.9945I0.0055,500,,,355420,0.0000028136,0.0012565,-0.000059459,3.5069,0.17915,0.0003582936
860,10.1039/c1ee01314a,88,2,2,Pb1Te0.9945I0.0055,Pb1Te0.9945I0.0055,550,,,302900,0.0000033014,0.0014627,-0.00006949,3.1272,0.25725,0.0004677347
860,10.1039/c1ee01314a,88,2,2,Pb1Te0.9945I0.0055,Pb1Te0.9945I0.0055,600,,,259610,0.000003852,0.0016699,-0.000080202,2.7871,0.35949,0.0005991532
860,10.1039/c1ee01314a,88,2,2,Pb1Te0.9945I0.0055,Pb1Te0.9945I0.0055,650,,,222630,0.0000044918,0.0018584,-0.000091364,2.4816,0.48677,0.0007488717
860,10.1039/c1ee01314a,88,2,2,Pb1Te0.9945I0.0055,Pb1Te0.9945I0.0055,700,,,190200,0.0000052575,0.0019963,-0.00010245,2.211,0.63203,0.0009028946
860,10.1039/c1ee01314a,88,2,2,Pb1Te0.9945I0.0055,Pb1Te0.9945I0.0055,750,,,161260,0.0000062013,0.002042,-0.00011253,1.9773,0.77454,0.0010327214
860,10.1039/c1ee01314a,51,7,2,Pb1Te0.9945I0.0055,Pb1Te0.9945I0.0055,800,,,,,,,1.782,,
860,10.1039/c1ee01314a,88,2,373,Pb1Te0.9993I0.0007,Pb1Te0.9993I0.0007,300,,,,,,-0.00011769,2.7281,,
860,10.1039/c1ee01314a,88,2,373,Pb1Te0.9993I0.0007,Pb1Te0.9993I0.0007,350,,,161470,0.0000061931,0.0026654,-0.00012848,2.2062,0.42285,0.0012081407
860,10.1039/c1ee01314a,88,2,373,Pb1Te0.9993I0.0007,Pb1Te0.9993I0.0007,400,,,118890,0.0000084112,0.0026154,-0.00014832,1.8754,0.55783,0.0013945825
860,10.1039/c1ee01314a,88,2,373,Pb1Te0.9993I0.0007,Pb1Te0.9993I0.0007,450,,,91802,0.000010893,0.0026465,-0.00016979,1.6511,0.72129,0.0016028708
860,10.1039/c1ee01314a,88,2,373,Pb1Te0.9993I0.0007,Pb1Te0.9993I0.0007,500,,,73362,0.000013631,0.0026242,-0.00018913,1.4823,0.88518,0.0017703569
860,10.1039/c1ee01314a,88,2,373,Pb1Te0.9993I0.0007,Pb1Te0.9993I0.0007,550,,,59913,0.000016691,0.002522,-0.00020517,1.3442,1.0319,0.0018762089
860,10.1039/c1ee01314a,88,2,373,Pb1Te0.9993I0.0007,Pb1Te0.9993I0.0007,600,,,49544,0.000020184,0.002361,-0.0002183,1.2312,1.1506,0.0019176413
860,10.1039/c1ee01314a,88,2,373,Pb1Te0.9993I0.0007,Pb1Te0.9993I0.0007,650,,,41263,0.000024235,0.0021703,-0.00022934,1.1492,1.2275,0.0018885312
860,10.1039/c1ee01314a,88,2,373,Pb1Te0.9993I0.0007,Pb1Te0.9993I0.0007,700,,,34535,0.000028956,0.0019648,-0.00023852,1.1086,1.2406,0.0017723255
860,10.1039/c1ee01314a,88,2,373,Pb1Te0.9993I0.0007,Pb1Te0.9993I0.0007,750,,,29060,0.000034411,0.0017359,-0.00024441,1.1168,1.1658,0.0015543517
860,10.1039/c1ee01314a,88,2,122,Pb1Te0.9996I0.0004,Pb1Te0.9996I0.0004,300,,,,,,-0.00015126,,,
860,10.1039/c1ee01314a,88,2,122,Pb1Te0.9996I0.0004,Pb1Te0.9996I0.0004,350,,,107830,0.0000092738,0.0032527,-0.00017368,1.8779,0.60623,0.0017320944
860,10.1039/c1ee01314a,88,2,122,Pb1Te0.9996I0.0004,Pb1Te0.9996I0.0004,400,,,76324,0.000013102,0.0028013,-0.00019158,1.6145,0.69404,0.0017350883
860,10.1039/c1ee01314a,88,2,122,Pb1Te0.9996I0.0004,Pb1Te0.9996I0.0004,450,,,56850,0.00001759,0.0024937,-0.00020944,1.4373,0.78075,0.0017349892
860,10.1039/c1ee01314a,88,2,122,Pb1Te0.9996I0.0004,Pb1Te0.9996I0.0004,500,,,43975,0.00002274,0.002288,-0.0002281,1.3065,0.87562,0.0017512438
860,10.1039/c1ee01314a,88,2,122,Pb1Te0.9996I0.0004,Pb1Te0.9996I0.0004,550,,,35008,0.000028565,0.0021166,-0.00024589,1.2045,0.96648,0.0017572437
860,10.1039/c1ee01314a,88,2,122,Pb1Te0.9996I0.0004,Pb1Te0.9996I0.0004,600,,,28549,0.000035028,0.0019255,-0.0002597,1.1289,1.0234,0.0017056427
860,10.1039/c1ee01314a,88,2,122,Pb1Te0.9996I0.0004,Pb1Te0.9996I0.0004,650,,,23817,0.000041986,0.0016876,-0.00026619,1.0863,1.0098,0.0015535303
860,10.1039/c1ee01314a,88,2,122,Pb1Te0.9996I0.0004,Pb1Te0.9996I0.0004,700,,,20356,0.000049125,0.0014059,-0.0002628,1.0858,0.90636,0.0012948057
860,10.1039/c1ee01314a,88,2,122,Pb1Te0.9996I0.0004,Pb1Te0.9996I0.0004,750,,,17888,0.000055903,0.0011088,-0.00024897,1.1328,0.73411,0.0009788136
860,10.1039/c1ee01314a,51,7,122,Pb1Te0.9996I0.0004,Pb1Te0.9996I0.0004,800,,,,,,,1.2221,,
860,10.1039/c1ee01314a,88,2,30,Pb1Te0.9972I0.0028,Pb1Te0.9972I0.0028,350,,,490200,0.00000204,0.0018608,-0.000061611,3.8835,0.1677,0.0004791554
860,10.1039/c1ee01314a,88,2,30,Pb1Te0.9972I0.0028,Pb1Te0.9972I0.0028,400,,,381530,0.000002621,0.002133,-0.00007477,3.3131,0.25752,0.0006438079
860,10.1039/c1ee01314a,88,2,30,Pb1Te0.9972I0.0028,Pb1Te0.9972I0.0028,450,,,302450,0.0000033063,0.0024423,-0.000089862,2.8805,0.38154,0.0008478736
860,10.1039/c1ee01314a,88,2,30,Pb1Te0.9972I0.0028,Pb1Te0.9972I0.0028,500,,,246730,0.000004053,0.0026522,-0.00010368,2.5373,0.52264,0.0010452844
860,10.1039/c1ee01314a,88,2,30,Pb1Te0.9972I0.0028,Pb1Te0.9972I0.0028,550,,,205210,0.0000048731,0.0027314,-0.00011537,2.2521,0.66705,0.0012128236
860,10.1039/c1ee01314a,88,2,30,Pb1Te0.9972I0.0028,Pb1Te0.9972I0.0028,600,,,171960,0.0000058153,0.0027132,-0.00012561,2.0072,0.81104,0.0013517338
860,10.1039/c1ee01314a,88,2,30,Pb1Te0.9972I0.0028,Pb1Te0.9972I0.0028,650,,,143980,0.0000069453,0.0026544,-0.00013578,1.7954,0.96099,0.0014784449
860,10.1039/c1ee01314a,88,2,30,Pb1Te0.9972I0.0028,Pb1Te0.9972I0.0028,700,,,120090,0.0000083273,0.0026017,-0.00014719,1.6168,1.1264,0.0016091663
860,10.1039/c1ee01314a,88,2,30,Pb1Te0.9972I0.0028,Pb1Te0.9972I0.0028,750,,,99950,0.000010005,0.0025648,-0.00016019,1.4753,1.3039,0.0017384939
860,10.1039/c1ee01314a,88,2,30,Pb1Te0.9972I0.0028,Pb1Te0.9972I0.0028,800,,,83465,0.000011981,0.0025113,-0.00017346,1.3757,1.4604,0.0018254707
860,10.1039/c1ee01314a,51,7,30,Pb1Te0.9972I0.0028,Pb1Te0.9972I0.0028,850,,,,,,,1.3203,,
860,10.1039/c1ee01314a,8,3,30,Pb1Te0.9972I0.0028,Pb1Te0.9972I0.0028,300,,,594920,0.0000016809,,,,,
860,10.1039/c1ee01314a,88,2,5,Pb1Te0.9988I0.0012,Pb1Te0.9988I0.0012,350,,,285890,0.0000034978,0.0026931,-0.000097057,2.6894,0.35048,0.0010013758
860,10.1039/c1ee01314a,88,2,5,Pb1Te0.9988I0.0012,Pb1Te0.9988I0.0012,400,,,207090,0.0000048288,0.0026946,-0.00011407,2.275,0.47378,0.0011844396
860,10.1039/c1ee01314a,88,2,5,Pb1Te0.9988I0.0012,Pb1Te0.9988I0.0012,450,,,157330,0.000006356,0.0027231,-0.00013156,1.9815,0.61842,0.0013742619
860,10.1039/c1ee01314a,88,2,5,Pb1Te0.9988I0.0012,Pb1Te0.9988I0.0012,500,,,124950,0.000008003,0.0027617,-0.00014867,1.757,0.78591,0.001571827
860,10.1039/c1ee01314a,88,2,5,Pb1Te0.9988I0.0012,Pb1Te0.9988I0.0012,550,,,101830,0.00000982,0.0027767,-0.00016513,1.5731,0.97081,0.0017651135
860,10.1039/c1ee01314a,88,2,5,Pb1Te0.9988I0.0012,Pb1Te0.9988I0.0012,600,,,83773,0.000011937,0.0027393,-0.00018083,1.4184,1.1588,0.0019312606
860,10.1039/c1ee01314a,88,2,5,Pb1Te0.9988I0.0012,Pb1Te0.9988I0.0012,650,,,68885,0.000014517,0.0026315,-0.00019545,1.2937,1.3222,0.0020340883
860,10.1039/c1ee01314a,88,2,5,Pb1Te0.9988I0.0012,Pb1Te0.9988I0.0012,700,,,56475,0.000017707,0.002444,-0.00020803,1.2049,1.4199,0.0020283841