sid,DOI,figureid,fignum,sampleid,samplename,composition,Temperature,Carrier concentration,Carrier mobility,Electrical conductivity,Electrical resistivity,Power factor,Seebeck coefficient,Thermal conductivity,ZT,Figure of merit Z
18596,10.1002/aenm.201700099,25446,2c,31682,Pb1−xSbxTe_ x=0.3%,Pb0.997Sb0.003Te,400,,,4093,0.00024432,0.00014023,-0.0001851,1.8245,0.075599,0.0000768594
18596,10.1002/aenm.201700099,25446,2c,31682,Pb1−xSbxTe_ x=0.3%,Pb0.997Sb0.003Te,450,,,4730.2,0.00021141,0.0001797,-0.00019491,1.8203,0.095825,0.00009872
18596,10.1002/aenm.201700099,25446,2c,31682,Pb1−xSbxTe_ x=0.3%,Pb0.997Sb0.003Te,500,,,5367.3,0.00018631,0.00022495,-0.00020472,1.816,0.11605,0.0001238711
18596,10.1002/aenm.201700099,25446,2c,31682,Pb1−xSbxTe_ x=0.3%,Pb0.997Sb0.003Te,550,,,6004.5,0.00016654,0.00027632,-0.00021452,1.8118,0.13628,0.0001525113
18596,10.1002/aenm.201700099,25446,2c,31682,Pb1−xSbxTe_ x=0.3%,Pb0.997Sb0.003Te,600,,,6641.6,0.00015057,0.00033423,-0.00022433,1.8076,0.1565,0.0001849026
18596,10.1002/aenm.201700099,25446,2c,31682,Pb1−xSbxTe_ x=0.3%,Pb0.997Sb0.003Te,650,,,7278.8,0.00013739,0.00039904,-0.00023414,1.8034,0.17673,0.0002212709
18596,10.1002/aenm.201700099,25446,2c,31682,Pb1−xSbxTe_ x=0.3%,Pb0.997Sb0.003Te,700,,,7915.9,0.00012633,0.00047105,-0.00024394,1.7992,0.19696,0.0002618108
18596,10.1002/aenm.201700099,25446,2c,31682,Pb1−xSbxTe_ x=0.3%,Pb0.997Sb0.003Te,750,,,8553,0.00011692,0.00055072,-0.00025375,1.7949,0.21718,0.0003068249
18596,10.1002/aenm.201700099,25446,2c,31682,Pb1−xSbxTe_ x=0.3%,Pb0.997Sb0.003Te,800,,,9190.2,0.00010881,0.00063839,-0.00026356,1.7907,0.23741,0.000356503
18596,10.1002/aenm.201700099,25446,2c,31682,Pb1−xSbxTe_ x=0.3%,Pb0.997Sb0.003Te,850,,,9827.3,0.00010176,0.00073435,-0.00027336,1.7865,0.25763,0.0004110551
18596,10.1002/aenm.201700099,25446,2c,31683,Pb1−xSbxTe_ x=0.5%,Pb0.995Sb0.005Te,300,,,4061,0.00024624,,,,,
18596,10.1002/aenm.201700099,25446,2c,31683,Pb1−xSbxTe_ x=0.5%,Pb0.995Sb0.005Te,350,,,4908.9,0.00020371,0.00019763,-0.00020065,1.8469,0.0761,0.0001070063
18596,10.1002/aenm.201700099,25446,2c,31683,Pb1−xSbxTe_ x=0.5%,Pb0.995Sb0.005Te,400,,,5756.8,0.00017371,0.00025247,-0.00020942,1.8068,0.11537,0.0001397332
18596,10.1002/aenm.201700099,25446,2c,31683,Pb1−xSbxTe_ x=0.5%,Pb0.995Sb0.005Te,450,,,6604.7,0.00015141,0.00031446,-0.0002182,1.7666,0.15464,0.0001780029
18596,10.1002/aenm.201700099,25446,2c,31683,Pb1−xSbxTe_ x=0.5%,Pb0.995Sb0.005Te,500,,,7452.7,0.00013418,0.00038393,-0.00022697,1.7265,0.19392,0.0002223747
18596,10.1002/aenm.201700099,25446,2c,31683,Pb1−xSbxTe_ x=0.5%,Pb0.995Sb0.005Te,550,,,8300.6,0.00012047,0.00046129,-0.00023574,1.6864,0.23319,0.0002735353
18596,10.1002/aenm.201700099,25446,2c,31683,Pb1−xSbxTe_ x=0.5%,Pb0.995Sb0.005Te,600,,,9148.5,0.00010931,0.00054699,-0.00024452,1.6462,0.27246,0.0003322743
18596,10.1002/aenm.201700099,25446,2c,31683,Pb1−xSbxTe_ x=0.5%,Pb0.995Sb0.005Te,650,,,9996.4,0.00010004,0.00064133,-0.00025329,1.6061,0.31173,0.0003993089
18596,10.1002/aenm.201700099,25446,2c,31683,Pb1−xSbxTe_ x=0.5%,Pb0.995Sb0.005Te,700,,,10844,0.000092217,0.00074472,-0.00026206,1.5659,0.35101,0.0004755859
18596,10.1002/aenm.201700099,25446,2c,31683,Pb1−xSbxTe_ x=0.5%,Pb0.995Sb0.005Te,750,,,11692,0.000085529,0.00085766,-0.00027084,1.5258,0.39028,0.0005621051
18596,10.1002/aenm.201700099,25446,2c,31683,Pb1−xSbxTe_ x=0.5%,Pb0.995Sb0.005Te,800,,,12540,0.000079745,0.0009804,-0.00027961,1.4857,0.42955,0.000659891
18596,10.1002/aenm.201700099,25446,2c,31683,Pb1−xSbxTe_ x=0.5%,Pb0.995Sb0.005Te,850,,,13388,0.000074694,0.0011134,-0.00028838,1.4455,0.46882,0.0007702525
18596,10.1002/aenm.201700099,25446,2c,31684,Pb1−xSbxTe_ x= 0.7%,Pb0.993Sb0.007Te,350,,,30843,0.000032422,0.0010195,-0.00018181,2.1773,0.21824,0.0004682405
18596,10.1002/aenm.201700099,25446,2c,31684,Pb1−xSbxTe_ x= 0.7%,Pb0.993Sb0.007Te,400,,,29691,0.00003368,0.0010755,-0.00019032,2.085,0.27079,0.0005158273
18596,10.1002/aenm.201700099,25446,2c,31684,Pb1−xSbxTe_ x= 0.7%,Pb0.993Sb0.007Te,450,,,28539,0.00003504,0.0011282,-0.00019883,1.9928,0.32333,0.0005661381
18596,10.1002/aenm.201700099,25446,2c,31684,Pb1−xSbxTe_ x= 0.7%,Pb0.993Sb0.007Te,500,,,27387,0.000036514,0.0011774,-0.00020734,1.9005,0.37587,0.0006195212
18596,10.1002/aenm.201700099,25446,2c,31684,Pb1−xSbxTe_ x= 0.7%,Pb0.993Sb0.007Te,550,,,26235,0.000038117,0.0012223,-0.00021585,1.8083,0.42842,0.0006759387
18596,10.1002/aenm.201700099,25446,2c,31684,Pb1−xSbxTe_ x= 0.7%,Pb0.993Sb0.007Te,600,,,25083,0.000039868,0.0012626,-0.00022436,1.7161,0.48096,0.000735738
18596,10.1002/aenm.201700099,25446,2c,31684,Pb1−xSbxTe_ x= 0.7%,Pb0.993Sb0.007Te,650,,,23931,0.000041787,0.0012977,-0.00023287,1.6238,0.5335,0.0007991748
18596,10.1002/aenm.201700099,25446,2c,31684,Pb1−xSbxTe_ x= 0.7%,Pb0.993Sb0.007Te,700,,,22779,0.0000439,0.0013272,-0.00024138,1.5316,0.58605,0.0008665448
18596,10.1002/aenm.201700099,25446,2c,31684,Pb1−xSbxTe_ x= 0.7%,Pb0.993Sb0.007Te,750,,,21627,0.000046238,0.0013505,-0.00024989,1.4393,0.63859,0.0009383033
18596,10.1002/aenm.201700099,25446,2c,31684,Pb1−xSbxTe_ x= 0.7%,Pb0.993Sb0.007Te,800,,,20476,0.000048838,0.0013672,-0.0002584,1.3471,0.69114,0.0010149209
18596,10.1002/aenm.201700099,25446,2c,31684,Pb1−xSbxTe_ x= 0.7%,Pb0.993Sb0.007Te,850,,,19324,0.000051749,0.0013767,-0.00026691,1.2548,0.74368,0.001097147
18596,10.1002/aenm.201700099,25448,2d,31684,Pb1−xSbxTe_ x= 0.7%,Pb0.993Sb0.007Te,300,,,,,,-0.0001733,,,
18596,10.1002/aenm.201700099,25448,2d,31684,Pb1−xSbxTe_ x= 0.7%,Pb0.993Sb0.007Te,900,,,,,,-0.00027542,1.1626,,
18596,10.1002/aenm.201700099,25446,2c,31685,Pb1−xSbxTe. x=1.0%,Pb1−xSbxTe. x=1.0%,300,,,58381,0.000017129,,,,,
18596,10.1002/aenm.201700099,25446,2c,31685,Pb1−xSbxTe. x=1.0%,Pb1−xSbxTe. x=1.0%,350,,,55201,0.000018116,0.0013472,-0.00015622,2.2438,0.28663,0.00060041
18596,10.1002/aenm.201700099,25446,2c,31685,Pb1−xSbxTe. x=1.0%,Pb1−xSbxTe. x=1.0%,400,,,52022,0.000019223,0.0014401,-0.00016638,2.1286,0.35979,0.000676548
18596,10.1002/aenm.201700099,25446,2c,31685,Pb1−xSbxTe. x=1.0%,Pb1−xSbxTe. x=1.0%,450,,,48842,0.000020474,0.0015221,-0.00017653,2.0134,0.43295,0.0007559849
18596,10.1002/aenm.201700099,25446,2c,31685,Pb1−xSbxTe. x=1.0%,Pb1−xSbxTe. x=1.0%,500,,,45663,0.0000219,0.0015915,-0.00018669,1.8982,0.50611,0.0008384259
18596,10.1002/aenm.201700099,25446,2c,31685,Pb1−xSbxTe. x=1.0%,Pb1−xSbxTe. x=1.0%,550,,,42483,0.000023539,0.0016462,-0.00019685,1.783,0.57927,0.0009232754
18596,10.1002/aenm.201700099,25446,2c,31685,Pb1−xSbxTe. x=1.0%,Pb1−xSbxTe. x=1.0%,600,,,39303,0.000025443,0.0016843,-0.00020701,1.6678,0.65243,0.0010098933
18596,10.1002/aenm.201700099,25446,2c,31685,Pb1−xSbxTe. x=1.0%,Pb1−xSbxTe. x=1.0%,650,,,36124,0.000027682,0.0017037,-0.00021717,1.5526,0.72559,0.0010973206
18596,10.1002/aenm.201700099,25446,2c,31685,Pb1−xSbxTe. x=1.0%,Pb1−xSbxTe. x=1.0%,700,,,32944,0.000030355,0.0017024,-0.00022732,1.4374,0.79876,0.0011843607
18596,10.1002/aenm.201700099,25446,2c,31685,Pb1−xSbxTe. x=1.0%,Pb1−xSbxTe. x=1.0%,750,,,29764,0.000033598,0.0016786,-0.00023748,1.3222,0.87192,0.0012695507
18596,10.1002/aenm.201700099,25446,2c,31685,Pb1−xSbxTe. x=1.0%,Pb1−xSbxTe. x=1.0%,800,,,26585,0.000037615,0.0016303,-0.00024764,1.207,0.94508,0.0013507042
18596,10.1002/aenm.201700099,25446,2c,31685,Pb1−xSbxTe. x=1.0%,Pb1−xSbxTe. x=1.0%,850,,,23405,0.000042726,0.0015555,-0.0002578,1.0919,1.0182,0.001424581
18596,10.1002/aenm.201700099,25446,2c,31686,Pb1−xSbxTe_ x= 1.25%,Pb0.9875Sb0.0125Te,350,,,162700,0.0000061463,0.0017388,-0.00010338,3.1086,0.23083,0.0005593515
18596,10.1002/aenm.201700099,25446,2c,31686,Pb1−xSbxTe_ x= 1.25%,Pb0.9875Sb0.0125Te,400,,,149000,0.0000067114,0.0019825,-0.00011535,2.9115,0.31846,0.0006809205
18596,10.1002/aenm.201700099,25446,2c,31686,Pb1−xSbxTe_ x= 1.25%,Pb0.9875Sb0.0125Te,450,,,135300,0.000007391,0.0021933,-0.00012732,2.7143,0.40609,0.0008080536
18596,10.1002/aenm.201700099,25446,2c,31686,Pb1−xSbxTe_ x= 1.25%,Pb0.9875Sb0.0125Te,500,,,121600,0.0000082237,0.0023592,-0.00013929,2.5171,0.49371,0.0009372691
18596,10.1002/aenm.201700099,25446,2c,31686,Pb1−xSbxTe_ x= 1.25%,Pb0.9875Sb0.0125Te,550,,,107910,0.000009267,0.0024689,-0.00015126,2.32,0.58134,0.001064181
18596,10.1002/aenm.201700099,25446,2c,31686,Pb1−xSbxTe_ x= 1.25%,Pb0.9875Sb0.0125Te,600,,,94210,0.000010615,0.0025101,-0.00016323,2.1228,0.66897,0.0011824477
18596,10.1002/aenm.201700099,25446,2c,31686,Pb1−xSbxTe_ x= 1.25%,Pb0.9875Sb0.0125Te,650,,,80512,0.000012421,0.0024713,-0.0001752,1.9257,0.7566,0.0012833255
18596,10.1002/aenm.201700099,25446,2c,31686,Pb1−xSbxTe_ x= 1.25%,Pb0.9875Sb0.0125Te,700,,,66815,0.000014967,0.0023407,-0.00018717,1.7285,0.84423,0.0013541799
18596,10.1002/aenm.201700099,25446,2c,31686,Pb1−xSbxTe_ x= 1.25%,Pb0.9875Sb0.0125Te,750,,,53118,0.000018826,0.0021065,-0.00019914,1.5313,0.93186,0.0013756286
18596,10.1002/aenm.201700099,25446,2c,31686,Pb1−xSbxTe_ x= 1.25%,Pb0.9875Sb0.0125Te,800,,,39420,0.000025368,0.0017568,-0.00021111,1.3342,1.0195,0.0013167441
18596,10.1002/aenm.201700099,25446,2c,31686,Pb1−xSbxTe_ x= 1.25%,Pb0.9875Sb0.0125Te,850,,,25723,0.000038876,0.0012801,-0.00022308,1.137,1.1071,0.0011258575
18596,10.1002/aenm.201700099,25446,2c,31686,Pb1−xSbxTe_ x= 1.25%,Pb0.9875Sb0.0125Te,900,,,12025,0.00008316,,,0.93985,1.1947,
18596,10.1002/aenm.201700099,25446,2c,31687,Pb1−xSbxTe_ x=1.5%,Pb.985Sb0.015Te,300,,,193290,0.0000051736,,,,,
18596,10.1002/aenm.201700099,25446,2c,31687,Pb1−xSbxTe_ x=1.5%,Pb.985Sb0.015Te,350,,,178100,0.0000056148,0.0014194,-0.000089274,3.2852,0.20199,0.0004320589
18596,10.1002/aenm.201700099,25446,2c,31687,Pb1−xSbxTe_ x=1.5%,Pb.985Sb0.015Te,400,,,162910,0.0000061384,0.0016823,-0.00010162,3.0805,0.278,0.0005461126
18596,10.1002/aenm.201700099,25446,2c,31687,Pb1−xSbxTe_ x=1.5%,Pb.985Sb0.015Te,450,,,147720,0.0000067696,0.0019184,-0.00011396,2.8758,0.35402,0.0006670839
18596,10.1002/aenm.201700099,25446,2c,31687,Pb1−xSbxTe_ x=1.5%,Pb.985Sb0.015Te,500,,,132530,0.0000075455,0.0021141,-0.0001263,2.671,0.43004,0.0007915013
18596,10.1002/aenm.201700099,25446,2c,31687,Pb1−xSbxTe_ x=1.5%,Pb.985Sb0.015Te,550,,,117340,0.0000085222,0.0022554,-0.00013864,2.4663,0.50606,0.0009144873
18596,10.1002/aenm.201700099,25446,2c,31687,Pb1−xSbxTe_ x=1.5%,Pb.985Sb0.015Te,600,,,102140,0.0000097905,0.0023286,-0.00015099,2.2616,0.58208,0.001029625
18596,10.1002/aenm.201700099,25446,2c,31687,Pb1−xSbxTe_ x=1.5%,Pb.985Sb0.015Te,650,,,86952,0.000011501,0.0023196,-0.00016333,2.0569,0.6581,0.0011277165
18596,10.1002/aenm.201700099,25446,2c,31687,Pb1−xSbxTe_ x=1.5%,Pb.985Sb0.015Te,700,,,71761,0.000013935,0.0022145,-0.00017567,1.8522,0.73412,0.0011956052
18596,10.1002/aenm.201700099,25446,2c,31687,Pb1−xSbxTe_ x=1.5%,Pb.985Sb0.015Te,750,,,56569,0.000017678,0.0019996,-0.00018801,1.6474,0.81014,0.0012137914
18596,10.1002/aenm.201700099,25446,2c,31687,Pb1−xSbxTe_ x=1.5%,Pb.985Sb0.015Te,800,,,41377,0.000024168,0.0016609,-0.00020035,1.4427,0.88616,0.0011512442
18596,10.1002/aenm.201700099,25446,2c,31687,Pb1−xSbxTe_ x=1.5%,Pb.985Sb0.015Te,850,,,26185,0.00003819,0.0011846,-0.0002127,1.238,0.96218,0.0009568659
18596,10.1002/aenm.201700099,25481,4f,31687,Pb1−xSbxTe_ x=1.5%,Pb.985Sb0.015Te,900,,,,,,,,1.0382,
18596,10.1002/aenm.201700099,25467,3c,31716,Pb1−xBixTe_ x=0.3%_ n=-1.1e19,Pb0.997Bi0.003Te,350,,,,,,-0.00014269,,,
18596,10.1002/aenm.201700099,25467,3c,31716,Pb1−xBixTe_ x=0.3%_ n=-1.1e19,Pb0.997Bi0.003Te,400,,,,,,-0.00015459,,,
18596,10.1002/aenm.201700099,25467,3c,31716,Pb1−xBixTe_ x=0.3%_ n=-1.1e19,Pb0.997Bi0.003Te,450,,,,,,-0.0001665,,,
18596,10.1002/aenm.201700099,25467,3c,31716,Pb1−xBixTe_ x=0.3%_ n=-1.1e19,Pb0.997Bi0.003Te,500,,,,,,-0.0001784,,,
18596,10.1002/aenm.201700099,25467,3c,31716,Pb1−xBixTe_ x=0.3%_ n=-1.1e19,Pb0.997Bi0.003Te,550,,,,,,-0.00019031,,,
18596,10.1002/aenm.201700099,25467,3c,31716,Pb1−xBixTe_ x=0.3%_ n=-1.1e19,Pb0.997Bi0.003Te,600,,,,,,-0.00020221,,,
18596,10.1002/aenm.201700099,25467,3c,31716,Pb1−xBixTe_ x=0.3%_ n=-1.1e19,Pb0.997Bi0.003Te,650,,,,,,-0.00021412,,,
18596,10.1002/aenm.201700099,25467,3c,31716,Pb1−xBixTe_ x=0.3%_ n=-1.1e19,Pb0.997Bi0.003Te,700,,,,,,-0.00022602,,,
18596,10.1002/aenm.201700099,25467,3c,31716,Pb1−xBixTe_ x=0.3%_ n=-1.1e19,Pb0.997Bi0.003Te,750,,,,,,-0.00023792,,,
18596,10.1002/aenm.201700099,25467,3c,31716,Pb1−xBixTe_ x=0.3%_ n=-1.1e19,Pb0.997Bi0.003Te,800,,,,,,-0.00024983,,,
18596,10.1002/aenm.201700099,25467,3c,31716,Pb1−xBixTe_ x=0.3%_ n=-1.1e19,Pb0.997Bi0.003Te,850,,,,,,-0.00026173,,,
18596,10.1002/aenm.201700099,25467,3c,31718,Pb1−xBixTe_ x=0.7%_ n=-2.5e19,Pb0.993Bi0.007Te,350,,0.026166,,,,-0.000089326,,,
18596,10.1002/aenm.201700099,25467,3c,31718,Pb1−xBixTe_ x=0.7%_ n=-2.5e19,Pb0.993Bi0.007Te,400,,0.023476,,,,-0.00010308,,,
18596,10.1002/aenm.201700099,25467,3c,31718,Pb1−xBixTe_ x=0.7%_ n=-2.5e19,Pb0.993Bi0.007Te,450,,0.020786,,,,-0.00011684,,,
18596,10.1002/aenm.201700099,25467,3c,31718,Pb1−xBixTe_ x=0.7%_ n=-2.5e19,Pb0.993Bi0.007Te,500,,0.018095,,,,-0.0001306,,,
18596,10.1002/aenm.201700099,25467,3c,31718,Pb1−xBixTe_ x=0.7%_ n=-2.5e19,Pb0.993Bi0.007Te,550,,0.015405,,,,-0.00014435,,,
18596,10.1002/aenm.201700099,25467,3c,31718,Pb1−xBixTe_ x=0.7%_ n=-2.5e19,Pb0.993Bi0.007Te,600,,0.012715,,,,-0.00015811,,,
18596,10.1002/aenm.201700099,25467,3c,31718,Pb1−xBixTe_ x=0.7%_ n=-2.5e19,Pb0.993Bi0.007Te,650,,0.010025,,,,-0.00017186,,,
18596,10.1002/aenm.201700099,25467,3c,31718,Pb1−xBixTe_ x=0.7%_ n=-2.5e19,Pb0.993Bi0.007Te,700,,0.007335,,,,-0.00018562,,,
18596,10.1002/aenm.201700099,25467,3c,31718,Pb1−xBixTe_ x=0.7%_ n=-2.5e19,Pb0.993Bi0.007Te,750,,,,,,-0.00019938,,,
18596,10.1002/aenm.201700099,25467,3c,31718,Pb1−xBixTe_ x=0.7%_ n=-2.5e19,Pb0.993Bi0.007Te,800,,,,,,-0.00021313,,,
18596,10.1002/aenm.201700099,25467,3c,31718,Pb1−xBixTe_ x=0.7%_ n=-2.5e19,Pb0.993Bi0.007Te,850,,,,,,-0.00022689,,,
18596,10.1002/aenm.201700099,25467,3c,31718,Pb1−xBixTe_ x=0.7%_ n=-2.5e19,Pb0.993Bi0.007Te,900,,,,,,-0.00024065,,,
18596,10.1002/aenm.201700099,25467,3c,31719,Pb1−xSbxTe_ x=1.25%_ n=-2.4e19,Pb0.9875Sb0.0125Te,350,,0.04314,169750,0.000005891,0.0018512,-0.00010443,,,
18596,10.1002/aenm.201700099,25467,3c,31719,Pb1−xSbxTe_ x=1.25%_ n=-2.4e19,Pb0.9875Sb0.0125Te,400,,0.038516,153760,0.0000065036,0.0020804,-0.00011632,,,
18596,10.1002/aenm.201700099,25467,3c,31719,Pb1−xSbxTe_ x=1.25%_ n=-2.4e19,Pb0.9875Sb0.0125Te,450,,0.033892,137760,0.000007259,0.0022645,-0.00012821,,,
18596,10.1002/aenm.201700099,25467,3c,31719,Pb1−xSbxTe_ x=1.25%_ n=-2.4e19,Pb0.9875Sb0.0125Te,500,,0.029268,121770,0.0000082122,0.0023901,-0.0001401,,,
18596,10.1002/aenm.201700099,25467,3c,31719,Pb1−xSbxTe_ x=1.25%_ n=-2.4e19,Pb0.9875Sb0.0125Te,550,,0.024644,105770,0.0000094545,0.0024434,-0.00015199,,,
18596,10.1002/aenm.201700099,25467,3c,31719,Pb1−xSbxTe_ x=1.25%_ n=-2.4e19,Pb0.9875Sb0.0125Te,600,,0.020019,89780,0.000011138,0.0024109,-0.00016387,,,
18596,10.1002/aenm.201700099,25467,3c,31719,Pb1−xSbxTe_ x=1.25%_ n=-2.4e19,Pb0.9875Sb0.0125Te,650,,0.015395,73786,0.000013553,0.0022794,-0.00017576,,,
18596,10.1002/aenm.201700099,25467,3c,31719,Pb1−xSbxTe_ x=1.25%_ n=-2.4e19,Pb0.9875Sb0.0125Te,700,,0.010771,57792,0.000017303,0.002035,-0.00018765,,,
18596,10.1002/aenm.201700099,25467,3c,31719,Pb1−xSbxTe_ x=1.25%_ n=-2.4e19,Pb0.9875Sb0.0125Te,750,,,,,,-0.00019954,,,
18596,10.1002/aenm.201700099,25467,3c,31719,Pb1−xSbxTe_ x=1.25%_ n=-2.4e19,Pb0.9875Sb0.0125Te,800,,,,,,-0.00021143,,,
18596,10.1002/aenm.201700099,25467,3c,31719,Pb1−xSbxTe_ x=1.25%_ n=-2.4e19,Pb0.9875Sb0.0125Te,850,,,,,,-0.00022332,,,
18596,10.1002/aenm.201700099,25467,3c,31717,Pb1−xSbxTe_ x=1%_ n=-1.1e19,Pb0.99Sb0.01Te,350,,,,,,-0.00015779,,,
18596,10.1002/aenm.201700099,25467,3c,31717,Pb1−xSbxTe_ x=1%_ n=-1.1e19,Pb0.99Sb0.01Te,400,,,,,,-0.00016776,,,
18596,10.1002/aenm.201700099,25467,3c,31717,Pb1−xSbxTe_ x=1%_ n=-1.1e19,Pb0.99Sb0.01Te,450,,,,,,-0.00017774,,,
18596,10.1002/aenm.201700099,25467,3c,31717,Pb1−xSbxTe_ x=1%_ n=-1.1e19,Pb0.99Sb0.01Te,500,,,,,,-0.00018771,,,
18596,10.1002/aenm.201700099,25467,3c,31717,Pb1−xSbxTe_ x=1%_ n=-1.1e19,Pb0.99Sb0.01Te,550,,,,,,-0.00019768,,,
18596,10.1002/aenm.201700099,25467,3c,31717,Pb1−xSbxTe_ x=1%_ n=-1.1e19,Pb0.99Sb0.01Te,600,,,,,,-0.00020765,,,
18596,10.1002/aenm.201700099,25467,3c,31717,Pb1−xSbxTe_ x=1%_ n=-1.1e19,Pb0.99Sb0.01Te,650,,,,,,-0.00021763,,,
18596,10.1002/aenm.201700099,25467,3c,31717,Pb1−xSbxTe_ x=1%_ n=-1.1e19,Pb0.99Sb0.01Te,700,,,,,,-0.0002276,,,
18596,10.1002/aenm.201700099,25467,3c,31717,Pb1−xSbxTe_ x=1%_ n=-1.1e19,Pb0.99Sb0.01Te,750,,,,,,-0.00023757,,,
18596,10.1002/aenm.201700099,25467,3c,31717,Pb1−xSbxTe_ x=1%_ n=-1.1e19,Pb0.99Sb0.01Te,800,,,,,,-0.00024754,,,
18596,10.1002/aenm.201700099,25467,3c,31717,Pb1−xSbxTe_ x=1%_ n=-1.1e19,Pb0.99Sb0.01Te,850,,,,,,-0.00025752,,,
18596,10.1002/aenm.201700099,25471,3d,31726,Pb1−xSbxTe_ x=0.25%_ n=-2.6e19,Pb0.975Sb0.025Te,350,,0.045585,104720,0.0000095493,,,,,
18596,10.1002/aenm.201700099,25471,3d,31726,Pb1−xSbxTe_ x=0.25%_ n=-2.6e19,Pb0.975Sb0.025Te,400,,0.040074,98073,0.000010196,,,,,
18596,10.1002/aenm.201700099,25471,3d,31726,Pb1−xSbxTe_ x=0.25%_ n=-2.6e19,Pb0.975Sb0.025Te,450,,0.034563,91429,0.000010937,,,,,
18596,10.1002/aenm.201700099,25471,3d,31726,Pb1−xSbxTe_ x=0.25%_ n=-2.6e19,Pb0.975Sb0.025Te,500,,0.029053,84785,0.000011795,,,,,
18596,10.1002/aenm.201700099,25471,3d,31726,Pb1−xSbxTe_ x=0.25%_ n=-2.6e19,Pb0.975Sb0.025Te,550,,0.023542,78142,0.000012797,,,,,
18596,10.1002/aenm.201700099,25471,3d,31726,Pb1−xSbxTe_ x=0.25%_ n=-2.6e19,Pb0.975Sb0.025Te,600,,0.018032,71498,0.000013986,,,,,
18596,10.1002/aenm.201700099,25471,3d,31726,Pb1−xSbxTe_ x=0.25%_ n=-2.6e19,Pb0.975Sb0.025Te,650,,0.012521,64854,0.000015419,,,,,
18596,10.1002/aenm.201700099,25473,3.1d,31726,Pb1−xSbxTe_ x=0.25%_ n=-2.6e19,Pb0.975Sb0.025Te,700,,,58210,0.000017179,,,,,
18596,10.1002/aenm.201700099,25482,5a,31727,Pb0.9875Sb0.0125Te1−ySy_ y=0,Pb0.9875Sb0.0125Te,350,,,166760,0.0000059966,0.0018016,-0.00010394,3.1158,0.23471,0.0005782143
18596,10.1002/aenm.201700099,25482,5a,31727,Pb0.9875Sb0.0125Te1−ySy_ y=0,Pb0.9875Sb0.0125Te,400,,,153230,0.0000065261,0.0020533,-0.00011576,2.9207,0.32255,0.0007030164
18596,10.1002/aenm.201700099,25482,5a,31727,Pb0.9875Sb0.0125Te1−ySy_ y=0,Pb0.9875Sb0.0125Te,450,,,139710,0.0000071577,0.0022744,-0.00012759,2.7256,0.4104,0.0008344585
18596,10.1002/aenm.201700099,25482,5a,31727,Pb0.9875Sb0.0125Te1−ySy_ y=0,Pb0.9875Sb0.0125Te,500,,,126190,0.0000079246,0.0024525,-0.00013941,2.5305,0.49824,0.0009691761
18596,10.1002/aenm.201700099,25482,5a,31727,Pb0.9875Sb0.0125Te1−ySy_ y=0,Pb0.9875Sb0.0125Te,550,,,112660,0.0000088763,0.0025769,-0.00015124,2.3354,0.58608,0.0011034084
18596,10.1002/aenm.201700099,25482,5a,31727,Pb0.9875Sb0.0125Te1−ySy_ y=0,Pb0.9875Sb0.0125Te,600,,,99137,0.000010087,0.0026362,-0.00016307,2.1403,0.67392,0.0012316965
18596,10.1002/aenm.201700099,25482,5a,31727,Pb0.9875Sb0.0125Te1−ySy_ y=0,Pb0.9875Sb0.0125Te,650,,,85612,0.000011681,0.0026186,-0.00017489,1.9452,0.76176,0.0013461855
18596,10.1002/aenm.201700099,25482,5a,31727,Pb0.9875Sb0.0125Te1−ySy_ y=0,Pb0.9875Sb0.0125Te,700,,,72088,0.000013872,0.0025133,-0.00018672,1.7501,0.8496,0.0014360894
18596,10.1002/aenm.201700099,25482,5a,31727,Pb0.9875Sb0.0125Te1−ySy_ y=0,Pb0.9875Sb0.0125Te,750,,,58563,0.000017076,0.0023084,-0.00019854,1.555,0.93744,0.0014845016
18596,10.1002/aenm.201700099,25482,5a,31727,Pb0.9875Sb0.0125Te1−ySy_ y=0,Pb0.9875Sb0.0125Te,800,,,45039,0.000022203,0.0019932,-0.00021037,1.3599,1.0253,0.001465696
18596,10.1002/aenm.201700099,25482,5a,31727,Pb0.9875Sb0.0125Te1−ySy_ y=0,Pb0.9875Sb0.0125Te,850,,,31514,0.000031732,0.0015559,-0.0002222,1.1648,1.1131,0.0013357658
18596,10.1002/aenm.201700099,25482,5a,31727,Pb0.9875Sb0.0125Te1−ySy_ y=0,Pb0.9875Sb0.0125Te,900,,,17990,0.000055586,0.00098523,-0.00023402,0.96972,0.91439,0.0010159943
18596,10.1002/aenm.201700099,25489,8a,31727,Pb0.9875Sb0.0125Te1−ySy_ y=0,Pb0.9875Sb0.0125Te,300,,,,,,,,0.14687,
18596,10.1002/aenm.201700099,25482,5a,31729,Pb0.9875Sb0.0125Te1−ySy_ y=0.08,Pb0.9875Sb0.0125Te0.92S0.08,350,,,173520,0.000005763,0.0014546,-0.000091557,2.3521,0.26346,0.0006184261