sid,DOI,figureid,fignum,sampleid,samplename,composition,Temperature,Carrier concentration,Carrier mobility,Electrical conductivity,Electrical resistivity,Power factor,Seebeck coefficient,Thermal conductivity,ZT,Figure of merit Z
27927,10.1039/c2ee21536e,25534,2a,31786,PbTe:La_ 1.8e19,PbTe:La,500,,0.03645,84282,0.000011865,0.0020955,-0.00015768,1.9042,0.55023,0.0011004621
27927,10.1039/c2ee21536e,25534,2a,31786,PbTe:La_ 1.8e19,PbTe:La,550,,0.026355,71608,0.000013965,0.0020418,-0.00016886,1.621,0.69278,0.0012595928
27927,10.1039/c2ee21536e,25534,2a,31786,PbTe:La_ 1.8e19,PbTe:La,600,,,62243,0.000016066,0.0020176,-0.00018004,,,
27927,10.1039/c2ee21536e,25534,2a,31786,PbTe:La_ 1.8e19,PbTe:La,650,,,,,,-0.00019122,,,
27927,10.1039/c2ee21536e,25534,2a,31786,PbTe:La_ 1.8e19,PbTe:La,700,,,,,,-0.0002024,,,
27927,10.1039/c2ee21536e,25534,2a,31786,PbTe:La_ 1.8e19,PbTe:La,750,,,,,,-0.00021359,,,
27927,10.1039/c2ee21536e,25534,2a,31786,PbTe:La_ 1.8e19,PbTe:La,800,,,,,,-0.00022477,,,
27927,10.1039/c2ee21536e,25534,2a,31787,PbTe:I_ 2.9e19,PbTe:I,350,,0.085237,348210,0.0000028718,0.0020546,-0.000076815,3.4143,0.21062,0.0006017632
27927,10.1039/c2ee21536e,25534,2a,31787,PbTe:I_ 2.9e19,PbTe:I,400,,0.072478,264810,0.0000037763,0.0021728,-0.000090583,3.0378,0.2861,0.0007152545
27927,10.1039/c2ee21536e,25534,2a,31787,PbTe:I_ 2.9e19,PbTe:I,450,,0.05972,209660,0.0000047696,0.002283,-0.00010435,2.6612,0.38605,0.0008578837
27927,10.1039/c2ee21536e,25534,2a,31787,PbTe:I_ 2.9e19,PbTe:I,500,,0.046961,169110,0.0000059134,0.0023595,-0.00011812,2.2847,0.51637,0.0010327395
27927,10.1039/c2ee21536e,25534,2a,31787,PbTe:I_ 2.9e19,PbTe:I,550,,0.034202,138160,0.0000072381,0.0024029,-0.00013188,1.9081,0.69262,0.0012593155
27927,10.1039/c2ee21536e,25534,2a,31787,PbTe:I_ 2.9e19,PbTe:I,600,,0.021443,,,,-0.00014565,,,
27927,10.1039/c2ee21536e,25534,2a,31787,PbTe:I_ 2.9e19,PbTe:I,650,,,,,,-0.00015942,,,
27927,10.1039/c2ee21536e,25534,2a,31787,PbTe:I_ 2.9e19,PbTe:I,700,,,,,,-0.00017319,,,
27927,10.1039/c2ee21536e,25534,2a,31787,PbTe:I_ 2.9e19,PbTe:I,750,,,,,,-0.00018695,,,
27927,10.1039/c2ee21536e,25537,2c,31787,PbTe:I_ 2.9e19,PbTe:I,300,,0.097996,,,,,3.7909,,
27927,10.1039/c2ee21536e,25534,2a,31788,PbTe:La_ 3.1e19,PbTe:La,350,,0.052037,241830,0.0000041351,0.00202,-0.000091394,3.3257,0.21259,0.0006073909
27927,10.1039/c2ee21536e,25534,2a,31788,PbTe:La_ 3.1e19,PbTe:La,400,,0.044956,183350,0.0000054541,0.0019626,-0.00010346,2.9832,0.26315,0.0006578842
27927,10.1039/c2ee21536e,25534,2a,31788,PbTe:La_ 3.1e19,PbTe:La,450,,0.037874,147650,0.000006773,0.0019704,-0.00011552,2.6408,0.33576,0.0007461375
27927,10.1039/c2ee21536e,25534,2a,31788,PbTe:La_ 3.1e19,PbTe:La,500,,0.030793,123580,0.000008092,0.0020118,-0.00012759,2.2984,0.43765,0.0008753046
27927,10.1039/c2ee21536e,25534,2a,31788,PbTe:La_ 3.1e19,PbTe:La,550,,0.023712,106260,0.0000094109,0.0020726,-0.00013966,1.9559,0.58282,0.0010596656
27927,10.1039/c2ee21536e,25534,2a,31788,PbTe:La_ 3.1e19,PbTe:La,600,,0.016631,93197,0.00001073,0.0021453,-0.00015172,1.6135,0.79776,0.0013295941
27927,10.1039/c2ee21536e,25534,2a,31788,PbTe:La_ 3.1e19,PbTe:La,650,,,,,,-0.00016379,,,
27927,10.1039/c2ee21536e,25534,2a,31788,PbTe:La_ 3.1e19,PbTe:La,700,,,,,,-0.00017585,,,
27927,10.1039/c2ee21536e,25534,2a,31788,PbTe:La_ 3.1e19,PbTe:La,750,,,,,,-0.00018792,,,
27927,10.1039/c2ee21536e,25534,2a,31788,PbTe:La_ 3.1e19,PbTe:La,800,,,,,,-0.00019998,,,
27927,10.1039/c2ee21536e,25535,2b,31788,PbTe:La_ 3.1e19,PbTe:La,300,,0.059118,355090,0.0000028162,,,3.6681,,
27928,10.1039/c8ee00112j,25527,1a,31778,InxPb1xTe0.996I0.004_ x=0, PbTe0.996I0.004,350,4.7678e+25,,308950,0.0000032368,0.0015054,-0.000069804,3.2696,0.14966,0.0004604233
27928,10.1039/c8ee00112j,25527,1a,31778,InxPb1xTe0.996I0.004_ x=0, PbTe0.996I0.004,400,4.7558e+25,,274980,0.0000036366,0.0019375,-0.00008394,2.9872,0.28422,0.0006486007
27928,10.1039/c8ee00112j,25527,1a,31778,InxPb1xTe0.996I0.004_ x=0, PbTe0.996I0.004,450,4.7437e+25,,241010,0.0000041492,0.0023183,-0.000098076,2.7048,0.41877,0.0008571059
27928,10.1039/c8ee00112j,25527,1a,31778,InxPb1xTe0.996I0.004_ x=0, PbTe0.996I0.004,500,4.7317e+25,,207030,0.0000048302,0.0026067,-0.00011221,2.4224,0.55333,0.0010760816
27928,10.1039/c8ee00112j,25527,1a,31778,InxPb1xTe0.996I0.004_ x=0, PbTe0.996I0.004,550,4.7196e+25,,173060,0.0000057783,0.0027628,-0.00012635,2.14,0.68789,0.001291028
27928,10.1039/c8ee00112j,25527,1a,31778,InxPb1xTe0.996I0.004_ x=0, PbTe0.996I0.004,600,4.7076e+25,,139090,0.0000071896,0.0027449,-0.00014048,1.8576,0.82244,0.0014776593
27928,10.1039/c8ee00112j,25527,1a,31778,InxPb1xTe0.996I0.004_ x=0, PbTe0.996I0.004,650,4.6956e+25,,105110,0.0000095138,0.0025129,-0.00015462,1.5752,0.957,0.0015952895
27928,10.1039/c8ee00112j,25527,1a,31778,InxPb1xTe0.996I0.004_ x=0, PbTe0.996I0.004,700,4.6835e+25,,71142,0.000014056,0.0020261,-0.00016876,1.2928,1.0916,0.0015672184
27928,10.1039/c8ee00112j,25527,1a,31778,InxPb1xTe0.996I0.004_ x=0, PbTe0.996I0.004,750,4.6715e+25,,37169,0.000026904,0.0012433,-0.00018289,1.0103,1.2261,0.0012306246
27928,10.1039/c8ee00112j,25527,1a,31779,InxPb1-xTe0.996I0.004_ x=0.0025, In0.0025Pb0.9975Te0.996I0.004,300,7.7485e+24,,,,,,,,
27928,10.1039/c8ee00112j,25527,1a,31779,InxPb1-xTe0.996I0.004_ x=0.0025, In0.0025Pb0.9975Te0.996I0.004,350,1.0683e+25,,122370,0.0000081719,0.0026789,-0.00014796,1.936,0.527,0.0013837293
27928,10.1039/c8ee00112j,25527,1a,31779,InxPb1-xTe0.996I0.004_ x=0.0025, In0.0025Pb0.9975Te0.996I0.004,400,1.3618e+25,,111350,0.0000089807,0.0027745,-0.00015785,1.8139,0.64509,0.0015295772
27928,10.1039/c8ee00112j,25527,1a,31779,InxPb1-xTe0.996I0.004_ x=0.0025, In0.0025Pb0.9975Te0.996I0.004,450,1.6552e+25,,100330,0.0000099671,0.002823,-0.00016774,1.6919,0.76318,0.0016685383
27928,10.1039/c8ee00112j,25527,1a,31779,InxPb1-xTe0.996I0.004_ x=0.0025, In0.0025Pb0.9975Te0.996I0.004,500,1.9487e+25,,89306,0.000011197,0.0028178,-0.00017763,1.5698,0.88127,0.0017950057
27928,10.1039/c8ee00112j,25527,1a,31779,InxPb1-xTe0.996I0.004_ x=0.0025, In0.0025Pb0.9975Te0.996I0.004,550,2.2421e+25,,78284,0.000012774,0.0027525,-0.00018751,1.4477,0.99936,0.0019012917
27928,10.1039/c8ee00112j,25527,1a,31779,InxPb1-xTe0.996I0.004_ x=0.0025, In0.0025Pb0.9975Te0.996I0.004,600,2.5356e+25,,67263,0.000014867,0.002621,-0.0001974,1.3256,1.1175,0.0019772179
27928,10.1039/c8ee00112j,25527,1a,31779,InxPb1-xTe0.996I0.004_ x=0.0025, In0.0025Pb0.9975Te0.996I0.004,650,2.8291e+25,,56241,0.000017781,0.0024166,-0.00020729,1.2036,1.2355,0.0020078099
27928,10.1039/c8ee00112j,25527,1a,31779,InxPb1-xTe0.996I0.004_ x=0.0025, In0.0025Pb0.9975Te0.996I0.004,700,3.1225e+25,,45219,0.000022115,0.0021329,-0.00021718,1.0815,1.3536,0.0019721683
27928,10.1039/c8ee00112j,25527,1a,31779,InxPb1-xTe0.996I0.004_ x=0.0025, In0.0025Pb0.9975Te0.996I0.004,750,3.416e+25,,34198,0.000029241,0.0017631,-0.00022706,0.95943,1.4717,0.0018376536
27928,10.1039/c8ee00112j,25527,1a,31780, InxPb1-xTe0.996I0.004_ x=0.0035, In0.0035Pb0.9965Te0.996I0.004,300,1.9583e+24,,,,,,,,
27928,10.1039/c8ee00112j,25527,1a,31780, InxPb1-xTe0.996I0.004_ x=0.0035, In0.0035Pb0.9965Te0.996I0.004,350,4.1166e+24,,110230,0.0000090719,0.0026037,-0.00015369,1.6078,0.60829,0.0016194178
27928,10.1039/c8ee00112j,25527,1a,31780, InxPb1-xTe0.996I0.004_ x=0.0035, In0.0035Pb0.9965Te0.996I0.004,400,6.2748e+24,,100860,0.0000099147,0.002661,-0.00016243,1.5214,0.72155,0.0017490469
27928,10.1039/c8ee00112j,25527,1a,31780, InxPb1-xTe0.996I0.004_ x=0.0035, In0.0035Pb0.9965Te0.996I0.004,450,8.433e+24,,91496,0.000010929,0.0026808,-0.00017117,1.435,0.83481,0.0018681533
27928,10.1039/c8ee00112j,25527,1a,31780, InxPb1-xTe0.996I0.004_ x=0.0035, In0.0035Pb0.9965Te0.996I0.004,500,1.0591e+25,,82130,0.000012176,0.0026584,-0.00017991,1.3487,0.94807,0.0019710833
27928,10.1039/c8ee00112j,25527,1a,31780, InxPb1-xTe0.996I0.004_ x=0.0035, In0.0035Pb0.9965Te0.996I0.004,550,1.2749e+25,,72763,0.000013743,0.0025895,-0.00018865,1.2623,1.0613,0.0020514141
27928,10.1039/c8ee00112j,25527,1a,31780, InxPb1-xTe0.996I0.004_ x=0.0035, In0.0035Pb0.9965Te0.996I0.004,600,1.4908e+25,,63397,0.000015774,0.0024701,-0.00019739,1.176,1.1746,0.0021004252
27928,10.1039/c8ee00112j,25527,1a,31780, InxPb1-xTe0.996I0.004_ x=0.0035, In0.0035Pb0.9965Te0.996I0.004,650,1.7066e+25,,54030,0.000018508,0.0022957,-0.00020613,1.0896,1.2878,0.00210692
27928,10.1039/c8ee00112j,25527,1a,31780, InxPb1-xTe0.996I0.004_ x=0.0035, In0.0035Pb0.9965Te0.996I0.004,700,1.9224e+25,,44663,0.00002239,0.0020621,-0.00021487,1.0032,1.4011,0.0020555223
27928,10.1039/c8ee00112j,25527,1a,31780, InxPb1-xTe0.996I0.004_ x=0.0035, In0.0035Pb0.9965Te0.996I0.004,750,2.1382e+25,,35297,0.000028331,0.0017649,-0.00022361,0.91687,1.5144,0.0019249185
27928,10.1039/c8ee00112j,25527,1a,31781, InxPb1xTe0.996I0.004_ x=0.0050, In0.0050Pb0.9950Te0.996I0.004,300,2.7457e+24,,,,,,,,
27928,10.1039/c8ee00112j,25527,1a,31781, InxPb1xTe0.996I0.004_ x=0.0050, In0.0050Pb0.9950Te0.996I0.004,350,3.6948e+24,,91874,0.000010884,0.002507,-0.00016519,2.0905,0.42928,0.0011992346
27928,10.1039/c8ee00112j,25527,1a,31781, InxPb1xTe0.996I0.004_ x=0.0050, In0.0050Pb0.9950Te0.996I0.004,400,4.644e+24,,84791,0.000011794,0.0025459,-0.00017328,1.9641,0.53411,0.0012962171
27928,10.1039/c8ee00112j,25527,1a,31781, InxPb1xTe0.996I0.004_ x=0.0050, In0.0050Pb0.9950Te0.996I0.004,450,5.5931e+24,,77708,0.000012869,0.0025562,-0.00018137,1.8377,0.63894,0.0013909779
27928,10.1039/c8ee00112j,25527,1a,31781, InxPb1xTe0.996I0.004_ x=0.0050, In0.0050Pb0.9950Te0.996I0.004,500,6.5422e+24,,70625,0.000014159,0.0025351,-0.00018946,1.7113,0.74377,0.0014813884
27928,10.1039/c8ee00112j,25527,1a,31781, InxPb1xTe0.996I0.004_ x=0.0050, In0.0050Pb0.9950Te0.996I0.004,550,7.4913e+24,,63543,0.000015737,0.0024798,-0.00019755,1.5849,0.84859,0.0015646413
27928,10.1039/c8ee00112j,25527,1a,31781, InxPb1xTe0.996I0.004_ x=0.0050, In0.0050Pb0.9950Te0.996I0.004,600,8.4404e+24,,56460,0.000017712,0.0023876,-0.00020564,1.4585,0.95342,0.0016370243
27928,10.1039/c8ee00112j,25527,1a,31781, InxPb1xTe0.996I0.004_ x=0.0050, In0.0050Pb0.9950Te0.996I0.004,650,9.3895e+24,,49377,0.000020252,0.0022556,-0.00021373,1.3321,1.0582,0.0016932663
27928,10.1039/c8ee00112j,25527,1a,31781, InxPb1xTe0.996I0.004_ x=0.0050, In0.0050Pb0.9950Te0.996I0.004,700,1.0339e+25,,42294,0.000023644,0.002081,-0.00022182,1.2057,1.1631,0.0017259683
27928,10.1039/c8ee00112j,25527,1a,31781, InxPb1xTe0.996I0.004_ x=0.0050, In0.0050Pb0.9950Te0.996I0.004,750,1.1288e+25,,35212,0.000028399,0.0018613,-0.00022991,1.0793,1.2679,0.0017245437