sid,DOI,figureid,fignum,sampleid,samplename,composition,Temperature,Carrier concentration,Carrier mobility,Electrical conductivity,Electrical resistivity,Power factor,Seebeck coefficient,Thermal conductivity,ZT,Figure of merit Z
18596,10.1002/aenm.201700099,25482,5a,31729,Pb0.9875Sb0.0125Te1−ySy_ y=0.08,Pb0.9875Sb0.0125Te0.92S0.08,400,,,158470,0.0000063103,0.0017418,-0.00010484,2.2159,0.36959,0.0007860463
18596,10.1002/aenm.201700099,25482,5a,31729,Pb0.9875Sb0.0125Te1−ySy_ y=0.08,Pb0.9875Sb0.0125Te0.92S0.08,450,,,143420,0.0000069725,0.0020014,-0.00011813,2.0797,0.47572,0.0009623503
18596,10.1002/aenm.201700099,25482,5a,31729,Pb0.9875Sb0.0125Te1−ySy_ y=0.08,Pb0.9875Sb0.0125Te0.92S0.08,500,,,128370,0.00000779,0.0022171,-0.00013142,1.9436,0.58185,0.0011407183
18596,10.1002/aenm.201700099,25482,5a,31729,Pb0.9875Sb0.0125Te1−ySy_ y=0.08,Pb0.9875Sb0.0125Te0.92S0.08,550,,,113330,0.0000088238,0.0023729,-0.0001447,1.8074,0.68798,0.0013128804
18596,10.1002/aenm.201700099,25482,5a,31729,Pb0.9875Sb0.0125Te1−ySy_ y=0.08,Pb0.9875Sb0.0125Te0.92S0.08,600,,,98276,0.000010175,0.0024531,-0.00015799,1.6713,0.7941,0.0014677796
18596,10.1002/aenm.201700099,25482,5a,31729,Pb0.9875Sb0.0125Te1−ySy_ y=0.08,Pb0.9875Sb0.0125Te0.92S0.08,650,,,83226,0.000012015,0.0024416,-0.00017128,1.5351,0.90023,0.0015905153
18596,10.1002/aenm.201700099,25482,5a,31729,Pb0.9875Sb0.0125Te1−ySy_ y=0.08,Pb0.9875Sb0.0125Te0.92S0.08,700,,,68176,0.000014668,0.0023222,-0.00018456,1.399,1.0064,0.0016598999
18596,10.1002/aenm.201700099,25482,5a,31729,Pb0.9875Sb0.0125Te1−ySy_ y=0.08,Pb0.9875Sb0.0125Te0.92S0.08,750,,,53127,0.000018823,0.0020796,-0.00019785,1.2628,1.1125,0.0016468166
18596,10.1002/aenm.201700099,25482,5a,31729,Pb0.9875Sb0.0125Te1−ySy_ y=0.08,Pb0.9875Sb0.0125Te0.92S0.08,800,,,38077,0.000026263,0.0016975,-0.00021114,1.1266,1.2186,0.001506746
18596,10.1002/aenm.201700099,25482,5a,31729,Pb0.9875Sb0.0125Te1−ySy_ y=0.08,Pb0.9875Sb0.0125Te0.92S0.08,850,,,23027,0.000043427,0.0011597,-0.00022442,0.99048,1.3247,0.0011708465
18596,10.1002/aenm.201700099,25482,5a,31729,Pb0.9875Sb0.0125Te1−ySy_ y=0.08,Pb0.9875Sb0.0125Te0.92S0.08,900,,,7977.8,0.00012535,0.00045079,-0.00023771,0.85432,1.4309,0.0005276594
18596,10.1002/aenm.201700099,25482,5a,31728,Pb0.9875Sb0.0125Te1−ySy_ y=0.04,Pb0.9875Sb0.0125Te0.96S0.04,350,,,172880,0.0000057844,0.0016223,-0.000096872,2.6887,0.23737,0.0006033771
18596,10.1002/aenm.201700099,25482,5a,31728,Pb0.9875Sb0.0125Te1−ySy_ y=0.04,Pb0.9875Sb0.0125Te0.96S0.04,400,,,157800,0.0000063371,0.0018928,-0.00010952,2.5253,0.33606,0.0007495347
18596,10.1002/aenm.201700099,25482,5a,31728,Pb0.9875Sb0.0125Te1−ySy_ y=0.04,Pb0.9875Sb0.0125Te0.96S0.04,450,,,142710,0.0000070072,0.00213,-0.00012217,2.3619,0.43475,0.0009018163
18596,10.1002/aenm.201700099,25482,5a,31728,Pb0.9875Sb0.0125Te1−ySy_ y=0.04,Pb0.9875Sb0.0125Te0.96S0.04,500,,,127620,0.0000078358,0.0023197,-0.00013482,2.1985,0.53344,0.0010551285
18596,10.1002/aenm.201700099,25482,5a,31728,Pb0.9875Sb0.0125Te1−ySy_ y=0.04,Pb0.9875Sb0.0125Te0.96S0.04,550,,,112540,0.0000088857,0.0024475,-0.00014747,2.0351,0.63214,0.0012026436
18596,10.1002/aenm.201700099,25482,5a,31728,Pb0.9875Sb0.0125Te1−ySy_ y=0.04,Pb0.9875Sb0.0125Te0.96S0.04,600,,,97450,0.000010262,0.0024985,-0.00016012,1.8717,0.73083,0.0013348827
18596,10.1002/aenm.201700099,25482,5a,31728,Pb0.9875Sb0.0125Te1−ySy_ y=0.04,Pb0.9875Sb0.0125Te0.96S0.04,650,,,82363,0.000012141,0.0024585,-0.00017277,1.7083,0.82952,0.00143915
18596,10.1002/aenm.201700099,25482,5a,31728,Pb0.9875Sb0.0125Te1−ySy_ y=0.04,Pb0.9875Sb0.0125Te0.96S0.04,700,,,67276,0.000014864,0.002313,-0.00018542,1.5449,0.92821,0.0014971843
18596,10.1002/aenm.201700099,25482,5a,31728,Pb0.9875Sb0.0125Te1−ySy_ y=0.04,Pb0.9875Sb0.0125Te0.96S0.04,750,,,52190,0.000019161,0.0020475,-0.00019807,1.3815,1.0269,0.0014820847
18596,10.1002/aenm.201700099,25482,5a,31728,Pb0.9875Sb0.0125Te1−ySy_ y=0.04,Pb0.9875Sb0.0125Te0.96S0.04,800,,,37103,0.000026952,0.0016475,-0.00021072,1.2181,1.1256,0.0013525162
18596,10.1002/aenm.201700099,25482,5a,31728,Pb0.9875Sb0.0125Te1−ySy_ y=0.04,Pb0.9875Sb0.0125Te0.96S0.04,850,,,22016,0.000045422,0.0010985,-0.00022337,1.0547,1.2243,0.0010415284
18596,10.1002/aenm.201700099,25486,5b,31728,Pb0.9875Sb0.0125Te1−ySy_ y=0.04,Pb0.9875Sb0.0125Te0.96S0.04,900,,,,,,-0.00023602,0.89129,,
18596,10.1002/aenm.201700099,25489,8a,31728,Pb0.9875Sb0.0125Te1−ySy_ y=0.04,Pb0.9875Sb0.0125Te0.96S0.04,300,,,,,,,,0.13868,
18596,10.1002/aenm.201700099,25482,5a,31730,Pb0.9875Sb0.0125Te1−ySy_ y=0.12,Pb0.9875Sb0.0125Te0.88S0.12,350,,,173220,0.000005773,0.0012725,-0.000085711,2.1627,0.23107,0.0005883849
18596,10.1002/aenm.201700099,25482,5a,31730,Pb0.9875Sb0.0125Te1−ySy_ y=0.12,Pb0.9875Sb0.0125Te0.88S0.12,400,,,158070,0.0000063263,0.0015643,-0.00009948,2.0352,0.34698,0.0007686222
18596,10.1002/aenm.201700099,25482,5a,31730,Pb0.9875Sb0.0125Te1−ySy_ y=0.12,Pb0.9875Sb0.0125Te0.88S0.12,450,,,142920,0.0000069969,0.001833,-0.00011325,1.9077,0.4629,0.0009608429
18596,10.1002/aenm.201700099,25482,5a,31730,Pb0.9875Sb0.0125Te1−ySy_ y=0.12,Pb0.9875Sb0.0125Te0.88S0.12,500,,,127770,0.0000078266,0.0020615,-0.00012702,1.7802,0.57881,0.001158016
18596,10.1002/aenm.201700099,25482,5a,31730,Pb0.9875Sb0.0125Te1−ySy_ y=0.12,Pb0.9875Sb0.0125Te0.88S0.12,550,,,112620,0.0000088794,0.0022323,-0.00014079,1.6527,0.69472,0.0013506989
18596,10.1002/aenm.201700099,25482,5a,31730,Pb0.9875Sb0.0125Te1−ySy_ y=0.12,Pb0.9875Sb0.0125Te0.88S0.12,600,,,97469,0.00001026,0.0023284,-0.00015456,1.5252,0.81064,0.0015266195
18596,10.1002/aenm.201700099,25482,5a,31730,Pb0.9875Sb0.0125Te1−ySy_ y=0.12,Pb0.9875Sb0.0125Te0.88S0.12,650,,,82319,0.000012148,0.0023325,-0.00016833,1.3978,0.92655,0.0016686937
18596,10.1002/aenm.201700099,25482,5a,31730,Pb0.9875Sb0.0125Te1−ySy_ y=0.12,Pb0.9875Sb0.0125Te0.88S0.12,700,,,67169,0.000014888,0.0022271,-0.00018209,1.2703,1.0425,0.0017532079
18596,10.1002/aenm.201700099,25482,5a,31730,Pb0.9875Sb0.0125Te1−ySy_ y=0.12,Pb0.9875Sb0.0125Te0.88S0.12,750,,,52019,0.000019224,0.0019955,-0.00019586,1.1428,1.1584,0.0017461498
18596,10.1002/aenm.201700099,25482,5a,31730,Pb0.9875Sb0.0125Te1−ySy_ y=0.12,Pb0.9875Sb0.0125Te0.88S0.12,800,,,36869,0.000027123,0.0016202,-0.00020963,1.0153,1.2743,0.0015957845
18596,10.1002/aenm.201700099,25482,5a,31730,Pb0.9875Sb0.0125Te1−ySy_ y=0.12,Pb0.9875Sb0.0125Te0.88S0.12,850,,,21719,0.000046043,0.0010839,-0.0002234,0.88781,1.3902,0.0012208693
18596,10.1002/aenm.201700099,25482,5a,31730,Pb0.9875Sb0.0125Te1−ySy_ y=0.12,Pb0.9875Sb0.0125Te0.88S0.12,900,,,6568.6,0.00015224,0.00036948,-0.00023717,0.76033,0.43735,0.0004859469
18596,10.1002/aenm.201700099,25482,5a,31731,Pb0.9875Sb0.0125Te1−ySy_ y=0.16,Pb0.9875Sb0.0125Te0.84S0.16,350,,,163290,0.0000061241,0.00092848,-0.000075406,2.2329,0.1688,0.000415818
18596,10.1002/aenm.201700099,25482,5a,31731,Pb0.9875Sb0.0125Te1−ySy_ y=0.16,Pb0.9875Sb0.0125Te0.84S0.16,400,,,149300,0.0000066979,0.0012092,-0.000089997,2.1043,0.27783,0.0005746329
18596,10.1002/aenm.201700099,25482,5a,31731,Pb0.9875Sb0.0125Te1−ySy_ y=0.16,Pb0.9875Sb0.0125Te0.84S0.16,450,,,135320,0.0000073899,0.0014803,-0.00010459,1.9757,0.38685,0.0007492534
18596,10.1002/aenm.201700099,25482,5a,31731,Pb0.9875Sb0.0125Te1−ySy_ y=0.16,Pb0.9875Sb0.0125Te0.84S0.16,500,,,121330,0.000008242,0.0017234,-0.00011918,1.8472,0.49588,0.0009329796
18596,10.1002/aenm.201700099,25482,5a,31731,Pb0.9875Sb0.0125Te1−ySy_ y=0.16,Pb0.9875Sb0.0125Te0.84S0.16,550,,,107350,0.0000093153,0.001921,-0.00013377,1.7186,0.60491,0.0011177703
18596,10.1002/aenm.201700099,25482,5a,31731,Pb0.9875Sb0.0125Te1−ySy_ y=0.16,Pb0.9875Sb0.0125Te0.84S0.16,600,,,93360,0.000010711,0.0020549,-0.00014836,1.59,0.71393,0.0012923899
18596,10.1002/aenm.201700099,25482,5a,31731,Pb0.9875Sb0.0125Te1−ySy_ y=0.16,Pb0.9875Sb0.0125Te0.84S0.16,650,,,79375,0.000012598,0.0021076,-0.00016295,1.4614,0.82296,0.0014421787
18596,10.1002/aenm.201700099,25482,5a,31731,Pb0.9875Sb0.0125Te1−ySy_ y=0.16,Pb0.9875Sb0.0125Te0.84S0.16,700,,,65389,0.000015293,0.0020611,-0.00017754,1.3328,0.93199,0.0015464436
18596,10.1002/aenm.201700099,25482,5a,31731,Pb0.9875Sb0.0125Te1−ySy_ y=0.16,Pb0.9875Sb0.0125Te0.84S0.16,750,,,51404,0.000019454,0.0018975,-0.00019213,1.2042,1.041,0.0015757349
18596,10.1002/aenm.201700099,25482,5a,31731,Pb0.9875Sb0.0125Te1−ySy_ y=0.16,Pb0.9875Sb0.0125Te0.84S0.16,800,,,37418,0.000026725,0.0015991,-0.00020673,1.0756,1.15,0.0014867051
18596,10.1002/aenm.201700099,25482,5a,31731,Pb0.9875Sb0.0125Te1−ySy_ y=0.16,Pb0.9875Sb0.0125Te0.84S0.16,850,,,23433,0.000042675,0.0011478,-0.00022132,0.94703,1.2591,0.0012119996
18596,10.1002/aenm.201700099,25482,5a,31731,Pb0.9875Sb0.0125Te1−ySy_ y=0.16,Pb0.9875Sb0.0125Te0.84S0.16,900,,,9447,0.00010585,0.00052576,-0.00023591,0.81844,1.3681,0.0006423928
18596,10.1002/aenm.201700099,25487,6a,31731,Pb0.9875Sb0.0125Te1−ySy_ y=0.16,Pb0.9875Sb0.0125Te0.84S0.16,300,,,,,,,2.3615,,
27926,10.1039/c8ee00418h,25419,2a,31644, PbCuxSe_ x=0, PbSe,350,,,5748.4,0.00017396,0.00030211,-0.00022925,1.4673,0.06455,0.0002058952
27926,10.1039/c8ee00418h,25419,2a,31644, PbCuxSe_ x=0, PbSe,400,,,6170.4,0.00016206,0.00035308,-0.00023921,1.4164,0.11882,0.0002492799
27926,10.1039/c8ee00418h,25419,2a,31644, PbCuxSe_ x=0, PbSe,450,,,6592.3,0.00015169,0.00040932,-0.00024918,1.3656,0.1731,0.0002997364
27926,10.1039/c8ee00418h,25419,2a,31644, PbCuxSe_ x=0, PbSe,500,,,7014.2,0.00014257,0.00047106,-0.00025915,1.3148,0.22737,0.000358275
27926,10.1039/c8ee00418h,25419,2a,31644, PbCuxSe_ x=0, PbSe,550,,,7436.2,0.00013448,0.00053857,-0.00026912,1.2639,0.28165,0.0004261176
27926,10.1039/c8ee00418h,25419,2a,31644, PbCuxSe_ x=0, PbSe,600,,,7858.1,0.00012726,0.00061208,-0.00027909,1.2131,0.33592,0.0005045586
27926,10.1039/c8ee00418h,25419,2a,31644, PbCuxSe_ x=0, PbSe,650,,,8280,0.00012077,0.00069184,-0.00028906,1.1623,0.3902,0.0005952336
27926,10.1039/c8ee00418h,25419,2a,31644, PbCuxSe_ x=0, PbSe,700,,,8702,0.00011492,0.00077807,-0.00029902,1.1114,0.44447,0.000700081
27926,10.1039/c8ee00418h,25419,2a,31644, PbCuxSe_ x=0, PbSe,750,,,9123.9,0.0001096,0.0008711,-0.00030899,1.0606,0.49875,0.0008213276
27926,10.1039/c8ee00418h,25419,2a,31644, PbCuxSe_ x=0, PbSe,800,,,9545.8,0.00010476,0.00097115,-0.00031896,1.0098,0.55302,0.0009617251
27926,10.1039/c8ee00418h,25419,2a,31645, PbCuxSe_ x=0.00125, PbCu0.00125Se,350,1.2996e+25,0.055345,104310,0.0000095868,0.0024157,-0.00015218,1.9614,0.46548,0.0012316203
27926,10.1039/c8ee00418h,25419,2a,31645, PbCuxSe_ x=0.00125, PbCu0.00125Se,400,1.3136e+25,0.048518,93972,0.000010641,0.0025102,-0.00016344,1.8403,0.55541,0.0013640167
27926,10.1039/c8ee00418h,25419,2a,31645, PbCuxSe_ x=0.00125, PbCu0.00125Se,450,1.3275e+25,0.041692,83636,0.000011957,0.0025526,-0.0001747,1.7192,0.64533,0.0014847604
27926,10.1039/c8ee00418h,25419,2a,31645, PbCuxSe_ x=0.00125, PbCu0.00125Se,500,1.3414e+25,0.034865,73300,0.000013643,0.0025348,-0.00018596,1.5981,0.73525,0.0015861335
27926,10.1039/c8ee00418h,25419,2a,31645, PbCuxSe_ x=0.00125, PbCu0.00125Se,550,1.3553e+25,0.028039,62964,0.000015882,0.002449,-0.00019722,1.477,0.82518,0.0016580907
27926,10.1039/c8ee00418h,25419,2a,31645, PbCuxSe_ x=0.00125, PbCu0.00125Se,600,1.3693e+25,0.021212,52628,0.000019001,0.0022874,-0.00020848,1.3559,0.9151,0.0016869976
27926,10.1039/c8ee00418h,25419,2a,31645, PbCuxSe_ x=0.00125, PbCu0.00125Se,650,1.3832e+25,0.014386,42292,0.000023645,0.0020423,-0.00021975,1.2348,1.005,0.0016539521
27926,10.1039/c8ee00418h,25419,2a,31645, PbCuxSe_ x=0.00125, PbCu0.00125Se,700,1.3971e+25,0.0075595,31955,0.000031294,0.0017053,-0.00023101,1.1137,1.0949,0.0015312023
27926,10.1039/c8ee00418h,25419,2a,31645, PbCuxSe_ x=0.00125, PbCu0.00125Se,750,,,21619,0.000046256,0.0012689,-0.00024227,0.99264,1.1849,0.0012783083
27926,10.1039/c8ee00418h,25419,2a,31645, PbCuxSe_ x=0.00125, PbCu0.00125Se,800,,,11283,0.000088629,0.00072524,-0.00025353,0.87154,1.2748,0.0008321362
27926,10.1039/c8ee00418h,25419,2a,31646, PbCuxSe_ x= 0.0025, PbCu0.0025Se,350,1.4263e+25,0.049283,151920,0.0000065824,0.0022037,-0.00012044,1.9137,0.43822,0.0011515389
27926,10.1039/c8ee00418h,25419,2a,31646, PbCuxSe_ x= 0.0025, PbCu0.0025Se,400,1.4452e+25,0.043367,137300,0.0000072833,0.0023793,-0.00013164,1.7956,0.55733,0.0013250724
27926,10.1039/c8ee00418h,25419,2a,31646, PbCuxSe_ x= 0.0025, PbCu0.0025Se,450,1.4641e+25,0.037452,122670,0.000008152,0.0025029,-0.00014284,1.6775,0.67644,0.0014920417
27926,10.1039/c8ee00418h,25419,2a,31646, PbCuxSe_ x= 0.0025, PbCu0.0025Se,500,1.483e+25,0.031537,108050,0.000009255,0.0025635,-0.00015403,1.5594,0.79555,0.0016439015
27926,10.1039/c8ee00418h,25419,2a,31646, PbCuxSe_ x= 0.0025, PbCu0.0025Se,550,1.5019e+25,0.025622,93420,0.000010704,0.0025505,-0.00016523,1.4414,0.91466,0.0017694602
27926,10.1039/c8ee00418h,25419,2a,31646, PbCuxSe_ x= 0.0025, PbCu0.0025Se,600,1.5208e+25,0.019706,78795,0.000012691,0.0024524,-0.00017642,1.3233,1.0338,0.0018532457
27926,10.1039/c8ee00418h,25419,2a,31646, PbCuxSe_ x= 0.0025, PbCu0.0025Se,650,1.5397e+25,0.013791,64169,0.000015584,0.0022588,-0.00018762,1.2052,1.1529,0.0018742117
27926,10.1039/c8ee00418h,25419,2a,31646, PbCuxSe_ x= 0.0025, PbCu0.0025Se,700,1.5587e+25,0.0078758,49544,0.000020184,0.0019582,-0.00019881,1.0871,1.272,0.0018013062
27926,10.1039/c8ee00418h,25419,2a,31646, PbCuxSe_ x= 0.0025, PbCu0.0025Se,750,,,34918,0.000028639,0.00154,-0.00021001,0.96905,1.3911,0.0015891853
27926,10.1039/c8ee00418h,25419,2a,31646, PbCuxSe_ x= 0.0025, PbCu0.0025Se,800,,,20293,0.000049278,0.00099301,-0.00022121,0.85097,1.5102,0.0011669154
27926,10.1039/c8ee00418h,25422,3b,31646, PbCuxSe_ x= 0.0025, PbCu0.0025Se,300,,0.055198,,,,,,,
27926,10.1039/c8ee00418h,25419,2a,31647, PbCuxSe_ x=0.00375, PbCu0.00375Se,350,,,153310,0.0000065227,0.0022815,-0.00012199,1.7305,0.48035,0.0013184051
27926,10.1039/c8ee00418h,25419,2a,31647, PbCuxSe_ x=0.00375, PbCu0.00375Se,400,,,139290,0.0000071793,0.0024152,-0.00013168,1.6323,0.60487,0.00147963
27926,10.1039/c8ee00418h,25419,2a,31647, PbCuxSe_ x=0.00375, PbCu0.00375Se,450,,,125280,0.0000079821,0.0025038,-0.00014137,1.5341,0.72939,0.001632097
27926,10.1039/c8ee00418h,25419,2a,31647, PbCuxSe_ x=0.00375, PbCu0.00375Se,500,,,111270,0.0000089871,0.0025391,-0.00015106,1.436,0.85391,0.0017681755
27926,10.1039/c8ee00418h,25419,2a,31647, PbCuxSe_ x=0.00375, PbCu0.00375Se,550,,,97251,0.000010283,0.002513,-0.00016075,1.3378,0.97843,0.0018784572
27926,10.1039/c8ee00418h,25419,2a,31647, PbCuxSe_ x=0.00375, PbCu0.00375Se,600,,,83237,0.000012014,0.0024177,-0.00017043,1.2397,1.1029,0.0019502299
27926,10.1039/c8ee00418h,25419,2a,31647, PbCuxSe_ x=0.00375, PbCu0.00375Se,650,,,69222,0.000014446,0.0022458,-0.00018012,1.1415,1.2275,0.0019674113
27926,10.1039/c8ee00418h,25419,2a,31647, PbCuxSe_ x=0.00375, PbCu0.00375Se,700,,,55208,0.000018113,0.001989,-0.00018981,1.0433,1.352,0.0019064507
27926,10.1039/c8ee00418h,25419,2a,31647, PbCuxSe_ x=0.00375, PbCu0.00375Se,750,,,41194,0.000024275,0.0016395,-0.0001995,0.94516,1.4765,0.0017346269
27926,10.1039/c8ee00418h,25419,2a,31647, PbCuxSe_ x=0.00375, PbCu0.00375Se,800,,,27179,0.000036793,0.0011894,-0.00020919,0.847,1.601,0.0014042503
27926,10.1039/c8ee00418h,25419,2a,31648, PbCuxSe_ x=0.005, PbCu0.005Se,350,1.3858e+25,0.065292,158700,0.0000063012,0.0022629,-0.00011941,2.0153,0.37024,0.0011228601
27926,10.1039/c8ee00418h,25419,2a,31648, PbCuxSe_ x=0.005, PbCu0.005Se,400,1.4291e+25,0.056868,145090,0.0000068923,0.0023627,-0.00012761,1.8927,0.497,0.0012483225
27926,10.1039/c8ee00418h,25419,2a,31648, PbCuxSe_ x=0.005, PbCu0.005Se,450,1.4724e+25,0.048443,131490,0.0000076051,0.0024252,-0.00013581,1.7702,0.62375,0.0013700147
27926,10.1039/c8ee00418h,25419,2a,31648, PbCuxSe_ x=0.005, PbCu0.005Se,500,1.5157e+25,0.040019,117880,0.0000084832,0.0024444,-0.000144,1.6476,0.7505,0.0014836125
27926,10.1039/c8ee00418h,25419,2a,31648, PbCuxSe_ x=0.005, PbCu0.005Se,550,1.559e+25,0.031595,104270,0.0000095905,0.0024154,-0.0001522,1.5251,0.87725,0.001583765
27926,10.1039/c8ee00418h,25419,2a,31648, PbCuxSe_ x=0.005, PbCu0.005Se,600,1.6023e+25,0.023171,90668,0.000011029,0.0023327,-0.0001604,1.4025,1.004,0.0016632442
27926,10.1039/c8ee00418h,25419,2a,31648, PbCuxSe_ x=0.005, PbCu0.005Se,650,1.6456e+25,0.014746,77061,0.000012977,0.0021903,-0.00016859,1.28,1.1308,0.0017111719
27926,10.1039/c8ee00418h,25419,2a,31648, PbCuxSe_ x=0.005, PbCu0.005Se,700,1.6889e+25,0.006322,63455,0.000015759,0.0019833,-0.00017679,1.1574,1.2575,0.0017135822
27926,10.1039/c8ee00418h,25419,2a,31648, PbCuxSe_ x=0.005, PbCu0.005Se,750,,,49849,0.000020061,0.0017059,-0.00018499,1.0349,1.3843,0.0016483718
27926,10.1039/c8ee00418h,25419,2a,31648, PbCuxSe_ x=0.005, PbCu0.005Se,800,,,36242,0.000027592,0.0013525,-0.00019318,0.91231,1.511,0.0014825005
27926,10.1039/c8ee00418h,25419,2a,31649, PbCuxSe_ x=0.0075, PbCu0.0075Se,350,1.3376e+25,0.066176,143390,0.000006974,0.0019305,-0.00011603,2.087,0.29394,0.000925012
27926,10.1039/c8ee00418h,25419,2a,31649, PbCuxSe_ x=0.0075, PbCu0.0075Se,400,1.4043e+25,0.057661,132850,0.0000075273,0.0020112,-0.00012304,1.9651,0.4101,0.0010234594
27926,10.1039/c8ee00418h,25419,2a,31649, PbCuxSe_ x=0.0075, PbCu0.0075Se,450,1.4709e+25,0.049147,122310,0.0000081759,0.0020686,-0.00013005,1.8432,0.52626,0.0011222873
27926,10.1039/c8ee00418h,25419,2a,31649, PbCuxSe_ x=0.0075, PbCu0.0075Se,500,1.5375e+25,0.040633,111770,0.0000089469,0.0020996,-0.00013706,1.7214,0.64242,0.0012197049
27926,10.1039/c8ee00418h,25419,2a,31649, PbCuxSe_ x=0.0075, PbCu0.0075Se,550,1.6041e+25,0.032118,101230,0.0000098785,0.0021011,-0.00014407,1.5995,0.75858,0.001313598
27926,10.1039/c8ee00418h,25419,2a,31649, PbCuxSe_ x=0.0075, PbCu0.0075Se,600,1.6707e+25,0.023604,90692,0.000011026,0.0020701,-0.00015108,1.4776,0.87474,0.0014009881
27926,10.1039/c8ee00418h,25419,2a,31649, PbCuxSe_ x=0.0075, PbCu0.0075Se,650,1.7374e+25,0.01509,80153,0.000012476,0.0020032,-0.00015809,1.3558,0.9909,0.0014775041
27926,10.1039/c8ee00418h,25419,2a,31649, PbCuxSe_ x=0.0075, PbCu0.0075Se,700,1.804e+25,0.0065755,69614,0.000014365,0.0018975,-0.0001651,1.2339,1.1071,0.001537807
27926,10.1039/c8ee00418h,25419,2a,31649, PbCuxSe_ x=0.0075, PbCu0.0075Se,750,,,59075,0.000016928,0.0017499,-0.00017211,1.112,1.2232,0.0015736511
27926,10.1039/c8ee00418h,25419,2a,31649, PbCuxSe_ x=0.0075, PbCu0.0075Se,800,,,48536,0.000020603,0.0015572,-0.00017912,0.99015,1.3394,0.001572691
27927,10.1039/c2ee21536e,25534,2a,31785,PbTe:I_ 1.8e19,PbTe:I,350,,0.10251,274030,0.0000036493,0.0027694,-0.00010053,2.7285,0.35525,0.0010149899
27927,10.1039/c2ee21536e,25534,2a,31785,PbTe:I_ 1.8e19,PbTe:I,400,,0.086651,192530,0.0000051941,0.0025515,-0.00011512,2.4355,0.41905,0.0010476288
27927,10.1039/c2ee21536e,25534,2a,31785,PbTe:I_ 1.8e19,PbTe:I,450,,0.070792,148390,0.0000067389,0.002497,-0.00012972,2.1426,0.52443,0.0011654065
27927,10.1039/c2ee21536e,25534,2a,31785,PbTe:I_ 1.8e19,PbTe:I,500,,0.054934,120720,0.0000082838,0.0025144,-0.00014432,1.8497,0.67968,0.0013593556
27927,10.1039/c2ee21536e,25534,2a,31785,PbTe:I_ 1.8e19,PbTe:I,550,,0.039075,101740,0.0000098286,0.0025695,-0.00015892,1.5567,0.90783,0.0016506071
27927,10.1039/c2ee21536e,25534,2a,31785,PbTe:I_ 1.8e19,PbTe:I,600,,,87928,0.000011373,0.0026474,-0.00017352,1.2638,1.2569,0.0020947935
27927,10.1039/c2ee21536e,25534,2a,31785,PbTe:I_ 1.8e19,PbTe:I,650,,,,,,-0.00018812,,,
27927,10.1039/c2ee21536e,25534,2a,31785,PbTe:I_ 1.8e19,PbTe:I,700,,,,,,-0.00020272,,,
27927,10.1039/c2ee21536e,25534,2a,31785,PbTe:I_ 1.8e19,PbTe:I,750,,,,,,-0.00021731,,,
27927,10.1039/c2ee21536e,25535,2b,31785,PbTe:I_ 1.8e19,PbTe:I,300,,0.11837,475170,0.0000021045,,,3.0214,,
27927,10.1039/c2ee21536e,25534,2a,31786,PbTe:La_ 1.8e19,PbTe:La,300,,0.076829,288820,0.0000034624,0.0036853,-0.00011296,,,
27927,10.1039/c2ee21536e,25534,2a,31786,PbTe:La_ 1.8e19,PbTe:La,350,,0.066734,179760,0.0000055629,0.0027702,-0.00012414,2.7539,0.35207,0.0010059189
27927,10.1039/c2ee21536e,25534,2a,31786,PbTe:La_ 1.8e19,PbTe:La,400,,0.056639,130490,0.0000076635,0.0023895,-0.00013532,2.4707,0.38685,0.0009671348
27927,10.1039/c2ee21536e,25534,2a,31786,PbTe:La_ 1.8e19,PbTe:La,450,,0.046545,102420,0.000009764,0.0021982,-0.0001465,2.1874,0.45222,0.0010049374