sid,DOI,figureid,fignum,sampleid,samplename,composition,Temperature,Carrier concentration,Electrical conductivity,Power factor,Seebeck coefficient,Thermal conductivity,ZT,concentrations,Electrical resistivity,Figure of merit Z
4775,10.1103/physrevb.83.195209,4896,1(b),6210,In_3.0*10^19,undefined,350,,195090,0.0012511,,,0.10209,,0.0000051258,
4775,10.1103/physrevb.83.195209,4896,1(b),6210,In_3.0*10^19,undefined,400,,174810,0.0012658,,,0.1729,,0.0000057205,
4775,10.1103/physrevb.83.195209,4896,1(b),6210,In_3.0*10^19,undefined,450,,154530,0.0012805,,,0.24371,,0.0000064712,
4775,10.1103/physrevb.83.195209,4896,1(b),6210,In_3.0*10^19,undefined,500,,134250,0.0012952,,,0.31452,,0.0000074488,
4775,10.1103/physrevb.83.195209,4896,1(b),6210,In_3.0*10^19,undefined,550,,113970,0.0013099,,,0.38533,,0.0000087742,
4775,10.1103/physrevb.83.195209,4896,1(b),6210,In_3.0*10^19,undefined,600,,93688,0.0013246,,,0.45613,,0.0000106737,
4775,10.1103/physrevb.83.195209,4896,1(b),6210,In_3.0*10^19,undefined,650,,73407,0.0013393,,,0.52694,,0.0000136227,
4775,10.1103/physrevb.83.195209,4896,1(b),6210,In_3.0*10^19,undefined,700,,53126,0.001354,,,0.59775,,0.0000188232,
4775,10.1103/physrevb.83.195209,4896,1(b),6210,In_3.0*10^19,undefined,750,,32845,0.0013688,,,0.66856,,0.000030446,
4775,10.1103/physrevb.83.195209,4896,1(b),6210,In_3.0*10^19,undefined,800,,12564,0.0013835,,,0.73937,,0.0000795925,
4775,10.1103/physrevb.83.195209,4896,1(b),6210,In_3.0*10^19,undefined,850,,-7717.2,0.0013982,,,0.81018,,-0.0001295807,
4775,10.1103/physrevb.83.195209,4905,8(b),6210,In_3.0*10^19,undefined,900,,,,,,0.88099,,,
4775,10.1103/physrevb.83.195209,4896,1(b),6211,In_4.5*10^19,undefined,300,,257750,,,,0.10157,,0.0000038797,
4775,10.1103/physrevb.83.195209,4896,1(b),6211,In_4.5*10^19,undefined,350,,236540,0.00075676,,,0.1697,,0.0000042276,
4775,10.1103/physrevb.83.195209,4896,1(b),6211,In_4.5*10^19,undefined,400,,215320,0.00081149,,,0.23783,,0.0000046443,
4775,10.1103/physrevb.83.195209,4896,1(b),6211,In_4.5*10^19,undefined,450,,194100,0.00086622,,,0.30596,,0.000005152,
4775,10.1103/physrevb.83.195209,4896,1(b),6211,In_4.5*10^19,undefined,500,,172880,0.00092095,,,0.37409,,0.0000057844,
4775,10.1103/physrevb.83.195209,4896,1(b),6211,In_4.5*10^19,undefined,550,,151660,0.00097568,,,0.44222,,0.0000065937,
4775,10.1103/physrevb.83.195209,4896,1(b),6211,In_4.5*10^19,undefined,600,,130440,0.0010304,,,0.51036,,0.0000076664,
4775,10.1103/physrevb.83.195209,4896,1(b),6211,In_4.5*10^19,undefined,650,,109220,0.0010851,,,0.57849,,0.0000091558,
4775,10.1103/physrevb.83.195209,4896,1(b),6211,In_4.5*10^19,undefined,700,,88000,0.0011399,,,0.64662,,0.0000113636,
4775,10.1103/physrevb.83.195209,4896,1(b),6211,In_4.5*10^19,undefined,750,,66781,0.0011946,,,0.71475,,0.0000149743,
4775,10.1103/physrevb.83.195209,4896,1(b),6211,In_4.5*10^19,undefined,800,,45562,0.0012493,,,0.78288,,0.0000219481,
4775,10.1103/physrevb.83.195209,4896,1(b),6211,In_4.5*10^19,undefined,850,,24342,0.001304,,,0.85101,,0.0000410813,
4775,10.1103/physrevb.83.195209,4896,1(b),6211,In_4.5*10^19,undefined,900,,3122.9,0.0013588,,,,,0.0003202152,
4775,10.1103/physrevb.83.195209,4896,1(b),6212,In_5.7*10^19,undefined,300,,323430,0.00043253,,,,,0.0000030919,
4775,10.1103/physrevb.83.195209,4896,1(b),6212,In_5.7*10^19,undefined,350,,286500,0.00054253,,,0.088339,,0.0000034904,
4775,10.1103/physrevb.83.195209,4896,1(b),6212,In_5.7*10^19,undefined,400,,249570,0.00065254,,,0.14305,,0.0000040069,
4775,10.1103/physrevb.83.195209,4896,1(b),6212,In_5.7*10^19,undefined,450,,212630,0.00076255,,,0.19775,,0.000004703,
4775,10.1103/physrevb.83.195209,4896,1(b),6212,In_5.7*10^19,undefined,500,,175700,0.00087256,,,0.25246,,0.0000056915,
4775,10.1103/physrevb.83.195209,4896,1(b),6212,In_5.7*10^19,undefined,550,,138770,0.00098256,,,0.30717,,0.0000072062,
4775,10.1103/physrevb.83.195209,4896,1(b),6212,In_5.7*10^19,undefined,600,,101830,0.0010926,,,0.36188,,0.0000098203,
4775,10.1103/physrevb.83.195209,4896,1(b),6212,In_5.7*10^19,undefined,650,,64901,0.0012026,,,0.41659,,0.0000154081,
4775,10.1103/physrevb.83.195209,4898,2(c),6213,Pb_8.8*10^18,undefined,350,,,0.0014952,-0.00013246,2.0155,0.25965,,,0.0007418507
4775,10.1103/physrevb.83.195209,4898,2(c),6213,Pb_8.8*10^18,undefined,400,,,0.0014357,-0.00014774,1.8741,0.30643,,,0.0007660744
4775,10.1103/physrevb.83.195209,4898,2(c),6213,Pb_8.8*10^18,undefined,450,,,0.0013762,-0.00016302,1.7328,0.35739,,,0.0007942059
4775,10.1103/physrevb.83.195209,4898,2(c),6213,Pb_8.8*10^18,undefined,500,,,0.0013167,-0.0001783,1.5915,0.41367,,,0.0008273327
4775,10.1103/physrevb.83.195209,4898,2(c),6213,Pb_8.8*10^18,undefined,550,,,0.0012572,-0.00019358,1.4502,0.4768,,,0.0008669149
4775,10.1103/physrevb.83.195209,4898,2(c),6213,Pb_8.8*10^18,undefined,600,,,0.0011977,-0.00020885,1.3089,0.54903,,,0.0009150432
4775,10.1103/physrevb.83.195209,4898,2(c),6213,Pb_8.8*10^18,undefined,650,,,0.0011382,-0.00022413,1.1676,0.63363,,,0.0009748201
4775,10.1103/physrevb.83.195209,4901,3(c),6213,Pb_8.8*10^18,undefined,300,,,0.0015547,,2.1568,0.21625,,,0.0007208364
4775,10.1103/physrevb.83.195209,4898,2(c),6214,Pb_1.7*10^19,undefined,300,,,,-0.000093163,3.1266,,,,
4775,10.1103/physrevb.83.195209,4898,2(c),6214,Pb_1.7*10^19,undefined,350,,,0.0019578,-0.00010211,2.9805,0.24812,,,0.0006568697
4775,10.1103/physrevb.83.195209,4898,2(c),6214,Pb_1.7*10^19,undefined,400,,,0.0018855,-0.00011106,2.8345,0.29188,,,0.0006651967
4775,10.1103/physrevb.83.195209,4898,2(c),6214,Pb_1.7*10^19,undefined,450,,,0.0018131,-0.00012,2.6884,0.33564,,,0.000674416
4775,10.1103/physrevb.83.195209,4898,2(c),6214,Pb_1.7*10^19,undefined,500,,,0.0017407,-0.00012895,2.5424,0.3794,,,0.000684668
4775,10.1103/physrevb.83.195209,4898,2(c),6214,Pb_1.7*10^19,undefined,550,,,0.0016684,-0.0001379,2.3963,0.42316,,,0.00069624
4775,10.1103/physrevb.83.195209,4898,2(c),6214,Pb_1.7*10^19,undefined,600,,,0.001596,-0.00014684,2.2503,0.46692,,,0.0007092388
4775,10.1103/physrevb.83.195209,4898,2(c),6214,Pb_1.7*10^19,undefined,650,,,0.0015236,-0.00015579,2.1042,0.51067,,,0.0007240757
4775,10.1103/physrevb.83.195209,4898,2(c),6214,Pb_1.7*10^19,undefined,700,,,0.0014513,-0.00016474,1.9582,0.55443,,,0.0007411398
4775,10.1103/physrevb.83.195209,4898,2(c),6214,Pb_1.7*10^19,undefined,750,,,0.0013789,-0.00017368,1.8121,0.59819,,,0.0007609403
4775,10.1103/physrevb.83.195209,4898,2(c),6214,Pb_1.7*10^19,undefined,800,,,0.0013065,-0.00018263,1.6661,0.64195,,,0.0007841666
4775,10.1103/physrevb.83.195209,4898,2(c),6214,Pb_1.7*10^19,undefined,850,,,0.0012342,-0.00019158,1.52,0.68571,,,0.0008119737
4775,10.1103/physrevb.83.195209,4898,2(c),6214,Pb_1.7*10^19,undefined,900,,,0.0011618,-0.00020052,1.374,0.761,,,0.0008455604
4775,10.1103/physrevb.83.195209,4898,2(c),6215,Pb_7.0*10^19,undefined,300,,,,-0.000038261,,,,,
4775,10.1103/physrevb.83.195209,4898,2(c),6215,Pb_7.0*10^19,undefined,350,,,0.00092005,-0.000048531,4.5586,0.057385,,,0.0002018273
4775,10.1103/physrevb.83.195209,4898,2(c),6215,Pb_7.0*10^19,undefined,400,,,0.0010378,-0.000058802,4.137,0.11668,,,0.0002508581
4775,10.1103/physrevb.83.195209,4898,2(c),6215,Pb_7.0*10^19,undefined,450,,,0.0011556,-0.000069072,3.7155,0.17597,,,0.0003110214
4775,10.1103/physrevb.83.195209,4898,2(c),6215,Pb_7.0*10^19,undefined,500,,,0.0012734,-0.000079342,3.2939,0.23527,,,0.0003865934
4775,10.1103/physrevb.83.195209,4898,2(c),6215,Pb_7.0*10^19,undefined,550,,,0.0013912,-0.000089612,2.8724,0.29456,,,0.0004843337
4775,10.1103/physrevb.83.195209,4898,2(c),6215,Pb_7.0*10^19,undefined,600,,,0.001509,-0.000099883,2.4508,0.35386,,,0.0006157173
4775,10.1103/physrevb.83.195209,4898,2(c),6215,Pb_7.0*10^19,undefined,650,,,0.0016268,-0.00011015,2.0293,0.41315,,,0.0008016557
4775,10.1103/physrevb.83.195209,4898,2(c),6216,Pb_9.0*10^19,undefined,300,,,0.00050692,-0.000031058,,,,,
4775,10.1103/physrevb.83.195209,4898,2(c),6216,Pb_9.0*10^19,undefined,350,,,0.00059251,-0.000037784,5.3939,0.025031,,,0.0001098482
4775,10.1103/physrevb.83.195209,4898,2(c),6216,Pb_9.0*10^19,undefined,400,,,0.00067809,-0.000045126,5.0517,0.0541,,,0.0001342301
4775,10.1103/physrevb.83.195209,4898,2(c),6216,Pb_9.0*10^19,undefined,450,,,0.00076368,-0.000053085,4.7095,0.08317,,,0.0001621573
4775,10.1103/physrevb.83.195209,4898,2(c),6216,Pb_9.0*10^19,undefined,500,,,0.00084926,-0.00006166,4.3673,0.11224,,,0.0001944588
4775,10.1103/physrevb.83.195209,4898,2(c),6216,Pb_9.0*10^19,undefined,550,,,0.00093485,-0.000070852,4.0251,0.14131,,,0.0002322551
4775,10.1103/physrevb.83.195209,4898,2(c),6216,Pb_9.0*10^19,undefined,600,,,0.0010204,-0.00008066,3.683,0.17038,,,0.0002770567
4775,10.1103/physrevb.83.195209,4898,2(c),6216,Pb_9.0*10^19,undefined,650,,,0.001106,-0.000091085,3.3408,0.19945,,,0.0003310584
4775,10.1103/physrevb.83.195209,4898,2(c),6216,Pb_9.0*10^19,undefined,700,,,0.0011916,-0.00010213,2.9986,0.27817,,,0.0003973854
4775,10.1103/physrevb.83.195209,4900,3(b),6217,In_6.7*10^19,undefined,300,,,0.0001579,,,,,,
4775,10.1103/physrevb.83.195209,4900,3(b),6217,In_6.7*10^19,undefined,350,,,0.00026244,,,,,,
4775,10.1103/physrevb.83.195209,4900,3(b),6217,In_6.7*10^19,undefined,400,,,0.00036698,,,,,,
4775,10.1103/physrevb.83.195209,4900,3(b),6217,In_6.7*10^19,undefined,450,,,0.00047152,,,,,,
4775,10.1103/physrevb.83.195209,4900,3(b),6217,In_6.7*10^19,undefined,500,,,0.00057606,,,,,,
4775,10.1103/physrevb.83.195209,4900,3(b),6217,In_6.7*10^19,undefined,550,,,0.0006806,,,,,,
4775,10.1103/physrevb.83.195209,4900,3(b),6217,In_6.7*10^19,undefined,600,,,0.00078514,,,,,,
4775,10.1103/physrevb.83.195209,4900,3(b),6217,In_6.7*10^19,undefined,650,,,0.00088969,,,,,,
4775,10.1103/physrevb.83.195209,4900,3(b),6218,In_7.6*10^19,undefined,350,,,0.00033425,,,,,,
4775,10.1103/physrevb.83.195209,4900,3(b),6218,In_7.6*10^19,undefined,400,,,0.00043504,,,,,,
4775,10.1103/physrevb.83.195209,4900,3(b),6218,In_7.6*10^19,undefined,450,,,0.00053582,,,,,,
4775,10.1103/physrevb.83.195209,4900,3(b),6218,In_7.6*10^19,undefined,500,,,0.0006366,,,,,,
4775,10.1103/physrevb.83.195209,4900,3(b),6218,In_7.6*10^19,undefined,550,,,0.00073738,,,,,,
4775,10.1103/physrevb.83.195209,4900,3(b),6218,In_7.6*10^19,undefined,600,,,0.00083816,,,,,,
4775,10.1103/physrevb.83.195209,4900,3(b),6218,In_7.6*10^19,undefined,650,,,0.00093894,,,,,,
4775,10.1103/physrevb.83.195209,4900,3(b),6219,In_8.0*10^19,undefined,300,,,0.000273,,,,,,
4775,10.1103/physrevb.83.195209,4900,3(b),6219,In_8.0*10^19,undefined,350,,,0.00037822,,,,,,
4775,10.1103/physrevb.83.195209,4900,3(b),6219,In_8.0*10^19,undefined,400,,,0.00048344,,,,,,
4775,10.1103/physrevb.83.195209,4900,3(b),6219,In_8.0*10^19,undefined,450,,,0.00058866,,,,,,
4775,10.1103/physrevb.83.195209,4900,3(b),6219,In_8.0*10^19,undefined,500,,,0.00069388,,,,,,
4775,10.1103/physrevb.83.195209,4900,3(b),6219,In_8.0*10^19,undefined,550,,,0.0007991,,,,,,
4775,10.1103/physrevb.83.195209,4900,3(b),6219,In_8.0*10^19,undefined,600,,,0.00090432,,,,,,
4775,10.1103/physrevb.83.195209,4900,3(b),6219,In_8.0*10^19,undefined,650,,,0.0010095,,,,,,
4775,10.1103/physrevb.83.195209,26681,Table 1,33463,PbSe:Ga,PbSe:Ga,,1.4131e+25,,,,,,0.35,,
4775,10.1103/physrevb.83.195209,26681,Table 1,33463,PbSe:Ga,PbSe:Ga,,1.7361e+25,,,,,,0.4,,
4775,10.1103/physrevb.83.195209,26681,Table 1,33463,PbSe:Ga,PbSe:Ga,,2.0591e+25,,,,,,0.45,,
4775,10.1103/physrevb.83.195209,26681,Table 1,33463,PbSe:Ga,PbSe:Ga,,2.3822e+25,,,,,,0.5,,
4775,10.1103/physrevb.83.195209,26681,Table 1,33463,PbSe:Ga,PbSe:Ga,,2.7052e+25,,,,,,0.55,,
4775,10.1103/physrevb.83.195209,26681,Table 1,33463,PbSe:Ga,PbSe:Ga,,3.0282e+25,,,,,,0.6,,
4775,10.1103/physrevb.83.195209,26681,Table 1,33463,PbSe:Ga,PbSe:Ga,,3.3512e+25,,,,,,0.65,,
4775,10.1103/physrevb.83.195209,26681,Table 1,33463,PbSe:Ga,PbSe:Ga,,3.6742e+25,,,,,,0.7,,
4775,10.1103/physrevb.83.195209,26681,Table 1,33463,PbSe:Ga,PbSe:Ga,,3.9973e+25,,,,,,0.75,,
4775,10.1103/physrevb.83.195209,26681,Table 1,33463,PbSe:Ga,PbSe:Ga,,4.3203e+25,,,,,,0.8,,
4775,10.1103/physrevb.83.195209,26681,Table 1,33463,PbSe:Ga,PbSe:Ga,,4.6433e+25,,,,,,0.85,,
4775,10.1103/physrevb.83.195209,26681,Table 1,33463,PbSe:Ga,PbSe:Ga,,4.9663e+25,,,,,,0.9,,
4775,10.1103/physrevb.83.195209,26681,Table 1,33463,PbSe:Ga,PbSe:Ga,,5.2894e+25,,,,,,0.95,,
4775,10.1103/physrevb.83.195209,26681,Table 1,33463,PbSe:Ga,PbSe:Ga,,5.6124e+25,,,,,,1,,
4775,10.1103/physrevb.83.195209,26681,Table 1,33463,PbSe:Ga,PbSe:Ga,,5.9354e+25,,,,,,1.05,,
4775,10.1103/physrevb.83.195209,26681,Table 1,33463,PbSe:Ga,PbSe:Ga,,6.2584e+25,,,,,,1.1,,
4775,10.1103/physrevb.83.195209,26681,Table 1,33463,PbSe:Ga,PbSe:Ga,,6.5814e+25,,,,,,1.15,,
4775,10.1103/physrevb.83.195209,26681,Table 1,33463,PbSe:Ga,PbSe:Ga,,6.9045e+25,,,,,,1.2,,
4775,10.1103/physrevb.83.195209,26681,Table 1,33463,PbSe:Ga,PbSe:Ga,,7.2275e+25,,,,,,1.25,,
4775,10.1103/physrevb.83.195209,26681,Table 1,33463,PbSe:Ga,PbSe:Ga,,7.5505e+25,,,,,,1.3,,
4775,10.1103/physrevb.83.195209,26681,Table 1,33463,PbSe:Ga,PbSe:Ga,,7.8735e+25,,,,,,1.35,,
4775,10.1103/physrevb.83.195209,26681,Table 1,33463,PbSe:Ga,PbSe:Ga,,8.1966e+25,,,,,,1.4,,
4775,10.1103/physrevb.83.195209,26681,Table 1,33463,PbSe:Ga,PbSe:Ga,,8.5196e+25,,,,,,1.45,,
4775,10.1103/physrevb.83.195209,26681,Table 1,33463,PbSe:Ga,PbSe:Ga,,8.8426e+25,,,,,,1.5,,
4775,10.1103/physrevb.83.195209,26681,Table 1,33463,PbSe:Ga,PbSe:Ga,,9.1656e+25,,,,,,1.55,,
4775,10.1103/physrevb.83.195209,26681,Table 1,33463,PbSe:Ga,PbSe:Ga,,9.4886e+25,,,,,,1.6,,
4775,10.1103/physrevb.83.195209,26681,Table 1,33463,PbSe:Ga,PbSe:Ga,,9.8117e+25,,,,,,1.65,,
4775,10.1103/physrevb.83.195209,26681,Table 1,33463,PbSe:Ga,PbSe:Ga,,1.0135e+26,,,,,,1.7,,
4775,10.1103/physrevb.83.195209,26681,Table 1,33463,PbSe:Ga,PbSe:Ga,,1.0458e+26,,,,,,1.75,,
4775,10.1103/physrevb.83.195209,26681,Table 1,33463,PbSe:Ga,PbSe:Ga,,1.0781e+26,,,,,,1.8,,
4775,10.1103/physrevb.83.195209,26681,Table 1,33463,PbSe:Ga,PbSe:Ga,,1.1104e+26,,,,,,1.85,,
4775,10.1103/physrevb.83.195209,26681,Table 1,33463,PbSe:Ga,PbSe:Ga,,1.1427e+26,,,,,,1.9,,
4775,10.1103/physrevb.83.195209,26681,Table 1,33463,PbSe:Ga,PbSe:Ga,,1.175e+26,,,,,,1.95,,
4775,10.1103/physrevb.83.195209,26681,Table 1,33464,PbSe:In,PbSe:In,,3.1243e+25,,,,,,0.35,,
4775,10.1103/physrevb.83.195209,26681,Table 1,33464,PbSe:In,PbSe:In,,3.2275e+25,,,,,,0.4,,
4775,10.1103/physrevb.83.195209,26681,Table 1,33464,PbSe:In,PbSe:In,,3.3308e+25,,,,,,0.45,,
4775,10.1103/physrevb.83.195209,26681,Table 1,33464,PbSe:In,PbSe:In,,3.4341e+25,,,,,,0.5,,
4775,10.1103/physrevb.83.195209,26681,Table 1,33464,PbSe:In,PbSe:In,,3.5374e+25,,,,,,0.55,,
4775,10.1103/physrevb.83.195209,26681,Table 1,33464,PbSe:In,PbSe:In,,3.6407e+25,,,,,,0.6,,
4775,10.1103/physrevb.83.195209,26681,Table 1,33464,PbSe:In,PbSe:In,,3.7439e+25,,,,,,0.65,,
4775,10.1103/physrevb.83.195209,26681,Table 1,33464,PbSe:In,PbSe:In,,3.8472e+25,,,,,,0.7,,
4775,10.1103/physrevb.83.195209,26681,Table 1,33464,PbSe:In,PbSe:In,,3.9505e+25,,,,,,0.75,,
4775,10.1103/physrevb.83.195209,26681,Table 1,33464,PbSe:In,PbSe:In,,4.0538e+25,,,,,,0.8,,
4775,10.1103/physrevb.83.195209,26681,Table 1,33464,PbSe:In,PbSe:In,,4.157e+25,,,,,,0.85,,
4775,10.1103/physrevb.83.195209,26681,Table 1,33464,PbSe:In,PbSe:In,,4.2603e+25,,,,,,0.9,,
4775,10.1103/physrevb.83.195209,26681,Table 1,33464,PbSe:In,PbSe:In,,4.3636e+25,,,,,,0.95,,
4775,10.1103/physrevb.83.195209,26681,Table 1,33464,PbSe:In,PbSe:In,,4.4669e+25,,,,,,1,,
4775,10.1103/physrevb.83.195209,26681,Table 1,33464,PbSe:In,PbSe:In,,4.5702e+25,,,,,,1.05,,
4775,10.1103/physrevb.83.195209,26681,Table 1,33464,PbSe:In,PbSe:In,,4.6734e+25,,,,,,1.1,,
4775,10.1103/physrevb.83.195209,26681,Table 1,33464,PbSe:In,PbSe:In,,4.7767e+25,,,,,,1.15,,
4775,10.1103/physrevb.83.195209,26681,Table 1,33464,PbSe:In,PbSe:In,,4.88e+25,,,,,,1.2,,
4775,10.1103/physrevb.83.195209,26681,Table 1,33464,PbSe:In,PbSe:In,,4.9833e+25,,,,,,1.25,,
4775,10.1103/physrevb.83.195209,26681,Table 1,33464,PbSe:In,PbSe:In,,5.0866e+25,,,,,,1.3,,
4775,10.1103/physrevb.83.195209,26681,Table 1,33464,PbSe:In,PbSe:In,,5.1898e+25,,,,,,1.35,,
4775,10.1103/physrevb.83.195209,26681,Table 1,33464,PbSe:In,PbSe:In,,5.2931e+25,,,,,,1.4,,
4775,10.1103/physrevb.83.195209,26681,Table 1,33464,PbSe:In,PbSe:In,,5.3964e+25,,,,,,1.45,,
4775,10.1103/physrevb.83.195209,26681,Table 1,33464,PbSe:In,PbSe:In,,5.4997e+25,,,,,,1.5,,
4775,10.1103/physrevb.83.195209,26681,Table 1,33464,PbSe:In,PbSe:In,,5.603e+25,,,,,,1.55,,
4775,10.1103/physrevb.83.195209,26681,Table 1,33464,PbSe:In,PbSe:In,,5.7062e+25,,,,,,1.6,,
4775,10.1103/physrevb.83.195209,26681,Table 1,33464,PbSe:In,PbSe:In,,5.8095e+25,,,,,,1.65,,
4775,10.1103/physrevb.83.195209,26681,Table 1,33464,PbSe:In,PbSe:In,,5.9128e+25,,,,,,1.7,,
4775,10.1103/physrevb.83.195209,26681,Table 1,33464,PbSe:In,PbSe:In,,6.0161e+25,,,,,,1.75,,
4775,10.1103/physrevb.83.195209,26681,Table 1,33464,PbSe:In,PbSe:In,,6.1193e+25,,,,,,1.8,,
4775,10.1103/physrevb.83.195209,26681,Table 1,33464,PbSe:In,PbSe:In,,6.2226e+25,,,,,,1.85,,
4775,10.1103/physrevb.83.195209,26681,Table 1,33464,PbSe:In,PbSe:In,,6.3259e+25,,,,,,1.9,,
4775,10.1103/physrevb.83.195209,26681,Table 1,33464,PbSe:In,PbSe:In,,6.4292e+25,,,,,,1.95,,
4775,10.1103/physrevb.83.195209,26681,Table 1,33464,PbSe:In,PbSe:In,,6.5325e+25,,,,,,2,,
4775,10.1103/physrevb.83.195209,26681,Table 1,33464,PbSe:In,PbSe:In,,6.6357e+25,,,,,,2.05,,
4775,10.1103/physrevb.83.195209,26681,Table 1,33464,PbSe:In,PbSe:In,,6.739e+25,,,,,,2.1,,
4775,10.1103/physrevb.83.195209,26681,Table 1,33464,PbSe:In,PbSe:In,,6.8423e+25,,,,,,2.15,,
4775,10.1103/physrevb.83.195209,26681,Table 1,33464,PbSe:In,PbSe:In,,6.9456e+25,,,,,,2.2,,
4775,10.1103/physrevb.83.195209,26681,Table 1,33464,PbSe:In,PbSe:In,,7.0489e+25,,,,,,2.25,,
4775,10.1103/physrevb.83.195209,26681,Table 1,33464,PbSe:In,PbSe:In,,7.1521e+25,,,,,,2.3,,
4775,10.1103/physrevb.83.195209,26681,Table 1,33464,PbSe:In,PbSe:In,,7.2554e+25,,,,,,2.35,,
4775,10.1103/physrevb.83.195209,26681,Table 1,33464,PbSe:In,PbSe:In,,7.3587e+25,,,,,,2.4,,
4775,10.1103/physrevb.83.195209,26681,Table 1,33464,PbSe:In,PbSe:In,,7.462e+25,,,,,,2.45,,
4775,10.1103/physrevb.83.195209,26681,Table 1,33464,PbSe:In,PbSe:In,,7.5652e+25,,,,,,2.5,,
4775,10.1103/physrevb.83.195209,26681,Table 1,33464,PbSe:In,PbSe:In,,7.6685e+25,,,,,,2.55,,
4775,10.1103/physrevb.83.195209,26681,Table 1,33464,PbSe:In,PbSe:In,,7.7718e+25,,,,,,2.6,,
4775,10.1103/physrevb.83.195209,26681,Table 1,33464,PbSe:In,PbSe:In,,7.8751e+25,,,,,,2.65,,
4775,10.1103/physrevb.83.195209,26681,Table 1,33464,PbSe:In,PbSe:In,,7.9784e+25,,,,,,2.7,,
4775,10.1103/physrevb.83.195209,26681,Table 1,33464,PbSe:In,PbSe:In,,8.0816e+25,,,,,,2.75,,
4775,10.1103/physrevb.83.195209,26681,Table 1,33464,PbSe:In,PbSe:In,,8.1849e+25,,,,,,2.8,,
4775,10.1103/physrevb.83.195209,26681,Table 1,33464,PbSe:In,PbSe:In,,8.2882e+25,,,,,,2.85,,
4775,10.1103/physrevb.83.195209,26681,Table 1,33464,PbSe:In,PbSe:In,,8.3915e+25,,,,,,2.9,,
4775,10.1103/physrevb.83.195209,26681,Table 1,33464,PbSe:In,PbSe:In,,8.4948e+25,,,,,,2.95,,
4775,10.1103/physrevb.83.195209,26681,Table 1,33465,PbSe:Pb,PbSe:Pb,,2.3215e+25,,,,,,0.35,,
4775,10.1103/physrevb.83.195209,26681,Table 1,33465,PbSe:Pb,PbSe:Pb,,2.4834e+25,,,,,,0.4,,
4775,10.1103/physrevb.83.195209,26681,Table 1,33465,PbSe:Pb,PbSe:Pb,,2.6452e+25,,,,,,0.45,,
4775,10.1103/physrevb.83.195209,26681,Table 1,33465,PbSe:Pb,PbSe:Pb,,2.8071e+25,,,,,,0.5,,
4775,10.1103/physrevb.83.195209,26681,Table 1,33465,PbSe:Pb,PbSe:Pb,,2.969e+25,,,,,,0.55,,
4775,10.1103/physrevb.83.195209,26681,Table 1,33465,PbSe:Pb,PbSe:Pb,,3.1308e+25,,,,,,0.6,,
4775,10.1103/physrevb.83.195209,26681,Table 1,33465,PbSe:Pb,PbSe:Pb,,3.2927e+25,,,,,,0.65,,
4775,10.1103/physrevb.83.195209,26681,Table 1,33465,PbSe:Pb,PbSe:Pb,,3.4546e+25,,,,,,0.7,,
4775,10.1103/physrevb.83.195209,26681,Table 1,33465,PbSe:Pb,PbSe:Pb,,3.6164e+25,,,,,,0.75,,
4775,10.1103/physrevb.83.195209,26681,Table 1,33465,PbSe:Pb,PbSe:Pb,,3.7783e+25,,,,,,0.8,,
4775,10.1103/physrevb.83.195209,26681,Table 1,33465,PbSe:Pb,PbSe:Pb,,3.9402e+25,,,,,,0.85,,
4775,10.1103/physrevb.83.195209,26681,Table 1,33465,PbSe:Pb,PbSe:Pb,,4.102e+25,,,,,,0.9,,
4775,10.1103/physrevb.83.195209,26681,Table 1,33465,PbSe:Pb,PbSe:Pb,,4.2639e+25,,,,,,0.95,,