sid,DOI,figureid,fignum,sampleid,samplename,composition,Temperature,Carrier concentration,Carrier mobility,Electrical conductivity,Lattice thermal conductivity,Power factor,Seebeck coefficient,Thermal conductivity,ZT,content,Electrical resistivity,Figure of merit Z
37,10.1016/j.actamat.2010.04.007,11382,4(a),13625,y=1.26,Ag0.74Sb1.26Te2.26,350,,,33674,0.79274,0.00060843,0.00013317,1.2114,0.33792,,0.0000296965,0.0005022536
37,10.1016/j.actamat.2010.04.007,11382,4(a),13625,y=1.26,Ag0.74Sb1.26Te2.26,400,,,31957,0.7417,0.00075819,0.00015353,1.1686,0.45084,,0.000031292,0.000648802
37,10.1016/j.actamat.2010.04.007,11382,4(a),13625,y=1.26,Ag0.74Sb1.26Te2.26,450,,,30239,0.69065,0.00090868,0.00017302,1.1257,0.56376,,0.0000330699,0.0008072133
37,10.1016/j.actamat.2010.04.007,11382,4(a),13625,y=1.26,Ag0.74Sb1.26Te2.26,500,,,28522,0.63961,0.0010599,0.00019163,1.0829,0.67668,,0.0000350607,0.0009787607
37,10.1016/j.actamat.2010.04.007,11382,4(a),13625,y=1.26,Ag0.74Sb1.26Te2.26,550,,,26805,0.58857,0.0012119,0.00020935,1.0401,0.78961,,0.0000373065,0.0011651764
37,10.1016/j.actamat.2010.04.007,11382,4(a),13625,y=1.26,Ag0.74Sb1.26Te2.26,600,,,25087,0.53753,0.0013646,0.00022619,0.99723,0.90253,,0.0000398613,0.0013683904
37,10.1016/j.actamat.2010.04.007,11382,4(a),13625,y=1.26,Ag0.74Sb1.26Te2.26,650,,,23370,0.48648,0.0015181,0.00024216,0.9544,1.0154,,0.0000427899,0.0015906329
37,10.1016/j.actamat.2010.04.007,11382,4(a),13626,y=1.29,Ag0.71Sb1.29Te2.26,350,,,48044,0.28235,0.00061828,0.00010713,1.181,0.3329,,0.0000208143,0.0005235224
37,10.1016/j.actamat.2010.04.007,11382,4(a),13626,y=1.29,Ag0.71Sb1.29Te2.26,400,,,43689,0.29737,0.00076386,0.00013089,1.1478,0.50774,,0.0000228891,0.0006654992
37,10.1016/j.actamat.2010.04.007,11382,4(a),13626,y=1.29,Ag0.71Sb1.29Te2.26,450,,,39334,0.31239,0.00090944,0.00015464,1.1147,0.68258,,0.0000254233,0.0008158608
37,10.1016/j.actamat.2010.04.007,11382,4(a),13626,y=1.29,Ag0.71Sb1.29Te2.26,500,,,34980,0.32741,0.001055,0.0001784,1.0815,0.85742,,0.0000285878,0.000975497
37,10.1016/j.actamat.2010.04.007,11382,4(a),13626,y=1.29,Ag0.71Sb1.29Te2.26,550,,,30625,0.34243,0.0012006,0.00020216,1.0484,1.0323,,0.0000326531,0.0011451736
37,10.1016/j.actamat.2010.04.007,11382,4(a),13626,y=1.29,Ag0.71Sb1.29Te2.26,600,,,26271,0.35745,0.0013462,0.00022592,1.0152,1.2071,,0.0000380648,0.0013260441
37,10.1016/j.actamat.2010.04.007,11382,4(a),13626,y=1.29,Ag0.71Sb1.29Te2.26,650,,,21916,0.37247,0.0014918,0.00024967,0.98202,1.3819,,0.0000456288,0.0015191137
37,10.1016/j.actamat.2010.04.007,11382,4(a),13627,y=1.32,Ag0.68Sb1.32Te2.26,350,,,69739,0.64467,0.00034961,0.000067469,1.133,0.060758,,0.0000143392,0.0003085702
37,10.1016/j.actamat.2010.04.007,11382,4(a),13627,y=1.32,Ag0.68Sb1.32Te2.26,400,,,63429,0.6219,0.00052515,0.000089747,1.0957,0.17514,,0.0000157657,0.0004792827
37,10.1016/j.actamat.2010.04.007,11382,4(a),13627,y=1.32,Ag0.68Sb1.32Te2.26,450,,,57119,0.59913,0.00070068,0.00011202,1.0583,0.28952,,0.0000175073,0.0006620807
37,10.1016/j.actamat.2010.04.007,11382,4(a),13627,y=1.32,Ag0.68Sb1.32Te2.26,500,,,50809,0.57636,0.00087622,0.0001343,1.021,0.40391,,0.0000196816,0.0008581978
37,10.1016/j.actamat.2010.04.007,11382,4(a),13627,y=1.32,Ag0.68Sb1.32Te2.26,550,,,44500,0.55359,0.0010518,0.00015658,0.98368,0.51829,,0.0000224719,0.0010692502
37,10.1016/j.actamat.2010.04.007,11382,4(a),13627,y=1.32,Ag0.68Sb1.32Te2.26,600,,,38190,0.53082,0.0012273,0.00017886,0.94635,0.63268,,0.0000261849,0.0012968775
37,10.1016/j.actamat.2010.04.007,11382,4(a),13627,y=1.32,Ag0.68Sb1.32Te2.26,650,,,31880,0.50806,0.0014028,0.00020113,0.90903,0.74706,,0.0000313676,0.0015431834
37,10.1016/j.actamat.2010.04.007,11383,4(b),13627,y=1.32,Ag0.68Sb1.32Te2.26,300,,,,,,0.000045192,,,,,
37,10.1016/j.actamat.2010.04.007,11382,4(a),13628,y=1.35,Ag0.65Sb1.35Te2.26,350,,,111840,0.39577,0.00052285,0.000062011,1.0064,0.18183,,0.0000089413,0.000519525
37,10.1016/j.actamat.2010.04.007,11382,4(a),13628,y=1.35,Ag0.65Sb1.35Te2.26,400,,,100630,0.38916,0.0006941,0.000081068,0.96856,0.28665,,0.0000099374,0.0007166309
37,10.1016/j.actamat.2010.04.007,11382,4(a),13628,y=1.35,Ag0.65Sb1.35Te2.26,450,,,89426,0.38255,0.00086535,0.00010012,0.93069,0.41841,,0.0000111824,0.000929794
37,10.1016/j.actamat.2010.04.007,11382,4(a),13628,y=1.35,Ag0.65Sb1.35Te2.26,500,,,78219,0.37595,0.0010366,0.00011918,0.89281,0.58053,,0.0000127846,0.0011610533
37,10.1016/j.actamat.2010.04.007,11382,4(a),13628,y=1.35,Ag0.65Sb1.35Te2.26,550,,,67011,0.36934,0.0012078,0.00013824,0.85494,0.777,,0.0000149229,0.0014127307
37,10.1016/j.actamat.2010.04.007,11382,4(a),13628,y=1.35,Ag0.65Sb1.35Te2.26,600,,,55804,0.36273,0.0013791,0.0001573,0.81707,1.0127,,0.0000179199,0.0016878603
37,10.1016/j.actamat.2010.04.007,11382,4(a),13628,y=1.35,Ag0.65Sb1.35Te2.26,650,,,44596,0.35612,0.0015503,0.00017635,0.77919,1.2933,,0.0000224235,0.0019896303
37,10.1016/j.actamat.2010.04.007,11382,4(a),13629,y=1.38,Ag0.62Sb1.38Te2.26,350,,,125750,0.32762,0.00030672,0.000043231,0.62168,0.021042,,0.0000079523,0.0004933728
37,10.1016/j.actamat.2010.04.007,11382,4(a),13629,y=1.38,Ag0.62Sb1.38Te2.26,400,,,111610,0.33575,0.00047369,0.00006364,0.62716,0.14574,,0.0000089598,0.0007552937
37,10.1016/j.actamat.2010.04.007,11382,4(a),13629,y=1.38,Ag0.62Sb1.38Te2.26,450,,,97471,0.34389,0.00064066,0.000084049,0.63265,0.27043,,0.0000102595,0.001012661
37,10.1016/j.actamat.2010.04.007,11382,4(a),13629,y=1.38,Ag0.62Sb1.38Te2.26,500,,,83333,0.35203,0.00080763,0.00010446,0.63813,0.39513,,0.000012,0.0012656199
37,10.1016/j.actamat.2010.04.007,11382,4(a),13629,y=1.38,Ag0.62Sb1.38Te2.26,550,,,69194,0.36016,0.00097459,0.00012487,0.64362,0.51982,,0.0000144521,0.001514232
37,10.1016/j.actamat.2010.04.007,11382,4(a),13629,y=1.38,Ag0.62Sb1.38Te2.26,600,,,55055,0.3683,0.0011416,0.00014528,0.6491,0.64452,,0.0000181637,0.0017587429
37,10.1016/j.actamat.2010.04.007,11382,4(a),13629,y=1.38,Ag0.62Sb1.38Te2.26,650,,,40916,0.37643,0.0013085,0.00016568,0.65459,0.76921,,0.0000244403,0.0019989612
37,10.1016/j.actamat.2010.04.007,26713,5.1,33502,Ag2-ySbyTe1+y,undefined,,-9.466e+26,0.018536,,,,,,,1.285,,
37,10.1016/j.actamat.2010.04.007,26713,5.1,33502,Ag2-ySbyTe1+y,undefined,,-6.2055e+26,0.017349,,,,,,,1.29,,
37,10.1016/j.actamat.2010.04.007,26713,5.1,33502,Ag2-ySbyTe1+y,undefined,,-2.945e+26,0.016162,,,,,,,1.295,,
37,10.1016/j.actamat.2010.04.007,26713,5.1,33502,Ag2-ySbyTe1+y,undefined,,3.1555e+25,0.014975,,,,,,,1.3,,
37,10.1016/j.actamat.2010.04.007,26713,5.1,33502,Ag2-ySbyTe1+y,undefined,,3.5761e+26,0.013788,,,,,,,1.305,,
37,10.1016/j.actamat.2010.04.007,26713,5.1,33502,Ag2-ySbyTe1+y,undefined,,6.8366e+26,0.012601,,,,,,,1.31,,
37,10.1016/j.actamat.2010.04.007,26713,5.1,33502,Ag2-ySbyTe1+y,undefined,,1.0097e+27,0.011415,,,,,,,1.315,,
37,10.1016/j.actamat.2010.04.007,26713,5.1,33502,Ag2-ySbyTe1+y,undefined,,1.3358e+27,0.010228,,,,,,,1.32,,
37,10.1016/j.actamat.2010.04.007,26713,5.1,33502,Ag2-ySbyTe1+y,undefined,,1.6618e+27,0.0090409,,,,,,,1.325,,
37,10.1016/j.actamat.2010.04.007,26713,5.1,33502,Ag2-ySbyTe1+y,undefined,,1.9879e+27,0.0078541,,,,,,,1.33,,
37,10.1016/j.actamat.2010.04.007,26713,5.1,33502,Ag2-ySbyTe1+y,undefined,,2.3139e+27,0.0066672,,,,,,,1.335,,
37,10.1016/j.actamat.2010.04.007,26713,5.1,33502,Ag2-ySbyTe1+y,undefined,,2.64e+27,0.0054804,,,,,,,1.34,,
37,10.1016/j.actamat.2010.04.007,26713,5.1,33502,Ag2-ySbyTe1+y,undefined,,2.966e+27,0.0042936,,,,,,,1.345,,
37,10.1016/j.actamat.2010.04.007,26713,5.1,33502,Ag2-ySbyTe1+y,undefined,,3.2921e+27,0.0031068,,,,,,,1.35,,
37,10.1016/j.actamat.2010.04.007,26713,5.1,33502,Ag2-ySbyTe1+y,undefined,,3.6181e+27,0.0019199,,,,,,,1.355,,
37,10.1016/j.actamat.2010.04.007,26713,5.1,33502,Ag2-ySbyTe1+y,undefined,,3.9442e+27,0.00073311,,,,,,,1.36,,
37,10.1016/j.actamat.2010.04.007,26713,5.1,33502,Ag2-ySbyTe1+y,undefined,,4.2702e+27,-0.00045372,,,,,,,1.365,,
37,10.1016/j.actamat.2010.04.007,26713,5.1,33502,Ag2-ySbyTe1+y,undefined,,4.5963e+27,-0.0016405,,,,,,,1.37,,
37,10.1016/j.actamat.2010.04.007,26713,5.1,33502,Ag2-ySbyTe1+y,undefined,,4.9223e+27,-0.0028274,,,,,,,1.375,,
37,10.1016/j.actamat.2010.04.007,26714,5.2,33502,Ag2-ySbyTe1+y,undefined,,,0.019722,,,,,,,1.28,,
37,10.1016/j.actamat.2010.04.007,26714,5.2,33502,Ag2-ySbyTe1+y,undefined,,,-0.0040142,,,,,,,1.38,,