sid,DOI,figureid,fignum,sampleid,samplename,composition,Temperature,Electrical conductivity,Lattice thermal conductivity,Power factor,Seebeck coefficient,Thermal conductivity,ZT,Electrical resistivity,Figure of merit Z
3404,10.1016/j.jssc.2012.06.019,3133,4(a),4361,CeFe3.9Ga0.1Sb12,CeFe3.9Ga0.1Sb12,350,186740,,0.0016313,0.000093465,,,0.000005355,
3404,10.1016/j.jssc.2012.06.019,3133,4(a),4361,CeFe3.9Ga0.1Sb12,CeFe3.9Ga0.1Sb12,400,179840,,0.0018186,0.00010056,,,0.0000055605,
3404,10.1016/j.jssc.2012.06.019,3133,4(a),4361,CeFe3.9Ga0.1Sb12,CeFe3.9Ga0.1Sb12,450,172940,,0.0020045,0.00010766,,,0.0000057824,
3404,10.1016/j.jssc.2012.06.019,3133,4(a),4361,CeFe3.9Ga0.1Sb12,CeFe3.9Ga0.1Sb12,500,166050,,0.0021865,0.00011475,,,0.0000060223,
3404,10.1016/j.jssc.2012.06.019,3133,4(a),4361,CeFe3.9Ga0.1Sb12,CeFe3.9Ga0.1Sb12,550,159150,,0.002363,0.00012185,,,0.0000062834,
3404,10.1016/j.jssc.2012.06.019,3133,4(a),4361,CeFe3.9Ga0.1Sb12,CeFe3.9Ga0.1Sb12,600,152250,,0.0025316,0.00012895,,,0.0000065681,
3404,10.1016/j.jssc.2012.06.019,3133,4(a),4361,CeFe3.9Ga0.1Sb12,CeFe3.9Ga0.1Sb12,650,145360,,0.0026902,0.00013604,,,0.0000068795,
3404,10.1016/j.jssc.2012.06.019,3133,4(a),4361,CeFe3.9Ga0.1Sb12,CeFe3.9Ga0.1Sb12,700,138460,,0.0028369,0.00014314,,,0.0000072223,
3404,10.1016/j.jssc.2012.06.019,3133,4(a),4361,CeFe3.9Ga0.1Sb12,CeFe3.9Ga0.1Sb12,750,131560,,0.0029696,0.00015024,,,0.0000076011,
3404,10.1016/j.jssc.2012.06.019,3134,4(a)_S,4361,CeFe3.9Ga0.1Sb12,CeFe3.9Ga0.1Sb12,800,,,,0.00015733,,,,
3404,10.1016/j.jssc.2012.06.019,3133,4(a),4362,CeFe3.9Co0.1Sb12,CeFe3.9Co0.1Sb12,350,188780,,0.001655,0.00009363,,,0.0000052972,
3404,10.1016/j.jssc.2012.06.019,3133,4(a),4362,CeFe3.9Co0.1Sb12,CeFe3.9Co0.1Sb12,400,181680,,0.0018383,0.00010059,,,0.0000055042,
3404,10.1016/j.jssc.2012.06.019,3133,4(a),4362,CeFe3.9Co0.1Sb12,CeFe3.9Co0.1Sb12,450,174580,,0.0020197,0.00010756,,,0.000005728,
3404,10.1016/j.jssc.2012.06.019,3133,4(a),4362,CeFe3.9Co0.1Sb12,CeFe3.9Co0.1Sb12,500,167480,,0.0021965,0.00011452,,,0.0000059709,
3404,10.1016/j.jssc.2012.06.019,3133,4(a),4362,CeFe3.9Co0.1Sb12,CeFe3.9Co0.1Sb12,550,160370,,0.0023666,0.00012148,,,0.0000062356,
3404,10.1016/j.jssc.2012.06.019,3133,4(a),4362,CeFe3.9Co0.1Sb12,CeFe3.9Co0.1Sb12,600,153270,,0.0025285,0.00012844,,,0.0000065244,
3404,10.1016/j.jssc.2012.06.019,3133,4(a),4362,CeFe3.9Co0.1Sb12,CeFe3.9Co0.1Sb12,650,146170,,0.0026802,0.00013541,,,0.0000068413,
3404,10.1016/j.jssc.2012.06.019,3133,4(a),4362,CeFe3.9Co0.1Sb12,CeFe3.9Co0.1Sb12,700,139070,,0.0028188,0.00014237,,,0.0000071906,
3404,10.1016/j.jssc.2012.06.019,3133,4(a),4362,CeFe3.9Co0.1Sb12,CeFe3.9Co0.1Sb12,750,131970,,0.0029429,0.00014933,,,0.0000075775,
3404,10.1016/j.jssc.2012.06.019,3133,4(a),4362,CeFe3.9Co0.1Sb12,CeFe3.9Co0.1Sb12,800,124860,,,,,,0.000008009,
3404,10.1016/j.jssc.2012.06.019,3135,4(b),4363,x=0,CeFe4Sb12,350,195850,1.399,0.0017295,0.000090837,2.8019,0.20662,0.0000051059,0.0006172597
3404,10.1016/j.jssc.2012.06.019,3135,4(b),4363,x=0,CeFe4Sb12,400,189060,1.2997,0.0018796,0.000098793,2.7986,0.27811,0.0000052893,0.0006716215
3404,10.1016/j.jssc.2012.06.019,3135,4(b),4363,x=0,CeFe4Sb12,450,182270,1.2004,0.0020297,0.00010704,2.7953,0.3496,0.0000054864,0.0007261117
3404,10.1016/j.jssc.2012.06.019,3135,4(b),4363,x=0,CeFe4Sb12,500,175480,1.1011,0.0021799,0.00011502,2.7919,0.4211,0.0000056987,0.0007807944
3404,10.1016/j.jssc.2012.06.019,3135,4(b),4363,x=0,CeFe4Sb12,550,168690,1.0018,0.00233,0.00012235,2.7886,0.49259,0.000005928,0.0008355447
3404,10.1016/j.jssc.2012.06.019,3135,4(b),4363,x=0,CeFe4Sb12,600,161910,0.90244,0.0024802,0.00012872,2.7853,0.56408,0.0000061763,0.0008904606
3404,10.1016/j.jssc.2012.06.019,3135,4(b),4363,x=0,CeFe4Sb12,650,155120,0.80312,0.0026303,0.00013398,2.782,0.63558,0.0000064466,0.0009454709
3404,10.1016/j.jssc.2012.06.019,3135,4(b),4363,x=0,CeFe4Sb12,700,148330,0.7038,0.0027805,0.00013809,2.7787,0.70707,0.0000067417,0.0010006478
3404,10.1016/j.jssc.2012.06.019,3135,4(b),4363,x=0,CeFe4Sb12,750,141540,0.60448,0.0029306,0.00014115,2.7754,0.77856,0.0000070651,0.0010559199
3404,10.1016/j.jssc.2012.06.019,3152,4(c),4363,x=0,CeFe4Sb12,300,,,0.0015793,0.000083836,2.8052,0.13512,,0.0005629902
3404,10.1016/j.jssc.2012.06.019,3154,5(a),4363,x=0,CeFe4Sb12,800,,0.50516,,,2.7721,,,
3404,10.1016/j.jssc.2012.06.019,3154,5(a),4363,x=0,CeFe4Sb12,850,,,,,2.7687,,,
3404,10.1016/j.jssc.2012.06.019,3135,4(b),4364,x=0.03,CeFe3.97Ga0.03Sb12,300,197440,,0.0015146,0.00008409,2.7981,0.12694,0.0000050648,0.0005412959
3404,10.1016/j.jssc.2012.06.019,3135,4(b),4364,x=0.03,CeFe3.97Ga0.03Sb12,350,190440,1.4218,0.0016623,0.00009041,2.7924,0.19722,0.000005251,0.0005952944
3404,10.1016/j.jssc.2012.06.019,3135,4(b),4364,x=0.03,CeFe3.97Ga0.03Sb12,400,183450,1.3276,0.0018101,0.000098009,2.7867,0.2675,0.0000054511,0.0006495496
3404,10.1016/j.jssc.2012.06.019,3135,4(b),4364,x=0.03,CeFe3.97Ga0.03Sb12,450,176450,1.2334,0.0019579,0.00010608,2.781,0.33777,0.0000056673,0.0007040273
3404,10.1016/j.jssc.2012.06.019,3135,4(b),4364,x=0.03,CeFe3.97Ga0.03Sb12,500,169450,1.1392,0.0021057,0.00011408,2.7753,0.40805,0.0000059014,0.0007587288
3404,10.1016/j.jssc.2012.06.019,3135,4(b),4364,x=0.03,CeFe3.97Ga0.03Sb12,550,162460,1.045,0.0022534,0.00012165,2.7696,0.47833,0.0000061554,0.0008136193
3404,10.1016/j.jssc.2012.06.019,3135,4(b),4364,x=0.03,CeFe3.97Ga0.03Sb12,600,155460,0.95075,0.0024012,0.00012856,2.7639,0.54861,0.0000064325,0.0008687724
3404,10.1016/j.jssc.2012.06.019,3135,4(b),4364,x=0.03,CeFe3.97Ga0.03Sb12,650,148460,0.85654,0.002549,0.00013458,2.7582,0.61889,0.0000067358,0.0009241534
3404,10.1016/j.jssc.2012.06.019,3135,4(b),4364,x=0.03,CeFe3.97Ga0.03Sb12,700,141470,0.76233,0.0026967,0.00013948,2.7525,0.68917,0.0000070686,0.0009797275
3404,10.1016/j.jssc.2012.06.019,3135,4(b),4364,x=0.03,CeFe3.97Ga0.03Sb12,750,134470,0.66812,0.0028445,0.00014288,2.7468,0.75945,0.0000074366,0.0010355687
3404,10.1016/j.jssc.2012.06.019,3135,4(b),4364,x=0.03,CeFe3.97Ga0.03Sb12,800,127470,,,,2.7411,,0.000007845,
3404,10.1016/j.jssc.2012.06.019,3154,5(a),4364,x=0.03,CeFe3.97Ga0.03Sb12,850,,,,,2.7354,,,
3404,10.1016/j.jssc.2012.06.019,3135,4(b),4365,x=0.06,CeFe3.94Ga0.06Sb12,300,194470,,0.0014421,0.00008586,2.6732,0.11826,0.0000051422,0.0005394658
3404,10.1016/j.jssc.2012.06.019,3135,4(b),4365,x=0.06,CeFe3.94Ga0.06Sb12,350,187810,1.3532,0.0016061,0.000092861,2.6727,0.19373,0.0000053245,0.0006009279
3404,10.1016/j.jssc.2012.06.019,3135,4(b),4365,x=0.06,CeFe3.94Ga0.06Sb12,400,181160,1.2664,0.0017701,0.000099863,2.6723,0.26919,0.00000552,0.0006623882
3404,10.1016/j.jssc.2012.06.019,3135,4(b),4365,x=0.06,CeFe3.94Ga0.06Sb12,450,174500,1.1795,0.001934,0.00010686,2.6719,0.34466,0.0000057307,0.0007238295
3404,10.1016/j.jssc.2012.06.019,3135,4(b),4365,x=0.06,CeFe3.94Ga0.06Sb12,500,167850,1.0927,0.002098,0.00011386,2.6715,0.42013,0.0000059577,0.0007853266
3404,10.1016/j.jssc.2012.06.019,3135,4(b),4365,x=0.06,CeFe3.94Ga0.06Sb12,550,161190,1.0059,0.002262,0.00012087,2.6711,0.4956,0.0000062039,0.0008468421
3404,10.1016/j.jssc.2012.06.019,3135,4(b),4365,x=0.06,CeFe3.94Ga0.06Sb12,600,154530,0.91901,0.002426,0.00012787,2.6707,0.57107,0.0000064712,0.0009083761
3404,10.1016/j.jssc.2012.06.019,3135,4(b),4365,x=0.06,CeFe3.94Ga0.06Sb12,650,147880,0.83217,0.0025899,0.00013487,2.6703,0.64653,0.0000067622,0.000969891
3404,10.1016/j.jssc.2012.06.019,3135,4(b),4365,x=0.06,CeFe3.94Ga0.06Sb12,700,141220,0.74532,0.0027539,0.00014187,2.6699,0.722,0.0000070811,0.0010314619
3404,10.1016/j.jssc.2012.06.019,3135,4(b),4365,x=0.06,CeFe3.94Ga0.06Sb12,750,134570,0.65848,0.0029179,0.00014887,2.6694,0.79747,0.0000074311,0.0010930921
3404,10.1016/j.jssc.2012.06.019,3135,4(b),4365,x=0.06,CeFe3.94Ga0.06Sb12,800,127910,,,,2.669,0.87294,0.000007818,
3404,10.1016/j.jssc.2012.06.019,3154,5(a),4365,x=0.06,CeFe3.94Ga0.06Sb12,850,,,,,2.6686,,,
3404,10.1016/j.jssc.2012.06.019,3135,4(b),4366,x=0.1,CeFe3.9Ga0.1Sb12,300,193300,,0.0015053,0.000087055,2.7529,0.12397,0.0000051733,0.0005468052
3404,10.1016/j.jssc.2012.06.019,3135,4(b),4366,x=0.1,CeFe3.9Ga0.1Sb12,350,186330,1.4109,0.0016709,0.00009412,2.7483,0.19945,0.0000053668,0.0006079758
3404,10.1016/j.jssc.2012.06.019,3135,4(b),4366,x=0.1,CeFe3.9Ga0.1Sb12,400,179370,1.3217,0.0018365,0.00010118,2.7438,0.27494,0.0000055751,0.0006693272
3404,10.1016/j.jssc.2012.06.019,3135,4(b),4366,x=0.1,CeFe3.9Ga0.1Sb12,450,172400,1.2325,0.0020021,0.00010825,2.7392,0.35042,0.0000058005,0.0007309068
3404,10.1016/j.jssc.2012.06.019,3135,4(b),4366,x=0.1,CeFe3.9Ga0.1Sb12,500,165440,1.1433,0.0021676,0.00011531,2.7346,0.42591,0.0000060445,0.0007926571
3404,10.1016/j.jssc.2012.06.019,3135,4(b),4366,x=0.1,CeFe3.9Ga0.1Sb12,550,158470,1.0542,0.0023332,0.00012238,2.73,0.50139,0.0000063103,0.000854652
3404,10.1016/j.jssc.2012.06.019,3135,4(b),4366,x=0.1,CeFe3.9Ga0.1Sb12,600,151510,0.96497,0.0024988,0.00012944,2.7255,0.57687,0.0000066002,0.0009168226
3404,10.1016/j.jssc.2012.06.019,3135,4(b),4366,x=0.1,CeFe3.9Ga0.1Sb12,650,144540,0.87577,0.0026643,0.0001365,2.7209,0.65236,0.0000069185,0.0009791981
3404,10.1016/j.jssc.2012.06.019,3135,4(b),4366,x=0.1,CeFe3.9Ga0.1Sb12,700,137570,0.78658,0.0028299,0.00014357,2.7163,0.72784,0.000007269,0.0010418216
3404,10.1016/j.jssc.2012.06.019,3135,4(b),4366,x=0.1,CeFe3.9Ga0.1Sb12,750,130610,0.69739,0.0029955,0.00015063,2.7118,0.80333,0.0000076564,0.0011046169
3404,10.1016/j.jssc.2012.06.019,3154,5(a),4366,x=0.1,CeFe3.9Ga0.1Sb12,800,,0.6082,,,2.7072,,,
3404,10.1016/j.jssc.2012.06.019,3154,5(a),4366,x=0.1,CeFe3.9Ga0.1Sb12,850,,,,,2.7026,,,
3404,10.1016/j.jssc.2012.06.019,3135,4(b),4367,x=0.2,CeFe3.8Ga0.2Sb12,350,188620,1.4855,0.0015414,0.000090054,2.8371,0.18438,0.0000053017,0.0005433013
3404,10.1016/j.jssc.2012.06.019,3135,4(b),4367,x=0.2,CeFe3.8Ga0.2Sb12,400,181650,1.3972,0.0016947,0.000096825,2.8348,0.25024,0.0000055051,0.00059782
3404,10.1016/j.jssc.2012.06.019,3135,4(b),4367,x=0.2,CeFe3.8Ga0.2Sb12,450,174680,1.309,0.0018481,0.0001036,2.8326,0.3161,0.0000057248,0.0006524395
3404,10.1016/j.jssc.2012.06.019,3135,4(b),4367,x=0.2,CeFe3.8Ga0.2Sb12,500,167710,1.2208,0.0020015,0.00011037,2.8303,0.38196,0.0000059627,0.0007071689
3404,10.1016/j.jssc.2012.06.019,3135,4(b),4367,x=0.2,CeFe3.8Ga0.2Sb12,550,160730,1.1326,0.0021548,0.00011714,2.8281,0.44782,0.0000062216,0.000761925
3404,10.1016/j.jssc.2012.06.019,3135,4(b),4367,x=0.2,CeFe3.8Ga0.2Sb12,600,153760,1.0444,0.0023082,0.00012391,2.8258,0.51369,0.0000065036,0.0008168306
3404,10.1016/j.jssc.2012.06.019,3135,4(b),4367,x=0.2,CeFe3.8Ga0.2Sb12,650,146790,0.95616,0.0024616,0.00013068,2.8236,0.57955,0.0000068125,0.0008717949
3404,10.1016/j.jssc.2012.06.019,3135,4(b),4367,x=0.2,CeFe3.8Ga0.2Sb12,700,139820,0.86794,0.0026149,0.00013745,2.8214,0.64541,0.0000071521,0.0009268094
3404,10.1016/j.jssc.2012.06.019,3135,4(b),4367,x=0.2,CeFe3.8Ga0.2Sb12,750,132850,0.77972,0.0027683,0.00014423,2.8191,0.71127,0.0000075273,0.0009819801
3404,10.1016/j.jssc.2012.06.019,3135,4(b),4367,x=0.2,CeFe3.8Ga0.2Sb12,800,125880,,,,2.8169,,0.0000079441,
3404,10.1016/j.jssc.2012.06.019,3153,4(d),4367,x=0.2,CeFe3.8Ga0.2Sb12,300,,1.5737,0.001388,,2.8393,0.11852,,0.0004888529
3404,10.1016/j.jssc.2012.06.019,3154,5(a),4367,x=0.2,CeFe3.8Ga0.2Sb12,850,,,,,2.8146,,,