sid,DOI,figureid,fignum,sampleid,samplename,composition,Temperature,Electrical resistivity,Hall movility,Seebeck coefficient,Thermal conductivity,ZT,Electrical conductivity,Power factor,Figure of merit Z
18603,10.1002/adma.201605887,26266,4(d),32940,Sn(1.03-y)MnyTe(Cu2Te)0.05_ y=0.09 (nH = 1.4e20 cm^-3),undefined,550,,0.008607,,,,,,
18603,10.1002/adma.201605887,26266,4(d),32940,Sn(1.03-y)MnyTe(Cu2Te)0.05_ y=0.09 (nH = 1.4e20 cm^-3),undefined,600,,0.0072547,,,,,,
18603,10.1002/adma.201605887,26266,4(d),32940,Sn(1.03-y)MnyTe(Cu2Te)0.05_ y=0.09 (nH = 1.4e20 cm^-3),undefined,650,,0.0059024,,,,,,
18603,10.1002/adma.201605887,26266,4(d),32940,Sn(1.03-y)MnyTe(Cu2Te)0.05_ y=0.09 (nH = 1.4e20 cm^-3),undefined,700,,0.0045501,,,,,,
18603,10.1002/adma.201605887,26266,4(d),32940,Sn(1.03-y)MnyTe(Cu2Te)0.05_ y=0.09 (nH = 1.4e20 cm^-3),undefined,750,,0.0031978,,,,,,
18603,10.1002/adma.201605887,26266,4(d),32940,Sn(1.03-y)MnyTe(Cu2Te)0.05_ y=0.09 (nH = 1.4e20 cm^-3),undefined,800,,0.0018455,,,,,,
18603,10.1002/adma.201605887,26266,4(d),32940,Sn(1.03-y)MnyTe(Cu2Te)0.05_ y=0.09 (nH = 1.4e20 cm^-3),undefined,850,,0.00049324,,,,,,
18603,10.1002/adma.201605887,26266,4(d),32941,Sn(1.03-y)MnyTe(Cu2Te)0.05_ y=0.12 (nH = 1.7e20 cm^-3),undefined,350,,0.0099738,,,,,,
18603,10.1002/adma.201605887,26266,4(d),32941,Sn(1.03-y)MnyTe(Cu2Te)0.05_ y=0.12 (nH = 1.7e20 cm^-3),undefined,400,,0.0090864,,,,,,
18603,10.1002/adma.201605887,26266,4(d),32941,Sn(1.03-y)MnyTe(Cu2Te)0.05_ y=0.12 (nH = 1.7e20 cm^-3),undefined,450,,0.008199,,,,,,
18603,10.1002/adma.201605887,26266,4(d),32941,Sn(1.03-y)MnyTe(Cu2Te)0.05_ y=0.12 (nH = 1.7e20 cm^-3),undefined,500,,0.0073116,,,,,,
18603,10.1002/adma.201605887,26266,4(d),32941,Sn(1.03-y)MnyTe(Cu2Te)0.05_ y=0.12 (nH = 1.7e20 cm^-3),undefined,550,,0.0064242,,,,,,
18603,10.1002/adma.201605887,26266,4(d),32941,Sn(1.03-y)MnyTe(Cu2Te)0.05_ y=0.12 (nH = 1.7e20 cm^-3),undefined,600,,0.0055368,,,,,,
18603,10.1002/adma.201605887,26266,4(d),32941,Sn(1.03-y)MnyTe(Cu2Te)0.05_ y=0.12 (nH = 1.7e20 cm^-3),undefined,650,,0.0046494,,,,,,
18603,10.1002/adma.201605887,26266,4(d),32941,Sn(1.03-y)MnyTe(Cu2Te)0.05_ y=0.12 (nH = 1.7e20 cm^-3),undefined,700,,0.003762,,,,,,
18603,10.1002/adma.201605887,26266,4(d),32941,Sn(1.03-y)MnyTe(Cu2Te)0.05_ y=0.12 (nH = 1.7e20 cm^-3),undefined,750,,0.0028746,,,,,,
18603,10.1002/adma.201605887,26266,4(d),32941,Sn(1.03-y)MnyTe(Cu2Te)0.05_ y=0.12 (nH = 1.7e20 cm^-3),undefined,800,,0.0019872,,,,,,
18603,10.1002/adma.201605887,26266,4(d),32941,Sn(1.03-y)MnyTe(Cu2Te)0.05_ y=0.12 (nH = 1.7e20 cm^-3),undefined,850,,0.0010998,,,,,,
18603,10.1002/adma.201605887,26266,4(d),32942,Sn(1.03-y)MnyTe(Cu2Te)0.05_ y=0.14 (nH = 1.4e20 cm^-3),undefined,350,,0.0067451,,,,,,
18603,10.1002/adma.201605887,26266,4(d),32942,Sn(1.03-y)MnyTe(Cu2Te)0.05_ y=0.14 (nH = 1.4e20 cm^-3),undefined,400,,0.0060542,,,,,,
18603,10.1002/adma.201605887,26266,4(d),32942,Sn(1.03-y)MnyTe(Cu2Te)0.05_ y=0.14 (nH = 1.4e20 cm^-3),undefined,450,,0.0053634,,,,,,
18603,10.1002/adma.201605887,26266,4(d),32942,Sn(1.03-y)MnyTe(Cu2Te)0.05_ y=0.14 (nH = 1.4e20 cm^-3),undefined,500,,0.0046725,,,,,,
18603,10.1002/adma.201605887,26266,4(d),32942,Sn(1.03-y)MnyTe(Cu2Te)0.05_ y=0.14 (nH = 1.4e20 cm^-3),undefined,550,,0.0039816,,,,,,
18603,10.1002/adma.201605887,26266,4(d),32942,Sn(1.03-y)MnyTe(Cu2Te)0.05_ y=0.14 (nH = 1.4e20 cm^-3),undefined,600,,0.0032908,,,,,,
18603,10.1002/adma.201605887,26266,4(d),32942,Sn(1.03-y)MnyTe(Cu2Te)0.05_ y=0.14 (nH = 1.4e20 cm^-3),undefined,650,,0.0025999,,,,,,
18603,10.1002/adma.201605887,26266,4(d),32942,Sn(1.03-y)MnyTe(Cu2Te)0.05_ y=0.14 (nH = 1.4e20 cm^-3),undefined,700,,0.001909,,,,,,
18603,10.1002/adma.201605887,26266,4(d),32942,Sn(1.03-y)MnyTe(Cu2Te)0.05_ y=0.14 (nH = 1.4e20 cm^-3),undefined,750,,0.0012182,,,,,,
18603,10.1002/adma.201605887,26266,4(d),32942,Sn(1.03-y)MnyTe(Cu2Te)0.05_ y=0.14 (nH = 1.4e20 cm^-3),undefined,800,,0.0005273,,,,,,
18603,10.1002/adma.201605887,26266,4(d),32943,Sn(1.03-y)MnyTe(Cu2Te)0.05_ y=0.14 (nH = 1.2e20 cm^-3),undefined,350,,0.0074626,,,,,,
18603,10.1002/adma.201605887,26266,4(d),32943,Sn(1.03-y)MnyTe(Cu2Te)0.05_ y=0.14 (nH = 1.2e20 cm^-3),undefined,400,,0.0067347,,,,,,
18603,10.1002/adma.201605887,26266,4(d),32943,Sn(1.03-y)MnyTe(Cu2Te)0.05_ y=0.14 (nH = 1.2e20 cm^-3),undefined,450,,0.0060068,,,,,,
18603,10.1002/adma.201605887,26266,4(d),32943,Sn(1.03-y)MnyTe(Cu2Te)0.05_ y=0.14 (nH = 1.2e20 cm^-3),undefined,500,,0.0052788,,,,,,
18603,10.1002/adma.201605887,26266,4(d),32943,Sn(1.03-y)MnyTe(Cu2Te)0.05_ y=0.14 (nH = 1.2e20 cm^-3),undefined,550,,0.0045509,,,,,,
18603,10.1002/adma.201605887,26266,4(d),32943,Sn(1.03-y)MnyTe(Cu2Te)0.05_ y=0.14 (nH = 1.2e20 cm^-3),undefined,600,,0.0038229,,,,,,
18603,10.1002/adma.201605887,26266,4(d),32943,Sn(1.03-y)MnyTe(Cu2Te)0.05_ y=0.14 (nH = 1.2e20 cm^-3),undefined,650,,0.003095,,,,,,
18603,10.1002/adma.201605887,26266,4(d),32943,Sn(1.03-y)MnyTe(Cu2Te)0.05_ y=0.14 (nH = 1.2e20 cm^-3),undefined,700,,0.002367,,,,,,
18603,10.1002/adma.201605887,26266,4(d),32943,Sn(1.03-y)MnyTe(Cu2Te)0.05_ y=0.14 (nH = 1.2e20 cm^-3),undefined,750,,0.0016391,,,,,,
18603,10.1002/adma.201605887,26266,4(d),32943,Sn(1.03-y)MnyTe(Cu2Te)0.05_ y=0.14 (nH = 1.2e20 cm^-3),undefined,800,,0.00091114,,,,,,
18603,10.1002/adma.201605887,26266,4(d),32943,Sn(1.03-y)MnyTe(Cu2Te)0.05_ y=0.14 (nH = 1.2e20 cm^-3),undefined,850,,0.00018319,,,,,,