sid,DOI,figureid,fignum,sampleid,samplename,composition,Temperature,Electrical resistivity,Hall movility,Seebeck coefficient,Thermal conductivity,ZT,Electrical conductivity,Power factor,Figure of merit Z
18603,10.1002/adma.201605887,1964,6(c),2954,x=0.03_K,Sn0.86Mn0.14Te(Cu2Te)0.03,600,,,,3.4642,,,,
18603,10.1002/adma.201605887,1964,6(c),2954,x=0.03_K,Sn0.86Mn0.14Te(Cu2Te)0.03,650,,,,3.094,,,,
18603,10.1002/adma.201605887,1964,6(c),2954,x=0.03_K,Sn0.86Mn0.14Te(Cu2Te)0.03,700,,,,2.7084,,,,
18603,10.1002/adma.201605887,1964,6(c),2954,x=0.03_K,Sn0.86Mn0.14Te(Cu2Te)0.03,750,,,,2.35,,,,
18603,10.1002/adma.201605887,1964,6(c),2954,x=0.03_K,Sn0.86Mn0.14Te(Cu2Te)0.03,800,,,,2.0617,,,,
18603,10.1002/adma.201605887,1964,6(c),2954,x=0.03_K,Sn0.86Mn0.14Te(Cu2Te)0.03,850,,,,1.881,,,,
18603,10.1002/adma.201605887,1964,6(c),2954,x=0.03_K,Sn0.86Mn0.14Te(Cu2Te)0.03,900,,,,1.8341,,,,
18603,10.1002/adma.201605887,1964,6(c),2955,x=0.04_K,Sn0.86Mn0.14Te(Cu2Te)0.04,300,,,,4.0129,,,,
18603,10.1002/adma.201605887,1964,6(c),2955,x=0.04_K,Sn0.86Mn0.14Te(Cu2Te)0.04,350,,,,3.9565,,,,
18603,10.1002/adma.201605887,1964,6(c),2955,x=0.04_K,Sn0.86Mn0.14Te(Cu2Te)0.04,400,,,,3.856,,,,
18603,10.1002/adma.201605887,1964,6(c),2955,x=0.04_K,Sn0.86Mn0.14Te(Cu2Te)0.04,450,,,,3.7025,,,,
18603,10.1002/adma.201605887,1964,6(c),2955,x=0.04_K,Sn0.86Mn0.14Te(Cu2Te)0.04,500,,,,3.496,,,,
18603,10.1002/adma.201605887,1964,6(c),2955,x=0.04_K,Sn0.86Mn0.14Te(Cu2Te)0.04,550,,,,3.2436,,,,
18603,10.1002/adma.201605887,1964,6(c),2955,x=0.04_K,Sn0.86Mn0.14Te(Cu2Te)0.04,600,,,,2.9578,,,,
18603,10.1002/adma.201605887,1964,6(c),2955,x=0.04_K,Sn0.86Mn0.14Te(Cu2Te)0.04,650,,,,2.654,,,,
18603,10.1002/adma.201605887,1964,6(c),2955,x=0.04_K,Sn0.86Mn0.14Te(Cu2Te)0.04,700,,,,2.3493,,,,
18603,10.1002/adma.201605887,1964,6(c),2955,x=0.04_K,Sn0.86Mn0.14Te(Cu2Te)0.04,750,,,,2.0598,,,,
18603,10.1002/adma.201605887,1964,6(c),2955,x=0.04_K,Sn0.86Mn0.14Te(Cu2Te)0.04,800,,,,1.7991,,,,
18603,10.1002/adma.201605887,1964,6(c),2955,x=0.04_K,Sn0.86Mn0.14Te(Cu2Te)0.04,850,,,,1.5762,,,,
18603,10.1002/adma.201605887,1964,6(c),2955,x=0.04_K,Sn0.86Mn0.14Te(Cu2Te)0.04,900,,,,1.3936,,,,
18603,10.1002/adma.201605887,1964,6(c),2956,x=0.05_K,Sn0.86Mn0.14Te(Cu2Te)0.05,350,,,,2.5417,,,,
18603,10.1002/adma.201605887,1964,6(c),2956,x=0.05_K,Sn0.86Mn0.14Te(Cu2Te)0.05,400,,,,2.4485,,,,
18603,10.1002/adma.201605887,1964,6(c),2956,x=0.05_K,Sn0.86Mn0.14Te(Cu2Te)0.05,450,,,,2.2833,,,,
18603,10.1002/adma.201605887,1964,6(c),2956,x=0.05_K,Sn0.86Mn0.14Te(Cu2Te)0.05,500,,,,2.0897,,,,
18603,10.1002/adma.201605887,1964,6(c),2956,x=0.05_K,Sn0.86Mn0.14Te(Cu2Te)0.05,550,,,,1.8972,,,,
18603,10.1002/adma.201605887,1964,6(c),2956,x=0.05_K,Sn0.86Mn0.14Te(Cu2Te)0.05,600,,,,1.7235,,,,
18603,10.1002/adma.201605887,1964,6(c),2956,x=0.05_K,Sn0.86Mn0.14Te(Cu2Te)0.05,650,,,,1.576,,,,
18603,10.1002/adma.201605887,1964,6(c),2956,x=0.05_K,Sn0.86Mn0.14Te(Cu2Te)0.05,700,,,,1.4537,,,,
18603,10.1002/adma.201605887,1964,6(c),2956,x=0.05_K,Sn0.86Mn0.14Te(Cu2Te)0.05,750,,,,1.3497,,,,
18603,10.1002/adma.201605887,1964,6(c),2956,x=0.05_K,Sn0.86Mn0.14Te(Cu2Te)0.05,800,,,,1.2522,,,,
18603,10.1002/adma.201605887,1964,6(c),2956,x=0.05_K,Sn0.86Mn0.14Te(Cu2Te)0.05,850,,,,1.1473,,,,
18603,10.1002/adma.201605887,1964,6(c),2957,x=0.05_3%Snexcess_K,Sn0.89Mn0.14Te(Cu2Te)0.05,300,,,,2.962,,,,
18603,10.1002/adma.201605887,1964,6(c),2957,x=0.05_3%Snexcess_K,Sn0.89Mn0.14Te(Cu2Te)0.05,350,,,,2.7281,,,,
18603,10.1002/adma.201605887,1964,6(c),2957,x=0.05_3%Snexcess_K,Sn0.89Mn0.14Te(Cu2Te)0.05,400,,,,2.4836,,,,
18603,10.1002/adma.201605887,1964,6(c),2957,x=0.05_3%Snexcess_K,Sn0.89Mn0.14Te(Cu2Te)0.05,450,,,,2.2515,,,,
18603,10.1002/adma.201605887,1964,6(c),2957,x=0.05_3%Snexcess_K,Sn0.89Mn0.14Te(Cu2Te)0.05,500,,,,2.0433,,,,
18603,10.1002/adma.201605887,1964,6(c),2957,x=0.05_3%Snexcess_K,Sn0.89Mn0.14Te(Cu2Te)0.05,550,,,,1.8615,,,,
18603,10.1002/adma.201605887,1964,6(c),2957,x=0.05_3%Snexcess_K,Sn0.89Mn0.14Te(Cu2Te)0.05,600,,,,1.7026,,,,
18603,10.1002/adma.201605887,1964,6(c),2957,x=0.05_3%Snexcess_K,Sn0.89Mn0.14Te(Cu2Te)0.05,650,,,,1.5596,,,,
18603,10.1002/adma.201605887,1964,6(c),2957,x=0.05_3%Snexcess_K,Sn0.89Mn0.14Te(Cu2Te)0.05,700,,,,1.4247,,,,
18603,10.1002/adma.201605887,1964,6(c),2957,x=0.05_3%Snexcess_K,Sn0.89Mn0.14Te(Cu2Te)0.05,750,,,,1.2921,,,,
18603,10.1002/adma.201605887,1964,6(c),2957,x=0.05_3%Snexcess_K,Sn0.89Mn0.14Te(Cu2Te)0.05,800,,,,1.1607,,,,
18603,10.1002/adma.201605887,1964,6(c),2957,x=0.05_3%Snexcess_K,Sn0.89Mn0.14Te(Cu2Te)0.05,850,,,,1.0368,,,,
18603,10.1002/adma.201605887,1964,6(c),2957,x=0.05_3%Snexcess_K,Sn0.89Mn0.14Te(Cu2Te)0.05,900,,,,0.93652,,,,
18603,10.1002/adma.201605887,1964,6(c),2958,x=0.05_4%Snexcess_K,Sn0.9Mn0.14Te(Cu2Te)0.05,300,,,,2.5595,,,,
18603,10.1002/adma.201605887,1964,6(c),2958,x=0.05_4%Snexcess_K,Sn0.9Mn0.14Te(Cu2Te)0.05,350,,,,2.4616,,,,
18603,10.1002/adma.201605887,1964,6(c),2958,x=0.05_4%Snexcess_K,Sn0.9Mn0.14Te(Cu2Te)0.05,400,,,,2.2898,,,,
18603,10.1002/adma.201605887,1964,6(c),2958,x=0.05_4%Snexcess_K,Sn0.9Mn0.14Te(Cu2Te)0.05,450,,,,2.0931,,,,
18603,10.1002/adma.201605887,1964,6(c),2958,x=0.05_4%Snexcess_K,Sn0.9Mn0.14Te(Cu2Te)0.05,500,,,,1.9011,,,,
18603,10.1002/adma.201605887,1964,6(c),2958,x=0.05_4%Snexcess_K,Sn0.9Mn0.14Te(Cu2Te)0.05,550,,,,1.7283,,,,
18603,10.1002/adma.201605887,1964,6(c),2958,x=0.05_4%Snexcess_K,Sn0.9Mn0.14Te(Cu2Te)0.05,600,,,,1.5779,,,,
18603,10.1002/adma.201605887,1964,6(c),2958,x=0.05_4%Snexcess_K,Sn0.9Mn0.14Te(Cu2Te)0.05,650,,,,1.4458,,,,
18603,10.1002/adma.201605887,1964,6(c),2958,x=0.05_4%Snexcess_K,Sn0.9Mn0.14Te(Cu2Te)0.05,700,,,,1.3247,,,,
18603,10.1002/adma.201605887,1964,6(c),2958,x=0.05_4%Snexcess_K,Sn0.9Mn0.14Te(Cu2Te)0.05,750,,,,1.2079,,,,
18603,10.1002/adma.201605887,1964,6(c),2958,x=0.05_4%Snexcess_K,Sn0.9Mn0.14Te(Cu2Te)0.05,800,,,,1.0937,,,,
18603,10.1002/adma.201605887,1964,6(c),2958,x=0.05_4%Snexcess_K,Sn0.9Mn0.14Te(Cu2Te)0.05,850,,,,0.98874,,,,
18603,10.1002/adma.201605887,1964,6(c),2958,x=0.05_4%Snexcess_K,Sn0.9Mn0.14Te(Cu2Te)0.05,900,,,,0.91259,,,,
18603,10.1002/adma.201605887,1964,6(c),2959,x=0.05_5%Sneccess_K,Sn0.92Mn0.14Te(Cu2Te)0.05,350,,,,2.0311,,,,
18603,10.1002/adma.201605887,1964,6(c),2959,x=0.05_5%Sneccess_K,Sn0.92Mn0.14Te(Cu2Te)0.05,400,,,,1.9148,,,,
18603,10.1002/adma.201605887,1964,6(c),2959,x=0.05_5%Sneccess_K,Sn0.92Mn0.14Te(Cu2Te)0.05,450,,,,1.7859,,,,
18603,10.1002/adma.201605887,1964,6(c),2959,x=0.05_5%Sneccess_K,Sn0.92Mn0.14Te(Cu2Te)0.05,500,,,,1.6475,,,,
18603,10.1002/adma.201605887,1964,6(c),2959,x=0.05_5%Sneccess_K,Sn0.92Mn0.14Te(Cu2Te)0.05,550,,,,1.5048,,,,
18603,10.1002/adma.201605887,1964,6(c),2959,x=0.05_5%Sneccess_K,Sn0.92Mn0.14Te(Cu2Te)0.05,600,,,,1.3643,,,,
18603,10.1002/adma.201605887,1964,6(c),2959,x=0.05_5%Sneccess_K,Sn0.92Mn0.14Te(Cu2Te)0.05,650,,,,1.2329,,,,
18603,10.1002/adma.201605887,1964,6(c),2959,x=0.05_5%Sneccess_K,Sn0.92Mn0.14Te(Cu2Te)0.05,700,,,,1.1165,,,,
18603,10.1002/adma.201605887,1964,6(c),2959,x=0.05_5%Sneccess_K,Sn0.92Mn0.14Te(Cu2Te)0.05,750,,,,1.0192,,,,
18603,10.1002/adma.201605887,1964,6(c),2959,x=0.05_5%Sneccess_K,Sn0.92Mn0.14Te(Cu2Te)0.05,800,,,,0.94235,,,,
18603,10.1002/adma.201605887,1964,6(c),2959,x=0.05_5%Sneccess_K,Sn0.92Mn0.14Te(Cu2Te)0.05,850,,,,0.88331,,,,
18603,10.1002/adma.201605887,1964,6(c),2959,x=0.05_5%Sneccess_K,Sn0.92Mn0.14Te(Cu2Te)0.05,900,,,,0.8347,,,,
18603,10.1002/adma.201605887,1964,6(c),2960,x=0_KL,Sn0.86Mn0.14Te(Cu2Te)0,300,,,,1.9552,,,,
18603,10.1002/adma.201605887,1964,6(c),2960,x=0_KL,Sn0.86Mn0.14Te(Cu2Te)0,350,,,,1.7903,,,,
18603,10.1002/adma.201605887,1964,6(c),2960,x=0_KL,Sn0.86Mn0.14Te(Cu2Te)0,400,,,,1.6436,,,,
18603,10.1002/adma.201605887,1964,6(c),2960,x=0_KL,Sn0.86Mn0.14Te(Cu2Te)0,450,,,,1.5242,,,,
18603,10.1002/adma.201605887,1964,6(c),2960,x=0_KL,Sn0.86Mn0.14Te(Cu2Te)0,500,,,,1.4306,,,,
18603,10.1002/adma.201605887,1964,6(c),2960,x=0_KL,Sn0.86Mn0.14Te(Cu2Te)0,550,,,,1.3546,,,,
18603,10.1002/adma.201605887,1964,6(c),2960,x=0_KL,Sn0.86Mn0.14Te(Cu2Te)0,600,,,,1.2847,,,,
18603,10.1002/adma.201605887,1964,6(c),2960,x=0_KL,Sn0.86Mn0.14Te(Cu2Te)0,650,,,,1.2099,,,,
18603,10.1002/adma.201605887,1964,6(c),2960,x=0_KL,Sn0.86Mn0.14Te(Cu2Te)0,700,,,,1.1231,,,,
18603,10.1002/adma.201605887,1964,6(c),2960,x=0_KL,Sn0.86Mn0.14Te(Cu2Te)0,750,,,,1.025,,,,
18603,10.1002/adma.201605887,1964,6(c),2960,x=0_KL,Sn0.86Mn0.14Te(Cu2Te)0,800,,,,0.92752,,,,
18603,10.1002/adma.201605887,1964,6(c),2960,x=0_KL,Sn0.86Mn0.14Te(Cu2Te)0,850,,,,0.8577,,,,
18603,10.1002/adma.201605887,1964,6(c),2961,x=0.01_KL,Sn0.86Mn0.14Te(Cu2Te)0.01,300,,,,2.3595,,,,
18603,10.1002/adma.201605887,1964,6(c),2961,x=0.01_KL,Sn0.86Mn0.14Te(Cu2Te)0.01,350,,,,2.0918,,,,
18603,10.1002/adma.201605887,1964,6(c),2961,x=0.01_KL,Sn0.86Mn0.14Te(Cu2Te)0.01,400,,,,1.9705,,,,
18603,10.1002/adma.201605887,1964,6(c),2961,x=0.01_KL,Sn0.86Mn0.14Te(Cu2Te)0.01,450,,,,1.8953,,,,
18603,10.1002/adma.201605887,1964,6(c),2961,x=0.01_KL,Sn0.86Mn0.14Te(Cu2Te)0.01,500,,,,1.8117,,,,
18603,10.1002/adma.201605887,1964,6(c),2961,x=0.01_KL,Sn0.86Mn0.14Te(Cu2Te)0.01,550,,,,1.7,,,,
18603,10.1002/adma.201605887,1964,6(c),2961,x=0.01_KL,Sn0.86Mn0.14Te(Cu2Te)0.01,600,,,,1.5647,,,,
18603,10.1002/adma.201605887,1964,6(c),2961,x=0.01_KL,Sn0.86Mn0.14Te(Cu2Te)0.01,650,,,,1.4236,,,,
18603,10.1002/adma.201605887,1964,6(c),2961,x=0.01_KL,Sn0.86Mn0.14Te(Cu2Te)0.01,700,,,,1.297,,,,
18603,10.1002/adma.201605887,1964,6(c),2961,x=0.01_KL,Sn0.86Mn0.14Te(Cu2Te)0.01,750,,,,1.1971,,,,
18603,10.1002/adma.201605887,1964,6(c),2961,x=0.01_KL,Sn0.86Mn0.14Te(Cu2Te)0.01,800,,,,1.1172,,,,
18603,10.1002/adma.201605887,1964,6(c),2961,x=0.01_KL,Sn0.86Mn0.14Te(Cu2Te)0.01,850,,,,1.0205,,,,
18603,10.1002/adma.201605887,1964,6(c),2962,x=0.03_KL,Sn0.86Mn0.14Te(Cu2Te)0.03,300,,,,2.1615,,,,
18603,10.1002/adma.201605887,1964,6(c),2962,x=0.03_KL,Sn0.86Mn0.14Te(Cu2Te)0.03,350,,,,2.0529,,,,
18603,10.1002/adma.201605887,1964,6(c),2962,x=0.03_KL,Sn0.86Mn0.14Te(Cu2Te)0.03,400,,,,1.9596,,,,
18603,10.1002/adma.201605887,1964,6(c),2962,x=0.03_KL,Sn0.86Mn0.14Te(Cu2Te)0.03,450,,,,1.8728,,,,
18603,10.1002/adma.201605887,1964,6(c),2962,x=0.03_KL,Sn0.86Mn0.14Te(Cu2Te)0.03,500,,,,1.7833,,,,
18603,10.1002/adma.201605887,1964,6(c),2962,x=0.03_KL,Sn0.86Mn0.14Te(Cu2Te)0.03,550,,,,1.6825,,,,
18603,10.1002/adma.201605887,1964,6(c),2962,x=0.03_KL,Sn0.86Mn0.14Te(Cu2Te)0.03,600,,,,1.5649,,,,
18603,10.1002/adma.201605887,1964,6(c),2962,x=0.03_KL,Sn0.86Mn0.14Te(Cu2Te)0.03,650,,,,1.4285,,,,
18603,10.1002/adma.201605887,1964,6(c),2962,x=0.03_KL,Sn0.86Mn0.14Te(Cu2Te)0.03,700,,,,1.2774,,,,
18603,10.1002/adma.201605887,1964,6(c),2962,x=0.03_KL,Sn0.86Mn0.14Te(Cu2Te)0.03,750,,,,1.1229,,,,
18603,10.1002/adma.201605887,1964,6(c),2962,x=0.03_KL,Sn0.86Mn0.14Te(Cu2Te)0.03,800,,,,0.98499,,,,
18603,10.1002/adma.201605887,1964,6(c),2962,x=0.03_KL,Sn0.86Mn0.14Te(Cu2Te)0.03,850,,,,0.89411,,,,
18603,10.1002/adma.201605887,1964,6(c),2964,x=0.05_3%Snexcess_KL,Sn0.89Mn0.14Te(Cu2Te)0.05,300,,,,1.5724,,,,
18603,10.1002/adma.201605887,1964,6(c),2964,x=0.05_3%Snexcess_KL,Sn0.89Mn0.14Te(Cu2Te)0.05,350,,,,1.4325,,,,
18603,10.1002/adma.201605887,1964,6(c),2964,x=0.05_3%Snexcess_KL,Sn0.89Mn0.14Te(Cu2Te)0.05,400,,,,1.3332,,,,
18603,10.1002/adma.201605887,1964,6(c),2964,x=0.05_3%Snexcess_KL,Sn0.89Mn0.14Te(Cu2Te)0.05,450,,,,1.2528,,,,
18603,10.1002/adma.201605887,1964,6(c),2964,x=0.05_3%Snexcess_KL,Sn0.89Mn0.14Te(Cu2Te)0.05,500,,,,1.1778,,,,
18603,10.1002/adma.201605887,1964,6(c),2964,x=0.05_3%Snexcess_KL,Sn0.89Mn0.14Te(Cu2Te)0.05,550,,,,1.1014,,,,
18603,10.1002/adma.201605887,1964,6(c),2964,x=0.05_3%Snexcess_KL,Sn0.89Mn0.14Te(Cu2Te)0.05,600,,,,1.0215,,,,
18603,10.1002/adma.201605887,1964,6(c),2964,x=0.05_3%Snexcess_KL,Sn0.89Mn0.14Te(Cu2Te)0.05,650,,,,0.93895,,,,
18603,10.1002/adma.201605887,1964,6(c),2964,x=0.05_3%Snexcess_KL,Sn0.89Mn0.14Te(Cu2Te)0.05,700,,,,0.85605,,,,
18603,10.1002/adma.201605887,1964,6(c),2964,x=0.05_3%Snexcess_KL,Sn0.89Mn0.14Te(Cu2Te)0.05,750,,,,0.77439,,,,
18603,10.1002/adma.201605887,1964,6(c),2964,x=0.05_3%Snexcess_KL,Sn0.89Mn0.14Te(Cu2Te)0.05,800,,,,0.69332,,,,
18603,10.1002/adma.201605887,1964,6(c),2964,x=0.05_3%Snexcess_KL,Sn0.89Mn0.14Te(Cu2Te)0.05,850,,,,0.60809,,,,
18603,10.1002/adma.201605887,1964,6(c),2964,x=0.05_3%Snexcess_KL,Sn0.89Mn0.14Te(Cu2Te)0.05,900,,,,0.5081,,,,
18603,10.1002/adma.201605887,1964,6(c),2965,x=0.05_5%Snexcess_KL,Sn0.92Mn0.14Te(Cu2Te)0.05,300,,,,1.6507,,,,
18603,10.1002/adma.201605887,1964,6(c),2965,x=0.05_5%Snexcess_KL,Sn0.92Mn0.14Te(Cu2Te)0.05,350,,,,1.5588,,,,
18603,10.1002/adma.201605887,1964,6(c),2965,x=0.05_5%Snexcess_KL,Sn0.92Mn0.14Te(Cu2Te)0.05,400,,,,1.4698,,,,
18603,10.1002/adma.201605887,1964,6(c),2965,x=0.05_5%Snexcess_KL,Sn0.92Mn0.14Te(Cu2Te)0.05,450,,,,1.3722,,,,
18603,10.1002/adma.201605887,1964,6(c),2965,x=0.05_5%Snexcess_KL,Sn0.92Mn0.14Te(Cu2Te)0.05,500,,,,1.2618,,,,
18603,10.1002/adma.201605887,1964,6(c),2965,x=0.05_5%Snexcess_KL,Sn0.92Mn0.14Te(Cu2Te)0.05,550,,,,1.1402,,,,
18603,10.1002/adma.201605887,1964,6(c),2965,x=0.05_5%Snexcess_KL,Sn0.92Mn0.14Te(Cu2Te)0.05,600,,,,1.0129,,,,
18603,10.1002/adma.201605887,1964,6(c),2965,x=0.05_5%Snexcess_KL,Sn0.92Mn0.14Te(Cu2Te)0.05,650,,,,0.8873,,,,
18603,10.1002/adma.201605887,1964,6(c),2965,x=0.05_5%Snexcess_KL,Sn0.92Mn0.14Te(Cu2Te)0.05,700,,,,0.77125,,,,
18603,10.1002/adma.201605887,1964,6(c),2965,x=0.05_5%Snexcess_KL,Sn0.92Mn0.14Te(Cu2Te)0.05,750,,,,0.6708,,,,
18603,10.1002/adma.201605887,1964,6(c),2965,x=0.05_5%Snexcess_KL,Sn0.92Mn0.14Te(Cu2Te)0.05,800,,,,0.5886,,,,
18603,10.1002/adma.201605887,1964,6(c),2965,x=0.05_5%Snexcess_KL,Sn0.92Mn0.14Te(Cu2Te)0.05,850,,,,0.52201,,,,
18603,10.1002/adma.201605887,1964,6(c),2965,x=0.05_5%Snexcess_KL,Sn0.92Mn0.14Te(Cu2Te)0.05,900,,,,0.46126,,,,
18603,10.1002/adma.201605887,1964,6(c),2966,X=0.05_4%Snexcess_KL,Sn0.9Mn0.14Te(Cu2Te)0.05,300,,,,1.5024,,,,
18603,10.1002/adma.201605887,1964,6(c),2966,X=0.05_4%Snexcess_KL,Sn0.9Mn0.14Te(Cu2Te)0.05,350,,,,1.4135,,,,
18603,10.1002/adma.201605887,1964,6(c),2966,X=0.05_4%Snexcess_KL,Sn0.9Mn0.14Te(Cu2Te)0.05,400,,,,1.3407,,,,
18603,10.1002/adma.201605887,1964,6(c),2966,X=0.05_4%Snexcess_KL,Sn0.9Mn0.14Te(Cu2Te)0.05,450,,,,1.2675,,,,
18603,10.1002/adma.201605887,1964,6(c),2966,X=0.05_4%Snexcess_KL,Sn0.9Mn0.14Te(Cu2Te)0.05,500,,,,1.1866,,,,
18603,10.1002/adma.201605887,1964,6(c),2966,X=0.05_4%Snexcess_KL,Sn0.9Mn0.14Te(Cu2Te)0.05,550,,,,1.0976,,,,
18603,10.1002/adma.201605887,1964,6(c),2966,X=0.05_4%Snexcess_KL,Sn0.9Mn0.14Te(Cu2Te)0.05,600,,,,1.004,,,,
18603,10.1002/adma.201605887,1964,6(c),2966,X=0.05_4%Snexcess_KL,Sn0.9Mn0.14Te(Cu2Te)0.05,650,,,,0.91169,,,,
18603,10.1002/adma.201605887,1964,6(c),2966,X=0.05_4%Snexcess_KL,Sn0.9Mn0.14Te(Cu2Te)0.05,700,,,,0.82609,,,,
18603,10.1002/adma.201605887,1964,6(c),2966,X=0.05_4%Snexcess_KL,Sn0.9Mn0.14Te(Cu2Te)0.05,750,,,,0.74993,,,,
18603,10.1002/adma.201605887,1964,6(c),2966,X=0.05_4%Snexcess_KL,Sn0.9Mn0.14Te(Cu2Te)0.05,800,,,,0.68091,,,,
18603,10.1002/adma.201605887,1964,6(c),2966,X=0.05_4%Snexcess_KL,Sn0.9Mn0.14Te(Cu2Te)0.05,850,,,,0.60936,,,,
18603,10.1002/adma.201605887,1964,6(c),2966,X=0.05_4%Snexcess_KL,Sn0.9Mn0.14Te(Cu2Te)0.05,900,,,,0.51588,,,,
18603,10.1002/adma.201605887,1964,6(c),2963,x=0.05_KL,Sn0.86Mn0.14Te(Cu2Te)0.05,300,,,,1.5849,,,,
18603,10.1002/adma.201605887,1964,6(c),2963,x=0.05_KL,Sn0.86Mn0.14Te(Cu2Te)0.05,350,,,,1.5094,,,,
18603,10.1002/adma.201605887,1964,6(c),2963,x=0.05_KL,Sn0.86Mn0.14Te(Cu2Te)0.05,400,,,,1.4093,,,,
18603,10.1002/adma.201605887,1964,6(c),2963,x=0.05_KL,Sn0.86Mn0.14Te(Cu2Te)0.05,450,,,,1.2972,,,,
18603,10.1002/adma.201605887,1964,6(c),2963,x=0.05_KL,Sn0.86Mn0.14Te(Cu2Te)0.05,500,,,,1.1837,,,,
18603,10.1002/adma.201605887,1964,6(c),2963,x=0.05_KL,Sn0.86Mn0.14Te(Cu2Te)0.05,550,,,,1.0769,,,,
18603,10.1002/adma.201605887,1964,6(c),2963,x=0.05_KL,Sn0.86Mn0.14Te(Cu2Te)0.05,600,,,,0.98191,,,,
18603,10.1002/adma.201605887,1964,6(c),2963,x=0.05_KL,Sn0.86Mn0.14Te(Cu2Te)0.05,650,,,,0.90073,,,,
18603,10.1002/adma.201605887,1964,6(c),2963,x=0.05_KL,Sn0.86Mn0.14Te(Cu2Te)0.05,700,,,,0.83158,,,,
18603,10.1002/adma.201605887,1964,6(c),2963,x=0.05_KL,Sn0.86Mn0.14Te(Cu2Te)0.05,750,,,,0.76859,,,,
18603,10.1002/adma.201605887,1964,6(c),2963,x=0.05_KL,Sn0.86Mn0.14Te(Cu2Te)0.05,800,,,,0.70136,,,,
18603,10.1002/adma.201605887,1964,6(c),2963,x=0.05_KL,Sn0.86Mn0.14Te(Cu2Te)0.05,850,,,,0.6146,,,,
18603,10.1002/adma.201605887,1964,6(c),2967,x=0.04_KL,Sn0.9Mn0.14Te(Cu2Te)0.05,300,,,,2.0678,,,,
18603,10.1002/adma.201605887,1964,6(c),2967,x=0.04_KL,Sn0.9Mn0.14Te(Cu2Te)0.05,350,,,,2.0271,,,,
18603,10.1002/adma.201605887,1964,6(c),2967,x=0.04_KL,Sn0.9Mn0.14Te(Cu2Te)0.05,400,,,,1.9233,,,,
18603,10.1002/adma.201605887,1964,6(c),2967,x=0.04_KL,Sn0.9Mn0.14Te(Cu2Te)0.05,450,,,,1.787,,,,
18603,10.1002/adma.201605887,1964,6(c),2967,x=0.04_KL,Sn0.9Mn0.14Te(Cu2Te)0.05,500,,,,1.6386,,,,
18603,10.1002/adma.201605887,1964,6(c),2967,x=0.04_KL,Sn0.9Mn0.14Te(Cu2Te)0.05,550,,,,1.4904,,,,
18603,10.1002/adma.201605887,1964,6(c),2967,x=0.04_KL,Sn0.9Mn0.14Te(Cu2Te)0.05,600,,,,1.3485,,,,
18603,10.1002/adma.201605887,1964,6(c),2967,x=0.04_KL,Sn0.9Mn0.14Te(Cu2Te)0.05,650,,,,1.2153,,,,
18603,10.1002/adma.201605887,1964,6(c),2967,x=0.04_KL,Sn0.9Mn0.14Te(Cu2Te)0.05,700,,,,1.0909,,,,
18603,10.1002/adma.201605887,1964,6(c),2967,x=0.04_KL,Sn0.9Mn0.14Te(Cu2Te)0.05,750,,,,0.97563,,,,
18603,10.1002/adma.201605887,1964,6(c),2967,x=0.04_KL,Sn0.9Mn0.14Te(Cu2Te)0.05,800,,,,0.87199,,,,
18603,10.1002/adma.201605887,1964,6(c),2967,x=0.04_KL,Sn0.9Mn0.14Te(Cu2Te)0.05,850,,,,0.7866,,,,
18603,10.1002/adma.201605887,1966,7(a),2968,y=0.03,Sn1Mn0.03Te(Cu2Te)0.05,350,0.0000019624,,0.000014309,,0.015859,509580.105992662,0.0001043352,
18603,10.1002/adma.201605887,1966,7(a),2968,y=0.03,Sn1Mn0.03Te(Cu2Te)0.05,400,0.0000022756,,0.000019472,,0.019793,439444.5420987871,0.0001666193,
18603,10.1002/adma.201605887,1966,7(a),2968,y=0.03,Sn1Mn0.03Te(Cu2Te)0.05,450,0.0000026465,,0.000025969,,0.024671,377857.5477045154,0.000254823,
18603,10.1002/adma.201605887,1966,7(a),2968,y=0.03,Sn1Mn0.03Te(Cu2Te)0.05,500,0.0000030583,,0.000032788,,0.039656,326979.0406434948,0.0003515198,
18603,10.1002/adma.201605887,1966,7(a),2968,y=0.03,Sn1Mn0.03Te(Cu2Te)0.05,550,0.0000035559,,0.000040135,,0.068595,281222.7565454597,0.0004529987,
18603,10.1002/adma.201605887,1966,7(a),2968,y=0.03,Sn1Mn0.03Te(Cu2Te)0.05,600,0.0000042182,,0.000048967,,0.11342,237067.9436726566,0.0005684337,
18603,10.1002/adma.201605887,1966,7(a),2968,y=0.03,Sn1Mn0.03Te(Cu2Te)0.05,650,0.0000051288,,0.000060515,,0.17757,194977.3826236157,0.0007140199,
18603,10.1002/adma.201605887,1966,7(a),2968,y=0.03,Sn1Mn0.03Te(Cu2Te)0.05,700,0.0000063486,,0.000075817,,0.26938,157515.0426865766,0.0009054307,
18603,10.1002/adma.201605887,1966,7(a),2968,y=0.03,Sn1Mn0.03Te(Cu2Te)0.05,750,0.0000078869,,0.000095241,,0.4055,126792.5293841687,0.0011501158,
18603,10.1002/adma.201605887,1966,7(a),2968,y=0.03,Sn1Mn0.03Te(Cu2Te)0.05,800,0.0000096732,,0.00011802,,0.61428,103378.4063184882,0.0014399289,
18603,10.1002/adma.201605887,1966,7(a),2968,y=0.03,Sn1Mn0.03Te(Cu2Te)0.05,850,0.000011529,,0.00014178,,0.93924,86737.7916558244,0.0017435657,
18603,10.1002/adma.201605887,1967,7(b),2968,y=0.03,Sn1Mn0.03Te(Cu2Te)0.05,300,0.000001814,,,,,551267.9162072768,,
18603,10.1002/adma.201605887,1966,7(a),2971,y=0.12,Sn0.91Mn0.12Te(Cu2Te)0.05,350,0.000004243,,0.00003292,,0.035171,235682.3002592505,0.0002554151,
18603,10.1002/adma.201605887,1966,7(a),2971,y=0.12,Sn0.91Mn0.12Te(Cu2Te)0.05,400,0.0000051034,,0.0000455,,0.071351,195947.7995062115,0.0004056609,
18603,10.1002/adma.201605887,1966,7(a),2971,y=0.12,Sn0.91Mn0.12Te(Cu2Te)0.05,450,0.0000061509,,0.000059848,,0.12281,162577.8341380936,0.0005823185,
18603,10.1002/adma.201605887,1966,7(a),2971,y=0.12,Sn0.91Mn0.12Te(Cu2Te)0.05,500,0.0000072467,,0.000074298,,0.18934,137993.8454744919,0.0007617526,
18603,10.1002/adma.201605887,1966,7(a),2971,y=0.12,Sn0.91Mn0.12Te(Cu2Te)0.05,550,0.0000084912,,0.000088741,,0.27274,117768.9843602789,0.0009274266,
18603,10.1002/adma.201605887,1966,7(a),2971,y=0.12,Sn0.91Mn0.12Te(Cu2Te)0.05,600,0.000010123,,0.00010395,,0.37499,98784.9451743554,0.0010674309,