sid,DOI,figureid,fignum,sampleid,samplename,composition,Temperature,Electrical resistivity,Hall movility,Seebeck coefficient,Thermal conductivity,ZT,Electrical conductivity,Power factor,Figure of merit Z
18603,10.1002/adma.201605887,1961,1(b),2941,Si80Ge20,Si80Ge20,750,,,,,0.88274,,,
18603,10.1002/adma.201605887,1961,1(b),2941,Si80Ge20,Si80Ge20,800,,,,,0.95359,,,
18603,10.1002/adma.201605887,1961,1(b),2941,Si80Ge20,Si80Ge20,850,,,,,0.98027,,,
18603,10.1002/adma.201605887,1961,1(b),2942,Yb0.25La0.6Fe2.7Co1.3Sb12,Yb0.25La0.6Fe2.7Co1.3Sb12,300,,,,,0.2226,,,
18603,10.1002/adma.201605887,1961,1(b),2942,Yb0.25La0.6Fe2.7Co1.3Sb12,Yb0.25La0.6Fe2.7Co1.3Sb12,350,,,,,0.32939,,,
18603,10.1002/adma.201605887,1961,1(b),2942,Yb0.25La0.6Fe2.7Co1.3Sb12,Yb0.25La0.6Fe2.7Co1.3Sb12,400,,,,,0.42872,,,
18603,10.1002/adma.201605887,1961,1(b),2942,Yb0.25La0.6Fe2.7Co1.3Sb12,Yb0.25La0.6Fe2.7Co1.3Sb12,450,,,,,0.53648,,,
18603,10.1002/adma.201605887,1961,1(b),2942,Yb0.25La0.6Fe2.7Co1.3Sb12,Yb0.25La0.6Fe2.7Co1.3Sb12,500,,,,,0.65405,,,
18603,10.1002/adma.201605887,1961,1(b),2942,Yb0.25La0.6Fe2.7Co1.3Sb12,Yb0.25La0.6Fe2.7Co1.3Sb12,550,,,,,0.77254,,,
18603,10.1002/adma.201605887,1961,1(b),2942,Yb0.25La0.6Fe2.7Co1.3Sb12,Yb0.25La0.6Fe2.7Co1.3Sb12,600,,,,,0.87698,,,
18603,10.1002/adma.201605887,1961,1(b),2942,Yb0.25La0.6Fe2.7Co1.3Sb12,Yb0.25La0.6Fe2.7Co1.3Sb12,650,,,,,0.9506,,,
18603,10.1002/adma.201605887,1961,1(b),2942,Yb0.25La0.6Fe2.7Co1.3Sb12,Yb0.25La0.6Fe2.7Co1.3Sb12,700,,,,,0.97893,,,
18603,10.1002/adma.201605887,1961,1(b),2942,Yb0.25La0.6Fe2.7Co1.3Sb12,Yb0.25La0.6Fe2.7Co1.3Sb12,750,,,,,0.95412,,,
18603,10.1002/adma.201605887,1961,1(b),2943,Yb14Mn0.2Al0.8Sb11,Yb14Mn0.2Al0.8Sb11,350,,,,,0.18996,,,
18603,10.1002/adma.201605887,1961,1(b),2943,Yb14Mn0.2Al0.8Sb11,Yb14Mn0.2Al0.8Sb11,400,,,,,0.23149,,,
18603,10.1002/adma.201605887,1961,1(b),2943,Yb14Mn0.2Al0.8Sb11,Yb14Mn0.2Al0.8Sb11,450,,,,,0.27713,,,
18603,10.1002/adma.201605887,1961,1(b),2943,Yb14Mn0.2Al0.8Sb11,Yb14Mn0.2Al0.8Sb11,500,,,,,0.32984,,,
18603,10.1002/adma.201605887,1961,1(b),2943,Yb14Mn0.2Al0.8Sb11,Yb14Mn0.2Al0.8Sb11,550,,,,,0.39108,,,
18603,10.1002/adma.201605887,1961,1(b),2943,Yb14Mn0.2Al0.8Sb11,Yb14Mn0.2Al0.8Sb11,600,,,,,0.46103,,,
18603,10.1002/adma.201605887,1961,1(b),2943,Yb14Mn0.2Al0.8Sb11,Yb14Mn0.2Al0.8Sb11,650,,,,,0.53884,,,
18603,10.1002/adma.201605887,1961,1(b),2943,Yb14Mn0.2Al0.8Sb11,Yb14Mn0.2Al0.8Sb11,700,,,,,0.6228,,,
18603,10.1002/adma.201605887,1961,1(b),2943,Yb14Mn0.2Al0.8Sb11,Yb14Mn0.2Al0.8Sb11,750,,,,,0.71063,,,
18603,10.1002/adma.201605887,1961,1(b),2943,Yb14Mn0.2Al0.8Sb11,Yb14Mn0.2Al0.8Sb11,800,,,,,0.79963,,,
18603,10.1002/adma.201605887,1961,1(b),2943,Yb14Mn0.2Al0.8Sb11,Yb14Mn0.2Al0.8Sb11,850,,,,,0.88699,,,
18603,10.1002/adma.201605887,1961,1(b),2943,Yb14Mn0.2Al0.8Sb11,Yb14Mn0.2Al0.8Sb11,900,,,,,0.96994,,,
18603,10.1002/adma.201605887,1961,1(b),2943,Yb14Mn0.2Al0.8Sb11,Yb14Mn0.2Al0.8Sb11,950,,,,,1.046,,,
18603,10.1002/adma.201605887,1961,1(b),2943,Yb14Mn0.2Al0.8Sb11,Yb14Mn0.2Al0.8Sb11,1000,,,,,1.1133,,,
18603,10.1002/adma.201605887,1961,1(b),2943,Yb14Mn0.2Al0.8Sb11,Yb14Mn0.2Al0.8Sb11,1050,,,,,1.1705,,,
18603,10.1002/adma.201605887,1961,1(b),2943,Yb14Mn0.2Al0.8Sb11,Yb14Mn0.2Al0.8Sb11,1100,,,,,1.2175,,,
18603,10.1002/adma.201605887,1961,1(b),2943,Yb14Mn0.2Al0.8Sb11,Yb14Mn0.2Al0.8Sb11,1150,,,,,1.2552,,,
18603,10.1002/adma.201605887,1961,1(b),2943,Yb14Mn0.2Al0.8Sb11,Yb14Mn0.2Al0.8Sb11,1200,,,,,1.286,,,
18603,10.1002/adma.201605887,1961,1(b),2943,Yb14Mn0.2Al0.8Sb11,Yb14Mn0.2Al0.8Sb11,1250,,,,,1.3139,,,
18603,10.1002/adma.201605887,1962,6(a),2944,x=0,Sn0.86Mn0.14Te(Cu2Te)0,350,0.0000073754,,0.000069586,,0.076755,135585.866529273,0.0006565354,
18603,10.1002/adma.201605887,1962,6(a),2944,x=0,Sn0.86Mn0.14Te(Cu2Te)0,400,0.000008696,,0.000084208,,0.1191,114995.4001839926,0.0008154309,
18603,10.1002/adma.201605887,1962,6(a),2944,x=0,Sn0.86Mn0.14Te(Cu2Te)0,450,0.000010451,,0.00010067,,0.17586,95684.6234810066,0.0009697109,
18603,10.1002/adma.201605887,1962,6(a),2944,x=0,Sn0.86Mn0.14Te(Cu2Te)0,500,0.000012662,,0.00011795,,0.244,78976.465013426,0.0010987366,
18603,10.1002/adma.201605887,1962,6(a),2944,x=0,Sn0.86Mn0.14Te(Cu2Te)0,550,0.000015385,,0.00013577,,0.32367,64998.375040624,0.0011981471,
18603,10.1002/adma.201605887,1962,6(a),2944,x=0,Sn0.86Mn0.14Te(Cu2Te)0,600,0.000018646,,0.0001542,,0.4165,53630.8055346991,0.001275214,
18603,10.1002/adma.201605887,1962,6(a),2944,x=0,Sn0.86Mn0.14Te(Cu2Te)0,650,0.000022373,,0.00017317,,0.52394,44696.7326688419,0.0013403589,
18603,10.1002/adma.201605887,1962,6(a),2944,x=0,Sn0.86Mn0.14Te(Cu2Te)0,700,0.000026335,,0.00019198,,0.64552,37972.2802354281,0.0013995185,
18603,10.1002/adma.201605887,1962,6(a),2944,x=0,Sn0.86Mn0.14Te(Cu2Te)0,750,0.000030075,,0.00020891,,0.77717,33250.2078137988,0.0014511517,
18603,10.1002/adma.201605887,1962,6(a),2944,x=0,Sn0.86Mn0.14Te(Cu2Te)0,800,0.00003284,,0.0002207,,0.90955,30450.6699147381,0.0014832062,
18603,10.1002/adma.201605887,1962,6(a),2944,x=0,Sn0.86Mn0.14Te(Cu2Te)0,850,0.000033525,,0.00022213,,1.0263,29828.4862043251,0.0014717893,
18603,10.1002/adma.201605887,1962,6(a),2945,x=0.01,Sn0.86Mn0.14Te(Cu2Te)0.01,350,0.0000032666,,0.000057273,,0.084718,306128.6965040103,0.0010041623,
18603,10.1002/adma.201605887,1962,6(a),2945,x=0.01,Sn0.86Mn0.14Te(Cu2Te)0.01,400,0.0000037312,,0.000063528,,0.11168,268010.2915951973,0.0010816378,
18603,10.1002/adma.201605887,1962,6(a),2945,x=0.01,Sn0.86Mn0.14Te(Cu2Te)0.01,450,0.0000042544,,0.000072519,,0.1467,235050.7709665287,0.0012361333,
18603,10.1002/adma.201605887,1962,6(a),2945,x=0.01,Sn0.86Mn0.14Te(Cu2Te)0.01,500,0.000004835,,0.000081712,,0.1854,206825.2326783868,0.0013809413,
18603,10.1002/adma.201605887,1962,6(a),2945,x=0.01,Sn0.86Mn0.14Te(Cu2Te)0.01,550,0.0000055281,,0.000090342,,0.22806,180893.9780394711,0.0014763982,
18603,10.1002/adma.201605887,1962,6(a),2945,x=0.01,Sn0.86Mn0.14Te(Cu2Te)0.01,600,0.0000064172,,0.000098804,,0.27765,155831.2036402169,0.0015212601,
18603,10.1002/adma.201605887,1962,6(a),2945,x=0.01,Sn0.86Mn0.14Te(Cu2Te)0.01,650,0.0000075861,,0.00010805,,0.33795,131820.0392823717,0.0015389729,
18603,10.1002/adma.201605887,1962,6(a),2945,x=0.01,Sn0.86Mn0.14Te(Cu2Te)0.01,700,0.0000090913,,0.00011898,,0.41164,109995.2702033813,0.0015571195,
18603,10.1002/adma.201605887,1962,6(a),2945,x=0.01,Sn0.86Mn0.14Te(Cu2Te)0.01,750,0.000010934,,0.00013184,,0.49838,91457.8379367112,0.0015897005,
18603,10.1002/adma.201605887,1962,6(a),2945,x=0.01,Sn0.86Mn0.14Te(Cu2Te)0.01,800,0.000013032,,0.00014562,,0.59291,76734.1927562922,0.0016271627,
18603,10.1002/adma.201605887,1962,6(a),2945,x=0.01,Sn0.86Mn0.14Te(Cu2Te)0.01,850,0.000015191,,0.00015745,,,65828.4510565466,0.0016319204,
18603,10.1002/adma.201605887,1962,6(a),2947,x=0.04,Sn0.86Mn0.14Te(Cu2Te)0.04,350,0.0000035121,,0.000050488,,0.065536,284729.9336579255,0.0007257875,
18603,10.1002/adma.201605887,1962,6(a),2947,x=0.04,Sn0.86Mn0.14Te(Cu2Te)0.04,400,0.0000038913,,0.000055931,,0.081101,256983.5273558965,0.0008039156,
18603,10.1002/adma.201605887,1962,6(a),2947,x=0.04,Sn0.86Mn0.14Te(Cu2Te)0.04,450,0.0000043638,,0.000062749,,0.10711,229158.0732389202,0.0009022955,
18603,10.1002/adma.201605887,1962,6(a),2947,x=0.04,Sn0.86Mn0.14Te(Cu2Te)0.04,500,0.0000049637,,0.000071075,,0.14517,201462.6186111167,0.0010177198,
18603,10.1002/adma.201605887,1962,6(a),2947,x=0.04,Sn0.86Mn0.14Te(Cu2Te)0.04,550,0.0000057288,,0.000080848,,0.19644,174556.6261695294,0.0011409718,
18603,10.1002/adma.201605887,1962,6(a),2947,x=0.04,Sn0.86Mn0.14Te(Cu2Te)0.04,600,0.0000067013,,0.000091892,,0.26183,149224.7772820199,0.0012600749,
18603,10.1002/adma.201605887,1962,6(a),2947,x=0.04,Sn0.86Mn0.14Te(Cu2Te)0.04,650,0.0000079286,,0.00010399,,0.34226,126125.6716192014,0.0013639129,
18603,10.1002/adma.201605887,1962,6(a),2947,x=0.04,Sn0.86Mn0.14Te(Cu2Te)0.04,700,0.0000094645,,0.00011697,,0.43894,105657.9851022241,0.0014456105,
18603,10.1002/adma.201605887,1962,6(a),2947,x=0.04,Sn0.86Mn0.14Te(Cu2Te)0.04,750,0.00001137,,0.00013074,,0.55359,87950.7475813544,0.0015033375,
18603,10.1002/adma.201605887,1962,6(a),2947,x=0.04,Sn0.86Mn0.14Te(Cu2Te)0.04,800,0.000013713,,0.00014542,,0.68871,72923.5032450959,0.0015421116,
18603,10.1002/adma.201605887,1962,6(a),2947,x=0.04,Sn0.86Mn0.14Te(Cu2Te)0.04,850,0.000016571,,0.00016139,,0.84778,60346.3882686621,0.0015718262,
18603,10.1002/adma.201605887,1962,6(a),2948,x=0.05,Sn0.86Mn0.14Te(Cu2Te)0.05,350,0.0000031138,,0.000042986,,0.067881,321151.0052026463,0.0005934216,
18603,10.1002/adma.201605887,1962,6(a),2948,x=0.05,Sn0.86Mn0.14Te(Cu2Te)0.05,400,0.0000035954,,0.000050308,,0.10553,278133.1701618735,0.0007039258,
18603,10.1002/adma.201605887,1962,6(a),2948,x=0.05,Sn0.86Mn0.14Te(Cu2Te)0.05,450,0.0000042102,,0.000059711,,0.16153,237518.4076765949,0.000846849,
18603,10.1002/adma.201605887,1962,6(a),2948,x=0.05,Sn0.86Mn0.14Te(Cu2Te)0.05,500,0.0000048789,,0.000069695,,0.2297,204964.2337412122,0.0009955918,
18603,10.1002/adma.201605887,1962,6(a),2948,x=0.05,Sn0.86Mn0.14Te(Cu2Te)0.05,550,0.00000564,,0.000080042,,0.30981,177304.9645390071,0.0011359436,
18603,10.1002/adma.201605887,1962,6(a),2948,x=0.05,Sn0.86Mn0.14Te(Cu2Te)0.05,600,0.0000066081,,0.000091327,,0.40508,151329.4290340642,0.0012621814,
18603,10.1002/adma.201605887,1962,6(a),2948,x=0.05,Sn0.86Mn0.14Te(Cu2Te)0.05,650,0.0000079338,,0.00010444,,0.51959,126043.0058736041,0.001374841,
18603,10.1002/adma.201605887,1962,6(a),2948,x=0.05,Sn0.86Mn0.14Te(Cu2Te)0.05,700,0.0000097623,,0.00012007,,0.6558,102434.8770269301,0.0014767836,
18603,10.1002/adma.201605887,1962,6(a),2948,x=0.05,Sn0.86Mn0.14Te(Cu2Te)0.05,750,0.000012192,,0.00013827,,0.81197,82020.9973753281,0.0015681261,
18603,10.1002/adma.201605887,1962,6(a),2948,x=0.05,Sn0.86Mn0.14Te(Cu2Te)0.05,800,0.000015235,,0.0001579,,0.97964,65638.3327863472,0.0016365218,
18603,10.1002/adma.201605887,1962,6(a),2948,x=0.05,Sn0.86Mn0.14Te(Cu2Te)0.05,850,0.000018775,,0.00017622,,1.1411,53262.3169107856,0.0016539807,
18603,10.1002/adma.201605887,1962,6(a),2949,x=0.05_3%Sneccess,Sn0.89Mn0.14Te(Cu2Te)0.05,350,0.0000055583,,0.000045921,,0.038352,179911.123904791,0.0003793855,
18603,10.1002/adma.201605887,1962,6(a),2949,x=0.05_3%Sneccess,Sn0.89Mn0.14Te(Cu2Te)0.05,400,0.0000066357,,0.000059898,,0.084033,150700.001507,0.000540677,
18603,10.1002/adma.201605887,1962,6(a),2949,x=0.05_3%Sneccess,Sn0.89Mn0.14Te(Cu2Te)0.05,450,0.000007967,,0.000075854,,0.14658,125517.760763148,0.0007222078,
18603,10.1002/adma.201605887,1962,6(a),2949,x=0.05_3%Sneccess,Sn0.89Mn0.14Te(Cu2Te)0.05,500,0.0000095343,,0.000092032,,0.21521,104884.4697565632,0.0008883598,
18603,10.1002/adma.201605887,1962,6(a),2949,x=0.05_3%Sneccess,Sn0.89Mn0.14Te(Cu2Te)0.05,550,0.00001145,,0.00010799,,0.28728,87336.2445414847,0.0010185013,
18603,10.1002/adma.201605887,1962,6(a),2949,x=0.05_3%Sneccess,Sn0.89Mn0.14Te(Cu2Te)0.05,600,0.00001386,,0.00012408,,0.36622,72150.0721500722,0.0011108114,
18603,10.1002/adma.201605887,1962,6(a),2949,x=0.05_3%Sneccess,Sn0.89Mn0.14Te(Cu2Te)0.05,650,0.000016853,,0.00014093,,0.45954,59336.61662612,0.0011785003,
18603,10.1002/adma.201605887,1962,6(a),2949,x=0.05_3%Sneccess,Sn0.89Mn0.14Te(Cu2Te)0.05,700,0.00002036,,0.00015895,,0.5767,49115.9135559921,0.0012409186,
18603,10.1002/adma.201605887,1962,6(a),2949,x=0.05_3%Sneccess,Sn0.89Mn0.14Te(Cu2Te)0.05,750,0.000024066,,0.00017782,,0.72712,41552.39757334,0.0013138848,
18603,10.1002/adma.201605887,1962,6(a),2949,x=0.05_3%Sneccess,Sn0.89Mn0.14Te(Cu2Te)0.05,800,0.000027308,,0.00019592,,0.91806,36619.305697964,0.0014056191,
18603,10.1002/adma.201605887,1962,6(a),2949,x=0.05_3%Sneccess,Sn0.89Mn0.14Te(Cu2Te)0.05,850,0.000028985,,0.00020992,,1.1526,34500.6037605658,0.0015203176,
18603,10.1002/adma.201605887,1962,6(a),2949,x=0.05_3%Sneccess,Sn0.89Mn0.14Te(Cu2Te)0.05,900,0.000027462,,0.00021415,,1.4276,36413.9538271065,0.001669952,
18603,10.1002/adma.201605887,1965,6(d),2949,x=0.05_3%Sneccess,Sn0.89Mn0.14Te(Cu2Te)0.05,300,,,,,0.030539,,,
18603,10.1002/adma.201605887,1962,6(a),2946,x=0.03,Sn0.86Mn0.14Te(Cu2Te)0.03,350,0.0000031039,,0.000045776,,0.052103,322175.3278133961,0.0006750998,
18603,10.1002/adma.201605887,1962,6(a),2946,x=0.03,Sn0.86Mn0.14Te(Cu2Te)0.03,400,0.0000035129,,0.000054463,,0.083383,284665.0915198269,0.0008443788,
18603,10.1002/adma.201605887,1962,6(a),2946,x=0.03,Sn0.86Mn0.14Te(Cu2Te)0.03,450,0.0000038633,,0.000062483,,0.11288,258846.0642455932,0.0010105675,
18603,10.1002/adma.201605887,1962,6(a),2946,x=0.03,Sn0.86Mn0.14Te(Cu2Te)0.03,500,0.0000042901,,0.000070472,,0.14354,233094.7996550197,0.0011576194,
18603,10.1002/adma.201605887,1962,6(a),2946,x=0.03,Sn0.86Mn0.14Te(Cu2Te)0.03,550,0.0000049088,,0.000079012,,0.18095,203715.775749674,0.0012717764,
18603,10.1002/adma.201605887,1962,6(a),2946,x=0.03,Sn0.86Mn0.14Te(Cu2Te)0.03,600,0.0000057995,,0.000088531,,0.23139,172428.6576429002,0.0013514506,
18603,10.1002/adma.201605887,1962,6(a),2946,x=0.03,Sn0.86Mn0.14Te(Cu2Te)0.03,650,0.000006991,,0.000099186,,0.2998,143041.0527821485,0.0014072182,
18603,10.1002/adma.201605887,1962,6(a),2946,x=0.03,Sn0.86Mn0.14Te(Cu2Te)0.03,700,0.0000084444,,0.00011076,,0.38782,118421.6759035574,0.0014527708,
18603,10.1002/adma.201605887,1962,6(a),2946,x=0.03,Sn0.86Mn0.14Te(Cu2Te)0.03,750,0.000010037,,0.00012257,,0.49175,99631.3639533725,0.0014968023,
18603,10.1002/adma.201605887,1962,6(a),2946,x=0.03,Sn0.86Mn0.14Te(Cu2Te)0.03,800,0.000011548,,0.00013331,,0.60062,86595.0813993765,0.0015389293,
18603,10.1002/adma.201605887,1962,6(a),2946,x=0.03,Sn0.86Mn0.14Te(Cu2Te)0.03,850,0.000012639,,0.00014102,,0.69414,79120.1835588259,0.0015734346,
18603,10.1002/adma.201605887,1962,6(a),2950,x=0.05_5%Snexcess,Sn0.92Mn0.14Te(Cu2Te)0.05,350,0.0000058417,,0.000055718,,0.079356,171183.0460311211,0.000531437,
18603,10.1002/adma.201605887,1962,6(a),2950,x=0.05_5%Snexcess,Sn0.92Mn0.14Te(Cu2Te)0.05,400,0.0000070091,,0.000073847,,0.15042,142671.6696865503,0.0007780427,
18603,10.1002/adma.201605887,1962,6(a),2950,x=0.05_5%Snexcess,Sn0.92Mn0.14Te(Cu2Te)0.05,450,0.0000084879,,0.000094542,,0.25888,117814.7716160652,0.0010530508,
18603,10.1002/adma.201605887,1962,6(a),2950,x=0.05_5%Snexcess,Sn0.92Mn0.14Te(Cu2Te)0.05,500,0.000010018,,0.00011448,,0.39104,99820.3234178479,0.0013082123,
18603,10.1002/adma.201605887,1962,6(a),2950,x=0.05_5%Snexcess,Sn0.92Mn0.14Te(Cu2Te)0.05,550,0.000011672,,0.0001328,,0.53951,85675.1199451679,0.0015109527,
18603,10.1002/adma.201605887,1962,6(a),2950,x=0.05_5%Snexcess,Sn0.92Mn0.14Te(Cu2Te)0.05,600,0.000013689,,0.00015015,,0.70072,73051.3551026372,0.0016469444,
18603,10.1002/adma.201605887,1962,6(a),2950,x=0.05_5%Snexcess,Sn0.92Mn0.14Te(Cu2Te)0.05,650,0.000016317,,0.00016766,,0.87243,61285.7755714899,0.0017227355,
18603,10.1002/adma.201605887,1962,6(a),2950,x=0.05_5%Snexcess,Sn0.92Mn0.14Te(Cu2Te)0.05,700,0.00001965,,0.00018601,,1.0512,50890.5852417303,0.0017608,
18603,10.1002/adma.201605887,1962,6(a),2950,x=0.05_5%Snexcess,Sn0.92Mn0.14Te(Cu2Te)0.05,750,0.000023464,,0.00020445,,1.2299,42618.479372656,0.001781444,
18603,10.1002/adma.201605887,1962,6(a),2950,x=0.05_5%Snexcess,Sn0.92Mn0.14Te(Cu2Te)0.05,800,0.000027055,,0.0002198,,1.3953,36961.7445943449,0.0017856973,
18603,10.1002/adma.201605887,1962,6(a),2950,x=0.05_5%Snexcess,Sn0.92Mn0.14Te(Cu2Te)0.05,850,0.00002908,,0.00022548,,1.5254,34387.8954607978,0.0017483229,
18603,10.1002/adma.201605887,1962,6(a),2950,x=0.05_5%Snexcess,Sn0.92Mn0.14Te(Cu2Te)0.05,900,0.000027393,,0.00021054,,1.5872,36505.6766327164,0.0016181905,
18603,10.1002/adma.201605887,1962,6(a),2951,x=0.05_4%Snexcess,Sn0.9Mn0.14Te(Cu2Te)0.05,350,0.0000056787,,0.000045776,,0.073248,176096.6418370402,0.0003690003,
18603,10.1002/adma.201605887,1962,6(a),2951,x=0.05_4%Snexcess,Sn0.9Mn0.14Te(Cu2Te)0.05,400,0.0000067356,,0.000054463,,0.13348,148464.8732109983,0.0004403792,
18603,10.1002/adma.201605887,1962,6(a),2951,x=0.05_4%Snexcess,Sn0.9Mn0.14Te(Cu2Te)0.05,450,0.0000079937,,0.000062483,,0.21222,125098.515080626,0.0004884003,
18603,10.1002/adma.201605887,1962,6(a),2951,x=0.05_4%Snexcess,Sn0.9Mn0.14Te(Cu2Te)0.05,500,0.0000094741,,0.000070472,,0.30421,105550.923042822,0.0005241978,
18603,10.1002/adma.201605887,1962,6(a),2951,x=0.05_4%Snexcess,Sn0.9Mn0.14Te(Cu2Te)0.05,550,0.00001132,,0.000079012,,0.40916,88339.222614841,0.0005514926,
18603,10.1002/adma.201605887,1962,6(a),2951,x=0.05_4%Snexcess,Sn0.9Mn0.14Te(Cu2Te)0.05,600,0.000013702,,0.000088531,,0.52957,72982.0464165815,0.0005720142,
18603,10.1002/adma.201605887,1962,6(a),2951,x=0.05_4%Snexcess,Sn0.9Mn0.14Te(Cu2Te)0.05,650,0.000016724,,0.000099186,,0.6685,59794.3075819182,0.0005882482,
18603,10.1002/adma.201605887,1962,6(a),2951,x=0.05_4%Snexcess,Sn0.9Mn0.14Te(Cu2Te)0.05,700,0.000020327,,0.00011076,,0.82737,49195.6511044424,0.0006035213,
18603,10.1002/adma.201605887,1962,6(a),2951,x=0.05_4%Snexcess,Sn0.9Mn0.14Te(Cu2Te)0.05,750,0.000024195,,0.00012257,,1.0038,41330.8534821244,0.0006209301,
18603,10.1002/adma.201605887,1962,6(a),2951,x=0.05_4%Snexcess,Sn0.9Mn0.14Te(Cu2Te)0.05,800,0.000027661,,0.00013331,,1.1892,36151.9829362641,0.000642477,
18603,10.1002/adma.201605887,1962,6(a),2951,x=0.05_4%Snexcess,Sn0.9Mn0.14Te(Cu2Te)0.05,850,0.000029613,,0.00014102,,1.3671,33768.9528247729,0.000671551,
18603,10.1002/adma.201605887,1963,6(b),2951,x=0.05_4%Snexcess,Sn0.9Mn0.14Te(Cu2Te)0.05,900,0.000028395,,,,1.5101,35217.4678640606,,
18603,10.1002/adma.201605887,1964,6(c),2952,x=0_K,Sn0.86Mn0.14Te(Cu2Te)0,350,,,,2.6281,,,,
18603,10.1002/adma.201605887,1964,6(c),2952,x=0_K,Sn0.86Mn0.14Te(Cu2Te)0,400,,,,2.4461,,,,
18603,10.1002/adma.201605887,1964,6(c),2952,x=0_K,Sn0.86Mn0.14Te(Cu2Te)0,450,,,,2.271,,,,
18603,10.1002/adma.201605887,1964,6(c),2952,x=0_K,Sn0.86Mn0.14Te(Cu2Te)0,500,,,,2.0918,,,,
18603,10.1002/adma.201605887,1964,6(c),2952,x=0_K,Sn0.86Mn0.14Te(Cu2Te)0,550,,,,1.9105,,,,
18603,10.1002/adma.201605887,1964,6(c),2952,x=0_K,Sn0.86Mn0.14Te(Cu2Te)0,600,,,,1.7371,,,,
18603,10.1002/adma.201605887,1964,6(c),2952,x=0_K,Sn0.86Mn0.14Te(Cu2Te)0,650,,,,1.5838,,,,
18603,10.1002/adma.201605887,1964,6(c),2952,x=0_K,Sn0.86Mn0.14Te(Cu2Te)0,700,,,,1.4595,,,,
18603,10.1002/adma.201605887,1964,6(c),2952,x=0_K,Sn0.86Mn0.14Te(Cu2Te)0,750,,,,1.3643,,,,
18603,10.1002/adma.201605887,1964,6(c),2952,x=0_K,Sn0.86Mn0.14Te(Cu2Te)0,800,,,,1.284,,,,
18603,10.1002/adma.201605887,1964,6(c),2952,x=0_K,Sn0.86Mn0.14Te(Cu2Te)0,850,,,,1.1844,,,,
18603,10.1002/adma.201605887,1964,6(c),2953,x=0.01_K,Sn0.86Mn0.14Te(Cu2Te)0.01,350,,,,4.0246,,,,
18603,10.1002/adma.201605887,1964,6(c),2953,x=0.01_K,Sn0.86Mn0.14Te(Cu2Te)0.01,400,,,,3.9879,,,,
18603,10.1002/adma.201605887,1964,6(c),2953,x=0.01_K,Sn0.86Mn0.14Te(Cu2Te)0.01,450,,,,3.8912,,,,
18603,10.1002/adma.201605887,1964,6(c),2953,x=0.01_K,Sn0.86Mn0.14Te(Cu2Te)0.01,500,,,,3.7089,,,,
18603,10.1002/adma.201605887,1964,6(c),2953,x=0.01_K,Sn0.86Mn0.14Te(Cu2Te)0.01,550,,,,3.4505,,,,
18603,10.1002/adma.201605887,1964,6(c),2953,x=0.01_K,Sn0.86Mn0.14Te(Cu2Te)0.01,600,,,,3.147,,,,
18603,10.1002/adma.201605887,1964,6(c),2953,x=0.01_K,Sn0.86Mn0.14Te(Cu2Te)0.01,650,,,,2.8383,,,,
18603,10.1002/adma.201605887,1964,6(c),2953,x=0.01_K,Sn0.86Mn0.14Te(Cu2Te)0.01,700,,,,2.5594,,,,
18603,10.1002/adma.201605887,1964,6(c),2953,x=0.01_K,Sn0.86Mn0.14Te(Cu2Te)0.01,750,,,,2.3278,,,,
18603,10.1002/adma.201605887,1964,6(c),2953,x=0.01_K,Sn0.86Mn0.14Te(Cu2Te)0.01,800,,,,2.1301,,,,
18603,10.1002/adma.201605887,1964,6(c),2953,x=0.01_K,Sn0.86Mn0.14Te(Cu2Te)0.01,850,,,,1.9089,,,,
18603,10.1002/adma.201605887,1964,6(c),2953,x=0.01_K,Sn0.86Mn0.14Te(Cu2Te)0.01,900,,,,1.5495,,,,
18603,10.1002/adma.201605887,1964,6(c),2954,x=0.03_K,Sn0.86Mn0.14Te(Cu2Te)0.03,300,,,,4.5137,,,,
18603,10.1002/adma.201605887,1964,6(c),2954,x=0.03_K,Sn0.86Mn0.14Te(Cu2Te)0.03,350,,,,4.3648,,,,
18603,10.1002/adma.201605887,1964,6(c),2954,x=0.03_K,Sn0.86Mn0.14Te(Cu2Te)0.03,400,,,,4.2836,,,,
18603,10.1002/adma.201605887,1964,6(c),2954,x=0.03_K,Sn0.86Mn0.14Te(Cu2Te)0.03,450,,,,4.1864,,,,
18603,10.1002/adma.201605887,1964,6(c),2954,x=0.03_K,Sn0.86Mn0.14Te(Cu2Te)0.03,500,,,,4.0254,,,,
18603,10.1002/adma.201605887,1964,6(c),2954,x=0.03_K,Sn0.86Mn0.14Te(Cu2Te)0.03,550,,,,3.7827,,,,