sid,DOI,figureid,fignum,sampleid,samplename,composition,Temperature,Electrical resistivity,Hall movility,Seebeck coefficient,Thermal conductivity,ZT,Electrical conductivity,Power factor,Figure of merit Z
18603,10.1002/adma.201605887,1968,7(c),2984,y=0.06_KL,Sn0.97Mn0.06Te(Cu2Te)0.05,400,,,,1.2632,,,,
18603,10.1002/adma.201605887,1968,7(c),2984,y=0.06_KL,Sn0.97Mn0.06Te(Cu2Te)0.05,450,,,,1.2141,,,,
18603,10.1002/adma.201605887,1968,7(c),2984,y=0.06_KL,Sn0.97Mn0.06Te(Cu2Te)0.05,500,,,,1.1801,,,,
18603,10.1002/adma.201605887,1968,7(c),2984,y=0.06_KL,Sn0.97Mn0.06Te(Cu2Te)0.05,550,,,,1.1416,,,,
18603,10.1002/adma.201605887,1968,7(c),2984,y=0.06_KL,Sn0.97Mn0.06Te(Cu2Te)0.05,600,,,,1.0945,,,,
18603,10.1002/adma.201605887,1968,7(c),2984,y=0.06_KL,Sn0.97Mn0.06Te(Cu2Te)0.05,650,,,,1.0436,,,,
18603,10.1002/adma.201605887,1968,7(c),2984,y=0.06_KL,Sn0.97Mn0.06Te(Cu2Te)0.05,700,,,,0.99635,,,,
18603,10.1002/adma.201605887,1968,7(c),2984,y=0.06_KL,Sn0.97Mn0.06Te(Cu2Te)0.05,750,,,,0.95581,,,,
18603,10.1002/adma.201605887,1968,7(c),2984,y=0.06_KL,Sn0.97Mn0.06Te(Cu2Te)0.05,800,,,,0.9145,,,,
18603,10.1002/adma.201605887,1968,7(c),2984,y=0.06_KL,Sn0.97Mn0.06Te(Cu2Te)0.05,850,,,,0.84769,,,,
18603,10.1002/adma.201605887,1968,7(c),2985,y=0.09_KL,Sn0.94Mn0.09Te(Cu2Te)0.05,350,,,,1.4276,,,,
18603,10.1002/adma.201605887,1968,7(c),2985,y=0.09_KL,Sn0.94Mn0.09Te(Cu2Te)0.05,400,,,,1.3507,,,,
18603,10.1002/adma.201605887,1968,7(c),2985,y=0.09_KL,Sn0.94Mn0.09Te(Cu2Te)0.05,450,,,,1.2711,,,,
18603,10.1002/adma.201605887,1968,7(c),2985,y=0.09_KL,Sn0.94Mn0.09Te(Cu2Te)0.05,500,,,,1.1956,,,,
18603,10.1002/adma.201605887,1968,7(c),2985,y=0.09_KL,Sn0.94Mn0.09Te(Cu2Te)0.05,550,,,,1.1267,,,,
18603,10.1002/adma.201605887,1968,7(c),2985,y=0.09_KL,Sn0.94Mn0.09Te(Cu2Te)0.05,600,,,,1.0637,,,,
18603,10.1002/adma.201605887,1968,7(c),2985,y=0.09_KL,Sn0.94Mn0.09Te(Cu2Te)0.05,650,,,,1.0038,,,,
18603,10.1002/adma.201605887,1968,7(c),2985,y=0.09_KL,Sn0.94Mn0.09Te(Cu2Te)0.05,700,,,,0.94303,,,,
18603,10.1002/adma.201605887,1968,7(c),2985,y=0.09_KL,Sn0.94Mn0.09Te(Cu2Te)0.05,750,,,,0.87729,,,,
18603,10.1002/adma.201605887,1968,7(c),2985,y=0.09_KL,Sn0.94Mn0.09Te(Cu2Te)0.05,800,,,,0.80345,,,,
18603,10.1002/adma.201605887,1968,7(c),2985,y=0.09_KL,Sn0.94Mn0.09Te(Cu2Te)0.05,850,,,,0.72033,,,,
18603,10.1002/adma.201605887,1968,7(c),2986,y=0.12_KL,Sn0.91Mn0.12Te(Cu2Te)0.05,350,,,,1.3444,,,,
18603,10.1002/adma.201605887,1968,7(c),2986,y=0.12_KL,Sn0.91Mn0.12Te(Cu2Te)0.05,400,,,,1.2313,,,,
18603,10.1002/adma.201605887,1968,7(c),2986,y=0.12_KL,Sn0.91Mn0.12Te(Cu2Te)0.05,450,,,,1.1456,,,,
18603,10.1002/adma.201605887,1968,7(c),2986,y=0.12_KL,Sn0.91Mn0.12Te(Cu2Te)0.05,500,,,,1.091,,,,
18603,10.1002/adma.201605887,1968,7(c),2986,y=0.12_KL,Sn0.91Mn0.12Te(Cu2Te)0.05,550,,,,1.0601,,,,
18603,10.1002/adma.201605887,1968,7(c),2986,y=0.12_KL,Sn0.91Mn0.12Te(Cu2Te)0.05,600,,,,1.0391,,,,
18603,10.1002/adma.201605887,1968,7(c),2986,y=0.12_KL,Sn0.91Mn0.12Te(Cu2Te)0.05,650,,,,1.0125,,,,
18603,10.1002/adma.201605887,1968,7(c),2986,y=0.12_KL,Sn0.91Mn0.12Te(Cu2Te)0.05,700,,,,0.96788,,,,
18603,10.1002/adma.201605887,1968,7(c),2986,y=0.12_KL,Sn0.91Mn0.12Te(Cu2Te)0.05,750,,,,0.90046,,,,
18603,10.1002/adma.201605887,1968,7(c),2986,y=0.12_KL,Sn0.91Mn0.12Te(Cu2Te)0.05,800,,,,0.81784,,,,
18603,10.1002/adma.201605887,1968,7(c),2987,y=0.14_KL,Sn0.89Mn0.14Te(Cu2Te)0.05,350,,,,1.4634,,,,
18603,10.1002/adma.201605887,1968,7(c),2987,y=0.14_KL,Sn0.89Mn0.14Te(Cu2Te)0.05,400,,,,1.4082,,,,
18603,10.1002/adma.201605887,1968,7(c),2987,y=0.14_KL,Sn0.89Mn0.14Te(Cu2Te)0.05,450,,,,1.3417,,,,
18603,10.1002/adma.201605887,1968,7(c),2987,y=0.14_KL,Sn0.89Mn0.14Te(Cu2Te)0.05,500,,,,1.261,,,,
18603,10.1002/adma.201605887,1968,7(c),2987,y=0.14_KL,Sn0.89Mn0.14Te(Cu2Te)0.05,550,,,,1.1693,,,,
18603,10.1002/adma.201605887,1968,7(c),2987,y=0.14_KL,Sn0.89Mn0.14Te(Cu2Te)0.05,600,,,,1.0734,,,,
18603,10.1002/adma.201605887,1968,7(c),2987,y=0.14_KL,Sn0.89Mn0.14Te(Cu2Te)0.05,650,,,,0.98111,,,,
18603,10.1002/adma.201605887,1968,7(c),2987,y=0.14_KL,Sn0.89Mn0.14Te(Cu2Te)0.05,700,,,,0.89894,,,,
18603,10.1002/adma.201605887,1968,7(c),2987,y=0.14_KL,Sn0.89Mn0.14Te(Cu2Te)0.05,750,,,,0.82951,,,,
18603,10.1002/adma.201605887,1968,7(c),2987,y=0.14_KL,Sn0.89Mn0.14Te(Cu2Te)0.05,800,,,,0.76909,,,,
18603,10.1002/adma.201605887,1968,7(c),2987,y=0.14_KL,Sn0.89Mn0.14Te(Cu2Te)0.05,850,,,,0.70514,,,,
18603,10.1002/adma.201605887,1968,7(c),2987,y=0.14_KL,Sn0.89Mn0.14Te(Cu2Te)0.05,900,,,,0.61379,,,,
18603,10.1002/adma.201605887,1968,7(c),2988,y=0.14_4%Snexcess_KL,Sn0.93Mn0.14Te(Cu2Te)0.05,350,,,,1.5148,,,,
18603,10.1002/adma.201605887,1968,7(c),2988,y=0.14_4%Snexcess_KL,Sn0.93Mn0.14Te(Cu2Te)0.05,400,,,,1.4029,,,,
18603,10.1002/adma.201605887,1968,7(c),2988,y=0.14_4%Snexcess_KL,Sn0.93Mn0.14Te(Cu2Te)0.05,450,,,,1.3017,,,,
18603,10.1002/adma.201605887,1968,7(c),2988,y=0.14_4%Snexcess_KL,Sn0.93Mn0.14Te(Cu2Te)0.05,500,,,,1.2153,,,,
18603,10.1002/adma.201605887,1968,7(c),2988,y=0.14_4%Snexcess_KL,Sn0.93Mn0.14Te(Cu2Te)0.05,550,,,,1.1434,,,,
18603,10.1002/adma.201605887,1968,7(c),2988,y=0.14_4%Snexcess_KL,Sn0.93Mn0.14Te(Cu2Te)0.05,600,,,,1.0821,,,,
18603,10.1002/adma.201605887,1968,7(c),2988,y=0.14_4%Snexcess_KL,Sn0.93Mn0.14Te(Cu2Te)0.05,650,,,,1.0252,,,,
18603,10.1002/adma.201605887,1968,7(c),2988,y=0.14_4%Snexcess_KL,Sn0.93Mn0.14Te(Cu2Te)0.05,700,,,,0.96579,,,,
18603,10.1002/adma.201605887,1968,7(c),2988,y=0.14_4%Snexcess_KL,Sn0.93Mn0.14Te(Cu2Te)0.05,750,,,,0.89748,,,,
18603,10.1002/adma.201605887,1968,7(c),2988,y=0.14_4%Snexcess_KL,Sn0.93Mn0.14Te(Cu2Te)0.05,800,,,,0.81564,,,,
18603,10.1002/adma.201605887,1968,7(c),2988,y=0.14_4%Snexcess_KL,Sn0.93Mn0.14Te(Cu2Te)0.05,850,,,,0.71883,,,,
18603,10.1002/adma.201605887,1968,7(c),2988,y=0.14_4%Snexcess_KL,Sn0.93Mn0.14Te(Cu2Te)0.05,900,,,,0.61005,,,,
18603,10.1002/adma.201605887,1968,7(c),2989,y=0.14_5%Snexcess_KL,Sn0.94Mn0.14Te(Cu2Te)0.05,350,,,,1.6359,,,,
18603,10.1002/adma.201605887,1968,7(c),2989,y=0.14_5%Snexcess_KL,Sn0.94Mn0.14Te(Cu2Te)0.05,400,,,,1.5503,,,,
18603,10.1002/adma.201605887,1968,7(c),2989,y=0.14_5%Snexcess_KL,Sn0.94Mn0.14Te(Cu2Te)0.05,450,,,,1.45,,,,
18603,10.1002/adma.201605887,1968,7(c),2989,y=0.14_5%Snexcess_KL,Sn0.94Mn0.14Te(Cu2Te)0.05,500,,,,1.3351,,,,
18603,10.1002/adma.201605887,1968,7(c),2989,y=0.14_5%Snexcess_KL,Sn0.94Mn0.14Te(Cu2Te)0.05,550,,,,1.21,,,,
18603,10.1002/adma.201605887,1968,7(c),2989,y=0.14_5%Snexcess_KL,Sn0.94Mn0.14Te(Cu2Te)0.05,600,,,,1.0821,,,,
18603,10.1002/adma.201605887,1968,7(c),2989,y=0.14_5%Snexcess_KL,Sn0.94Mn0.14Te(Cu2Te)0.05,650,,,,0.96004,,,,
18603,10.1002/adma.201605887,1968,7(c),2989,y=0.14_5%Snexcess_KL,Sn0.94Mn0.14Te(Cu2Te)0.05,700,,,,0.85149,,,,
18603,10.1002/adma.201605887,1968,7(c),2989,y=0.14_5%Snexcess_KL,Sn0.94Mn0.14Te(Cu2Te)0.05,750,,,,0.7617,,,,
18603,10.1002/adma.201605887,1968,7(c),2989,y=0.14_5%Snexcess_KL,Sn0.94Mn0.14Te(Cu2Te)0.05,800,,,,0.69155,,,,
18603,10.1002/adma.201605887,1968,7(c),2989,y=0.14_5%Snexcess_KL,Sn0.94Mn0.14Te(Cu2Te)0.05,850,,,,0.63574,,,,
18603,10.1002/adma.201605887,1968,7(c),2989,y=0.14_5%Snexcess_KL,Sn0.94Mn0.14Te(Cu2Te)0.05,900,,,,0.58107,,,,
18603,10.1002/adma.201605887,26265,4(c),32931,Sn0.86Mn0.14Te(Cu2Te)0_ (nH = 1.2e20 cm^-3),undefined,350,,0.0070516,,,,,,
18603,10.1002/adma.201605887,26265,4(c),32931,Sn0.86Mn0.14Te(Cu2Te)0_ (nH = 1.2e20 cm^-3),undefined,400,,0.006365,,,,,,
18603,10.1002/adma.201605887,26265,4(c),32931,Sn0.86Mn0.14Te(Cu2Te)0_ (nH = 1.2e20 cm^-3),undefined,450,,0.0056784,,,,,,
18603,10.1002/adma.201605887,26265,4(c),32931,Sn0.86Mn0.14Te(Cu2Te)0_ (nH = 1.2e20 cm^-3),undefined,500,,0.0049918,,,,,,
18603,10.1002/adma.201605887,26265,4(c),32931,Sn0.86Mn0.14Te(Cu2Te)0_ (nH = 1.2e20 cm^-3),undefined,550,,0.0043052,,,,,,
18603,10.1002/adma.201605887,26265,4(c),32931,Sn0.86Mn0.14Te(Cu2Te)0_ (nH = 1.2e20 cm^-3),undefined,600,,0.0036186,,,,,,
18603,10.1002/adma.201605887,26265,4(c),32931,Sn0.86Mn0.14Te(Cu2Te)0_ (nH = 1.2e20 cm^-3),undefined,650,,0.002932,,,,,,
18603,10.1002/adma.201605887,26265,4(c),32931,Sn0.86Mn0.14Te(Cu2Te)0_ (nH = 1.2e20 cm^-3),undefined,700,,0.0022455,,,,,,
18603,10.1002/adma.201605887,26265,4(c),32931,Sn0.86Mn0.14Te(Cu2Te)0_ (nH = 1.2e20 cm^-3),undefined,750,,0.0015589,,,,,,
18603,10.1002/adma.201605887,26265,4(c),32931,Sn0.86Mn0.14Te(Cu2Te)0_ (nH = 1.2e20 cm^-3),undefined,800,,0.00087227,,,,,,
18603,10.1002/adma.201605887,26265,4(c),32931,Sn0.86Mn0.14Te(Cu2Te)0_ (nH = 1.2e20 cm^-3),undefined,850,,0.00018568,,,,,,
18603,10.1002/adma.201605887,26265,4(c),32932,Sn0.86Mn0.14Te(Cu2Te)0.01 (nH = 6.2e20 cm^-3),undefined,350,,0.0034263,,,,,,
18603,10.1002/adma.201605887,26265,4(c),32932,Sn0.86Mn0.14Te(Cu2Te)0.01 (nH = 6.2e20 cm^-3),undefined,400,,0.0031136,,,,,,
18603,10.1002/adma.201605887,26265,4(c),32932,Sn0.86Mn0.14Te(Cu2Te)0.01 (nH = 6.2e20 cm^-3),undefined,450,,0.0028009,,,,,,
18603,10.1002/adma.201605887,26265,4(c),32932,Sn0.86Mn0.14Te(Cu2Te)0.01 (nH = 6.2e20 cm^-3),undefined,500,,0.0024882,,,,,,
18603,10.1002/adma.201605887,26265,4(c),32932,Sn0.86Mn0.14Te(Cu2Te)0.01 (nH = 6.2e20 cm^-3),undefined,550,,0.0021755,,,,,,
18603,10.1002/adma.201605887,26265,4(c),32932,Sn0.86Mn0.14Te(Cu2Te)0.01 (nH = 6.2e20 cm^-3),undefined,600,,0.0018628,,,,,,
18603,10.1002/adma.201605887,26265,4(c),32932,Sn0.86Mn0.14Te(Cu2Te)0.01 (nH = 6.2e20 cm^-3),undefined,650,,0.0015501,,,,,,
18603,10.1002/adma.201605887,26265,4(c),32932,Sn0.86Mn0.14Te(Cu2Te)0.01 (nH = 6.2e20 cm^-3),undefined,700,,0.0012374,,,,,,
18603,10.1002/adma.201605887,26265,4(c),32932,Sn0.86Mn0.14Te(Cu2Te)0.01 (nH = 6.2e20 cm^-3),undefined,750,,0.00092464,,,,,,
18603,10.1002/adma.201605887,26265,4(c),32932,Sn0.86Mn0.14Te(Cu2Te)0.01 (nH = 6.2e20 cm^-3),undefined,800,,0.00061194,,,,,,
18603,10.1002/adma.201605887,26265,4(c),32932,Sn0.86Mn0.14Te(Cu2Te)0.01 (nH = 6.2e20 cm^-3),undefined,850,,0.00029923,,,,,,
18603,10.1002/adma.201605887,26265,4(c),32933,Sn0.86Mn0.14Te(Cu2Te)0.03 (nH = 8.2e20 cm^-3),undefined,350,,0.0028595,,,,,,
18603,10.1002/adma.201605887,26265,4(c),32933,Sn0.86Mn0.14Te(Cu2Te)0.03 (nH = 8.2e20 cm^-3),undefined,400,,0.0025896,,,,,,
18603,10.1002/adma.201605887,26265,4(c),32933,Sn0.86Mn0.14Te(Cu2Te)0.03 (nH = 8.2e20 cm^-3),undefined,450,,0.0023196,,,,,,
18603,10.1002/adma.201605887,26265,4(c),32933,Sn0.86Mn0.14Te(Cu2Te)0.03 (nH = 8.2e20 cm^-3),undefined,500,,0.0020497,,,,,,
18603,10.1002/adma.201605887,26265,4(c),32933,Sn0.86Mn0.14Te(Cu2Te)0.03 (nH = 8.2e20 cm^-3),undefined,550,,0.0017798,,,,,,
18603,10.1002/adma.201605887,26265,4(c),32933,Sn0.86Mn0.14Te(Cu2Te)0.03 (nH = 8.2e20 cm^-3),undefined,600,,0.0015098,,,,,,
18603,10.1002/adma.201605887,26265,4(c),32933,Sn0.86Mn0.14Te(Cu2Te)0.03 (nH = 8.2e20 cm^-3),undefined,650,,0.0012399,,,,,,
18603,10.1002/adma.201605887,26265,4(c),32933,Sn0.86Mn0.14Te(Cu2Te)0.03 (nH = 8.2e20 cm^-3),undefined,700,,0.00096995,,,,,,
18603,10.1002/adma.201605887,26265,4(c),32933,Sn0.86Mn0.14Te(Cu2Te)0.03 (nH = 8.2e20 cm^-3),undefined,750,,0.00070001,,,,,,
18603,10.1002/adma.201605887,26265,4(c),32933,Sn0.86Mn0.14Te(Cu2Te)0.03 (nH = 8.2e20 cm^-3),undefined,800,,0.00043007,,,,,,
18603,10.1002/adma.201605887,26265,4(c),32933,Sn0.86Mn0.14Te(Cu2Te)0.03 (nH = 8.2e20 cm^-3),undefined,850,,0.00016013,,,,,,
18603,10.1002/adma.201605887,26265,4(c),32934,Sn0.86Mn0.14Te(Cu2Te)0.04 (nH = 5.5e20 cm^-3),undefined,350,,0.003657,,,,,,
18603,10.1002/adma.201605887,26265,4(c),32934,Sn0.86Mn0.14Te(Cu2Te)0.04 (nH = 5.5e20 cm^-3),undefined,400,,0.0033311,,,,,,
18603,10.1002/adma.201605887,26265,4(c),32934,Sn0.86Mn0.14Te(Cu2Te)0.04 (nH = 5.5e20 cm^-3),undefined,450,,0.0030052,,,,,,
18603,10.1002/adma.201605887,26265,4(c),32934,Sn0.86Mn0.14Te(Cu2Te)0.04 (nH = 5.5e20 cm^-3),undefined,500,,0.0026793,,,,,,
18603,10.1002/adma.201605887,26265,4(c),32934,Sn0.86Mn0.14Te(Cu2Te)0.04 (nH = 5.5e20 cm^-3),undefined,550,,0.0023534,,,,,,
18603,10.1002/adma.201605887,26265,4(c),32934,Sn0.86Mn0.14Te(Cu2Te)0.04 (nH = 5.5e20 cm^-3),undefined,600,,0.0020275,,,,,,
18603,10.1002/adma.201605887,26265,4(c),32934,Sn0.86Mn0.14Te(Cu2Te)0.04 (nH = 5.5e20 cm^-3),undefined,650,,0.0017016,,,,,,
18603,10.1002/adma.201605887,26265,4(c),32934,Sn0.86Mn0.14Te(Cu2Te)0.04 (nH = 5.5e20 cm^-3),undefined,700,,0.0013757,,,,,,
18603,10.1002/adma.201605887,26265,4(c),32934,Sn0.86Mn0.14Te(Cu2Te)0.04 (nH = 5.5e20 cm^-3),undefined,750,,0.0010498,,,,,,
18603,10.1002/adma.201605887,26265,4(c),32934,Sn0.86Mn0.14Te(Cu2Te)0.04 (nH = 5.5e20 cm^-3),undefined,800,,0.00072386,,,,,,
18603,10.1002/adma.201605887,26265,4(c),32934,Sn0.86Mn0.14Te(Cu2Te)0.04 (nH = 5.5e20 cm^-3),undefined,850,,0.00039796,,,,,,
18603,10.1002/adma.201605887,26265,4(c),32935,Sn0.86Mn0.14Te(Cu2Te)0.05 (nH = 3.6e20 cm^-3),undefined,350,,0.0065038,,,,,,
18603,10.1002/adma.201605887,26265,4(c),32935,Sn0.86Mn0.14Te(Cu2Te)0.05 (nH = 3.6e20 cm^-3),undefined,400,,0.0059295,,,,,,
18603,10.1002/adma.201605887,26265,4(c),32935,Sn0.86Mn0.14Te(Cu2Te)0.05 (nH = 3.6e20 cm^-3),undefined,450,,0.0053553,,,,,,
18603,10.1002/adma.201605887,26265,4(c),32935,Sn0.86Mn0.14Te(Cu2Te)0.05 (nH = 3.6e20 cm^-3),undefined,500,,0.004781,,,,,,
18603,10.1002/adma.201605887,26265,4(c),32935,Sn0.86Mn0.14Te(Cu2Te)0.05 (nH = 3.6e20 cm^-3),undefined,550,,0.0042068,,,,,,
18603,10.1002/adma.201605887,26265,4(c),32935,Sn0.86Mn0.14Te(Cu2Te)0.05 (nH = 3.6e20 cm^-3),undefined,600,,0.0036325,,,,,,
18603,10.1002/adma.201605887,26265,4(c),32935,Sn0.86Mn0.14Te(Cu2Te)0.05 (nH = 3.6e20 cm^-3),undefined,650,,0.0030583,,,,,,
18603,10.1002/adma.201605887,26265,4(c),32935,Sn0.86Mn0.14Te(Cu2Te)0.05 (nH = 3.6e20 cm^-3),undefined,700,,0.0024841,,,,,,
18603,10.1002/adma.201605887,26265,4(c),32935,Sn0.86Mn0.14Te(Cu2Te)0.05 (nH = 3.6e20 cm^-3),undefined,750,,0.0019098,,,,,,
18603,10.1002/adma.201605887,26265,4(c),32935,Sn0.86Mn0.14Te(Cu2Te)0.05 (nH = 3.6e20 cm^-3),undefined,800,,0.0013356,,,,,,
18603,10.1002/adma.201605887,26265,4(c),32935,Sn0.86Mn0.14Te(Cu2Te)0.05 (nH = 3.6e20 cm^-3),undefined,850,,0.00076133,,,,,,
18603,10.1002/adma.201605887,26265,4(c),32936,Sn0.86Mn0.14Te(Cu2Te)0.05 (nH = 1.4e20 cm^-3),undefined,350,,0.0074246,,,,,,
18603,10.1002/adma.201605887,26265,4(c),32936,Sn0.86Mn0.14Te(Cu2Te)0.05 (nH = 1.4e20 cm^-3),undefined,400,,0.006699,,,,,,
18603,10.1002/adma.201605887,26265,4(c),32936,Sn0.86Mn0.14Te(Cu2Te)0.05 (nH = 1.4e20 cm^-3),undefined,450,,0.0059734,,,,,,
18603,10.1002/adma.201605887,26265,4(c),32936,Sn0.86Mn0.14Te(Cu2Te)0.05 (nH = 1.4e20 cm^-3),undefined,500,,0.0052478,,,,,,
18603,10.1002/adma.201605887,26265,4(c),32936,Sn0.86Mn0.14Te(Cu2Te)0.05 (nH = 1.4e20 cm^-3),undefined,550,,0.0045222,,,,,,
18603,10.1002/adma.201605887,26265,4(c),32936,Sn0.86Mn0.14Te(Cu2Te)0.05 (nH = 1.4e20 cm^-3),undefined,600,,0.0037967,,,,,,
18603,10.1002/adma.201605887,26265,4(c),32936,Sn0.86Mn0.14Te(Cu2Te)0.05 (nH = 1.4e20 cm^-3),undefined,650,,0.0030711,,,,,,
18603,10.1002/adma.201605887,26265,4(c),32936,Sn0.86Mn0.14Te(Cu2Te)0.05 (nH = 1.4e20 cm^-3),undefined,700,,0.0023455,,,,,,
18603,10.1002/adma.201605887,26265,4(c),32936,Sn0.86Mn0.14Te(Cu2Te)0.05 (nH = 1.4e20 cm^-3),undefined,750,,0.0016199,,,,,,
18603,10.1002/adma.201605887,26265,4(c),32936,Sn0.86Mn0.14Te(Cu2Te)0.05 (nH = 1.4e20 cm^-3),undefined,800,,0.00089432,,,,,,
18603,10.1002/adma.201605887,26265,4(c),32936,Sn0.86Mn0.14Te(Cu2Te)0.05 (nH = 1.4e20 cm^-3),undefined,850,,0.00016874,,,,,,
18603,10.1002/adma.201605887,26265,4(c),32937,Sn0.86Mn0.14Te(Cu2Te)0.05 (nH = 1.2e20 cm^-3),undefined,350,,0.0094224,,,,,,
18603,10.1002/adma.201605887,26265,4(c),32937,Sn0.86Mn0.14Te(Cu2Te)0.05 (nH = 1.2e20 cm^-3),undefined,400,,0.0084873,,,,,,
18603,10.1002/adma.201605887,26265,4(c),32937,Sn0.86Mn0.14Te(Cu2Te)0.05 (nH = 1.2e20 cm^-3),undefined,450,,0.0075523,,,,,,
18603,10.1002/adma.201605887,26265,4(c),32937,Sn0.86Mn0.14Te(Cu2Te)0.05 (nH = 1.2e20 cm^-3),undefined,500,,0.0066172,,,,,,
18603,10.1002/adma.201605887,26265,4(c),32937,Sn0.86Mn0.14Te(Cu2Te)0.05 (nH = 1.2e20 cm^-3),undefined,550,,0.0056822,,,,,,
18603,10.1002/adma.201605887,26265,4(c),32937,Sn0.86Mn0.14Te(Cu2Te)0.05 (nH = 1.2e20 cm^-3),undefined,600,,0.0047471,,,,,,
18603,10.1002/adma.201605887,26265,4(c),32937,Sn0.86Mn0.14Te(Cu2Te)0.05 (nH = 1.2e20 cm^-3),undefined,650,,0.0038121,,,,,,
18603,10.1002/adma.201605887,26265,4(c),32937,Sn0.86Mn0.14Te(Cu2Te)0.05 (nH = 1.2e20 cm^-3),undefined,700,,0.002877,,,,,,
18603,10.1002/adma.201605887,26265,4(c),32937,Sn0.86Mn0.14Te(Cu2Te)0.05 (nH = 1.2e20 cm^-3),undefined,750,,0.001942,,,,,,
18603,10.1002/adma.201605887,26265,4(c),32937,Sn0.86Mn0.14Te(Cu2Te)0.05 (nH = 1.2e20 cm^-3),undefined,800,,0.0010069,,,,,,
18603,10.1002/adma.201605887,26265,4(c),32937,Sn0.86Mn0.14Te(Cu2Te)0.05 (nH = 1.2e20 cm^-3),undefined,850,,0.000071889,,,,,,
18603,10.1002/adma.201605887,26266,4(d),32938,Sn(1.03-y)MnyTe(Cu2Te)0.05_ y=0.03 (nH = 2.3e20 cm^-3),undefined,350,,0.014644,,,,,,
18603,10.1002/adma.201605887,26266,4(d),32938,Sn(1.03-y)MnyTe(Cu2Te)0.05_ y=0.03 (nH = 2.3e20 cm^-3),undefined,400,,0.013501,,,,,,
18603,10.1002/adma.201605887,26266,4(d),32938,Sn(1.03-y)MnyTe(Cu2Te)0.05_ y=0.03 (nH = 2.3e20 cm^-3),undefined,450,,0.012357,,,,,,
18603,10.1002/adma.201605887,26266,4(d),32938,Sn(1.03-y)MnyTe(Cu2Te)0.05_ y=0.03 (nH = 2.3e20 cm^-3),undefined,500,,0.011214,,,,,,
18603,10.1002/adma.201605887,26266,4(d),32938,Sn(1.03-y)MnyTe(Cu2Te)0.05_ y=0.03 (nH = 2.3e20 cm^-3),undefined,550,,0.010071,,,,,,
18603,10.1002/adma.201605887,26266,4(d),32938,Sn(1.03-y)MnyTe(Cu2Te)0.05_ y=0.03 (nH = 2.3e20 cm^-3),undefined,600,,0.0089283,,,,,,
18603,10.1002/adma.201605887,26266,4(d),32938,Sn(1.03-y)MnyTe(Cu2Te)0.05_ y=0.03 (nH = 2.3e20 cm^-3),undefined,650,,0.0077853,,,,,,
18603,10.1002/adma.201605887,26266,4(d),32938,Sn(1.03-y)MnyTe(Cu2Te)0.05_ y=0.03 (nH = 2.3e20 cm^-3),undefined,700,,0.0066422,,,,,,
18603,10.1002/adma.201605887,26266,4(d),32938,Sn(1.03-y)MnyTe(Cu2Te)0.05_ y=0.03 (nH = 2.3e20 cm^-3),undefined,750,,0.0054991,,,,,,
18603,10.1002/adma.201605887,26266,4(d),32938,Sn(1.03-y)MnyTe(Cu2Te)0.05_ y=0.03 (nH = 2.3e20 cm^-3),undefined,800,,0.0043561,,,,,,
18603,10.1002/adma.201605887,26266,4(d),32938,Sn(1.03-y)MnyTe(Cu2Te)0.05_ y=0.03 (nH = 2.3e20 cm^-3),undefined,850,,0.003213,,,,,,
18603,10.1002/adma.201605887,26266,4(d),32939,Sn(1.03-y)MnyTe(Cu2Te)0.05_ y=0.06 (nH = 1.9e20 cm^-3),undefined,350,,0.014658,,,,,,
18603,10.1002/adma.201605887,26266,4(d),32939,Sn(1.03-y)MnyTe(Cu2Te)0.05_ y=0.06 (nH = 1.9e20 cm^-3),undefined,400,,0.01337,,,,,,
18603,10.1002/adma.201605887,26266,4(d),32939,Sn(1.03-y)MnyTe(Cu2Te)0.05_ y=0.06 (nH = 1.9e20 cm^-3),undefined,450,,0.012083,,,,,,
18603,10.1002/adma.201605887,26266,4(d),32939,Sn(1.03-y)MnyTe(Cu2Te)0.05_ y=0.06 (nH = 1.9e20 cm^-3),undefined,500,,0.010795,,,,,,
18603,10.1002/adma.201605887,26266,4(d),32939,Sn(1.03-y)MnyTe(Cu2Te)0.05_ y=0.06 (nH = 1.9e20 cm^-3),undefined,550,,0.0095073,,,,,,
18603,10.1002/adma.201605887,26266,4(d),32939,Sn(1.03-y)MnyTe(Cu2Te)0.05_ y=0.06 (nH = 1.9e20 cm^-3),undefined,600,,0.0082196,,,,,,
18603,10.1002/adma.201605887,26266,4(d),32939,Sn(1.03-y)MnyTe(Cu2Te)0.05_ y=0.06 (nH = 1.9e20 cm^-3),undefined,650,,0.0069319,,,,,,
18603,10.1002/adma.201605887,26266,4(d),32939,Sn(1.03-y)MnyTe(Cu2Te)0.05_ y=0.06 (nH = 1.9e20 cm^-3),undefined,700,,0.0056442,,,,,,
18603,10.1002/adma.201605887,26266,4(d),32939,Sn(1.03-y)MnyTe(Cu2Te)0.05_ y=0.06 (nH = 1.9e20 cm^-3),undefined,750,,0.0043565,,,,,,
18603,10.1002/adma.201605887,26266,4(d),32939,Sn(1.03-y)MnyTe(Cu2Te)0.05_ y=0.06 (nH = 1.9e20 cm^-3),undefined,800,,0.0030688,,,,,,
18603,10.1002/adma.201605887,26266,4(d),32939,Sn(1.03-y)MnyTe(Cu2Te)0.05_ y=0.06 (nH = 1.9e20 cm^-3),undefined,850,,0.0017811,,,,,,
18603,10.1002/adma.201605887,26266,4(d),32940,Sn(1.03-y)MnyTe(Cu2Te)0.05_ y=0.09 (nH = 1.4e20 cm^-3),undefined,350,,0.014016,,,,,,
18603,10.1002/adma.201605887,26266,4(d),32940,Sn(1.03-y)MnyTe(Cu2Te)0.05_ y=0.09 (nH = 1.4e20 cm^-3),undefined,400,,0.012664,,,,,,
18603,10.1002/adma.201605887,26266,4(d),32940,Sn(1.03-y)MnyTe(Cu2Te)0.05_ y=0.09 (nH = 1.4e20 cm^-3),undefined,450,,0.011312,,,,,,
18603,10.1002/adma.201605887,26266,4(d),32940,Sn(1.03-y)MnyTe(Cu2Te)0.05_ y=0.09 (nH = 1.4e20 cm^-3),undefined,500,,0.0099593,,,,,,