sid,DOI,figureid,fignum,sampleid,samplename,composition,Temperature,Carrier concentration,Electrical resistivity,Hall movility,Lattice thermal conductivity,Seebeck coefficient,ZT,Electrical conductivity,Power factor
27920,10.1016/j.jallcom.2018.04.214,25321,3(b),31550,Cu4Mn2Te4,undefined,300,1.5511e+27,,,,,-0.03384,,
27920,10.1016/j.jallcom.2018.04.214,25321,3(b),31550,Cu4Mn2Te4,undefined,350,1.6124e+27,0.0000048451,0.00067221,0.78653,0.000037239,0.013972,206394.0888732946,0.0002862156
27920,10.1016/j.jallcom.2018.04.214,25321,3(b),31550,Cu4Mn2Te4,undefined,400,1.6738e+27,0.0000059032,0.0006187,0.72618,0.000044518,0.061784,169399.6476487329,0.0003357251
27920,10.1016/j.jallcom.2018.04.214,25321,3(b),31550,Cu4Mn2Te4,undefined,450,1.7351e+27,0.0000069612,0.00056519,0.66583,0.000051892,0.1096,143653.3930931448,0.0003868269
27920,10.1016/j.jallcom.2018.04.214,25321,3(b),31550,Cu4Mn2Te4,undefined,500,1.7965e+27,0.0000080193,0.00051169,0.60548,0.000059361,0.15741,124699.1632686145,0.000439406
27920,10.1016/j.jallcom.2018.04.214,25321,3(b),31550,Cu4Mn2Te4,undefined,550,1.8578e+27,0.0000090773,0.00045818,0.54513,0.000066925,0.20522,110164.9168805702,0.0004934238
27920,10.1016/j.jallcom.2018.04.214,25321,3(b),31550,Cu4Mn2Te4,undefined,600,1.9191e+27,0.000010135,0.00040468,0.48478,0.000074584,0.25303,98667.9822397632,0.0005488676
27920,10.1016/j.jallcom.2018.04.214,25321,3(b),31550,Cu4Mn2Te4,undefined,650,1.9805e+27,0.000011193,0.00035117,0.42443,0.000082337,0.30085,89341.5527561869,0.0006056805
27920,10.1016/j.jallcom.2018.04.214,25321,3(b),31550,Cu4Mn2Te4,undefined,700,2.0418e+27,0.000012251,0.00029766,0.36408,0.000090186,0.34866,81625.9897151253,0.0006639062
27920,10.1016/j.jallcom.2018.04.214,25321,3(b),31550,Cu4Mn2Te4,undefined,750,2.1031e+27,0.000013309,0.00024416,0.30374,0.00009813,0.39647,75137.1252535878,0.0007235327
27920,10.1016/j.jallcom.2018.04.214,25321,3(b),31550,Cu4Mn2Te4,undefined,800,2.1645e+27,0.000014368,0.00019065,0.24339,0.00010617,0.44428,69599.1091314031,0.000784526
27920,10.1016/j.jallcom.2018.04.214,25330,5(b),31550,Cu4Mn2Te4,undefined,850,,,,0.18304,,0.49209,,
27920,10.1016/j.jallcom.2018.04.214,25321,3(b),31551,Cu4.1Mn2Te4,undefined,350,1.4594e+27,0.0000054181,0.00065495,0.73101,0.000035607,0.014698,184566.5454679685,0.0002340043
27920,10.1016/j.jallcom.2018.04.214,25321,3(b),31551,Cu4.1Mn2Te4,undefined,400,1.5923e+27,0.0000062753,0.00059901,0.68121,0.00004236,0.054187,159354.9312383472,0.0002859416
27920,10.1016/j.jallcom.2018.04.214,25321,3(b),31551,Cu4.1Mn2Te4,undefined,450,1.7252e+27,0.0000071326,0.00054308,0.6314,0.000049114,0.093676,140201.3291086,0.0003381915
27920,10.1016/j.jallcom.2018.04.214,25321,3(b),31551,Cu4.1Mn2Te4,undefined,500,1.8581e+27,0.0000079898,0.00048714,0.58159,0.000055868,0.13316,125159.5784625398,0.0003906523
27920,10.1016/j.jallcom.2018.04.214,25321,3(b),31551,Cu4.1Mn2Te4,undefined,550,1.991e+27,0.0000088471,0.00043121,0.53179,0.000062622,0.17265,113031.3888166744,0.0004432543
27920,10.1016/j.jallcom.2018.04.214,25321,3(b),31551,Cu4.1Mn2Te4,undefined,600,2.124e+27,0.0000097043,0.00037527,0.48198,0.000069375,0.21214,103047.1028307039,0.0004959544
27920,10.1016/j.jallcom.2018.04.214,25321,3(b),31551,Cu4.1Mn2Te4,undefined,650,2.2569e+27,0.000010562,0.00031934,0.43218,0.000076129,0.25163,94679.0380609733,0.0005487242
27920,10.1016/j.jallcom.2018.04.214,25321,3(b),31551,Cu4.1Mn2Te4,undefined,700,2.3898e+27,0.000011419,0.0002634,0.38237,0.000082883,0.29112,87573.3426744899,0.0006015931
27920,10.1016/j.jallcom.2018.04.214,25321,3(b),31551,Cu4.1Mn2Te4,undefined,750,2.5227e+27,0.000012276,0.00020747,0.33256,0.000089636,0.33061,81459.7588791137,0.0006544976
27920,10.1016/j.jallcom.2018.04.214,25324,3(c),31551,Cu4.1Mn2Te4,undefined,800,,0.000013133,0.00015154,0.28276,0.00009639,0.3701,76144.0645701668,0.0007074569
27920,10.1016/j.jallcom.2018.04.214,25330,5(b),31551,Cu4.1Mn2Te4,undefined,300,,,,0.78082,,-0.024791,,
27920,10.1016/j.jallcom.2018.04.214,25330,5(b),31551,Cu4.1Mn2Te4,undefined,850,,,,0.23295,,0.40959,,
27920,10.1016/j.jallcom.2018.04.214,25321,3(b),31552,Cu4.3Mn2Te4,undefined,350,1.351e+27,0.0000054688,0.0005554,0.6833,0.000034483,0.006149,182855.4710356934,0.0002174293
27920,10.1016/j.jallcom.2018.04.214,25321,3(b),31552,Cu4.3Mn2Te4,undefined,400,1.4618e+27,0.0000064413,0.00051265,0.64305,0.000041969,0.050175,155248.1641904585,0.0002734536
27920,10.1016/j.jallcom.2018.04.214,25321,3(b),31552,Cu4.3Mn2Te4,undefined,450,1.5726e+27,0.0000074138,0.00046989,0.60279,0.000049454,0.0942,134883.5954571205,0.0003298846
27920,10.1016/j.jallcom.2018.04.214,25321,3(b),31552,Cu4.3Mn2Te4,undefined,500,1.6835e+27,0.0000083864,0.00042714,0.56254,0.000056939,0.13823,119240.6753791854,0.0003865842
27920,10.1016/j.jallcom.2018.04.214,25321,3(b),31552,Cu4.3Mn2Te4,undefined,550,1.7943e+27,0.0000093589,0.00038438,0.52228,0.000064425,0.18225,106850.1640150018,0.0004434902
27920,10.1016/j.jallcom.2018.04.214,25321,3(b),31552,Cu4.3Mn2Te4,undefined,600,1.9051e+27,0.000010331,0.00034163,0.48203,0.00007191,0.22628,96796.0507211306,0.000500537
27920,10.1016/j.jallcom.2018.04.214,25321,3(b),31552,Cu4.3Mn2Te4,undefined,650,2.0159e+27,0.000011304,0.00029887,0.44177,0.000079395,0.2703,88464.2604387827,0.0005576403
27920,10.1016/j.jallcom.2018.04.214,25321,3(b),31552,Cu4.3Mn2Te4,undefined,700,2.1267e+27,0.000012277,0.00025611,0.40151,0.000086881,0.31433,81453.123727295,0.0006148333
27920,10.1016/j.jallcom.2018.04.214,25321,3(b),31552,Cu4.3Mn2Te4,undefined,750,2.2375e+27,0.000013249,0.00021336,0.36126,0.000094366,0.35835,75477.3945203412,0.0006721218
27920,10.1016/j.jallcom.2018.04.214,25321,3(b),31552,Cu4.3Mn2Te4,undefined,800,2.3484e+27,0.000014222,0.0001706,0.321,0.00010185,0.40238,70313.5986499789,0.0007293927
27920,10.1016/j.jallcom.2018.04.214,25330,5(b),31552,Cu4.3Mn2Te4,undefined,300,,,,0.72356,,-0.037877,,
27920,10.1016/j.jallcom.2018.04.214,25330,5(b),31552,Cu4.3Mn2Te4,undefined,850,,,,0.28075,,,,
27920,10.1016/j.jallcom.2018.04.214,25321,3(b),31553,Cu3.7Zn0.3Mn2Te4,undefined,350,1.1332e+27,0.0000070917,0.00066854,1.1442,0.000048905,0.024022,141009.9129968837,0.0003372533
27920,10.1016/j.jallcom.2018.04.214,25321,3(b),31553,Cu3.7Zn0.3Mn2Te4,undefined,400,1.2146e+27,0.0000086489,0.00060525,1.0615,0.000056676,0.073788,115621.6397460949,0.0003713962
27920,10.1016/j.jallcom.2018.04.214,25321,3(b),31553,Cu3.7Zn0.3Mn2Te4,undefined,450,1.2961e+27,0.000010206,0.00054196,0.97875,0.000065042,0.12355,97981.5794630609,0.0004145073
27920,10.1016/j.jallcom.2018.04.214,25321,3(b),31553,Cu3.7Zn0.3Mn2Te4,undefined,500,1.3776e+27,0.000011763,0.00047867,0.89601,0.000073681,0.17332,85012.3267873842,0.0004615226
27920,10.1016/j.jallcom.2018.04.214,25321,3(b),31553,Cu3.7Zn0.3Mn2Te4,undefined,550,1.459e+27,0.000013321,0.00041538,0.81328,0.000082346,0.22308,75069.4392312889,0.0005090356
27920,10.1016/j.jallcom.2018.04.214,25321,3(b),31553,Cu3.7Zn0.3Mn2Te4,undefined,600,1.5405e+27,0.000014878,0.00035209,0.73054,0.000090863,0.27285,67213.3351256889,0.000554919
27920,10.1016/j.jallcom.2018.04.214,25321,3(b),31553,Cu3.7Zn0.3Mn2Te4,undefined,650,1.622e+27,0.000016435,0.0002888,0.6478,0.000099132,0.32262,60845.7560085184,0.0005979406
27920,10.1016/j.jallcom.2018.04.214,25321,3(b),31553,Cu3.7Zn0.3Mn2Te4,undefined,700,1.7034e+27,0.000017992,0.00022551,0.56506,0.00010713,0.37238,55580.2578923966,0.0006378856
27920,10.1016/j.jallcom.2018.04.214,25321,3(b),31553,Cu3.7Zn0.3Mn2Te4,undefined,750,1.7849e+27,0.000019549,0.00016222,0.48232,0.00011489,0.42215,51153.5116885774,0.0006752116
27920,10.1016/j.jallcom.2018.04.214,25321,3(b),31553,Cu3.7Zn0.3Mn2Te4,undefined,800,1.8664e+27,0.000021107,0.000098927,0.39958,0.00012255,0.47191,47377.6472260388,0.0007115413
27920,10.1016/j.jallcom.2018.04.214,25330,5(b),31553,Cu3.7Zn0.3Mn2Te4,undefined,850,,,,0.31685,,,,
27920,10.1016/j.jallcom.2018.04.214,25331,6(a),31553,Cu3.7Zn0.3Mn2Te4,undefined,300,,,,,,-0.025743,,
27920,10.1016/j.jallcom.2018.04.214,25321,3(b),31554,Cu4Mn1.7Fe0.3Te4,undefined,350,9.7101e+26,0.0000059699,0.00087077,0.80031,0.000036866,0.0073428,167506.9934169752,0.0002276591
27920,10.1016/j.jallcom.2018.04.214,25321,3(b),31554,Cu4Mn1.7Fe0.3Te4,undefined,400,1.0945e+27,0.0000072096,0.00078682,0.74803,0.000044747,0.053281,138703.9502885042,0.0002777261
27920,10.1016/j.jallcom.2018.04.214,25321,3(b),31554,Cu4Mn1.7Fe0.3Te4,undefined,450,1.218e+27,0.0000084492,0.00070287,0.69575,0.000052628,0.09922,118354.4004166075,0.0003278069
27920,10.1016/j.jallcom.2018.04.214,25321,3(b),31554,Cu4Mn1.7Fe0.3Te4,undefined,500,1.3415e+27,0.0000096888,0.00061892,0.64346,0.000060509,0.14516,103211.9560729915,0.000377894
27920,10.1016/j.jallcom.2018.04.214,25321,3(b),31554,Cu4Mn1.7Fe0.3Te4,undefined,550,1.4651e+27,0.000010928,0.00053497,0.59118,0.00006839,0.1911,91508.0527086384,0.0004280007
27920,10.1016/j.jallcom.2018.04.214,25321,3(b),31554,Cu4Mn1.7Fe0.3Te4,undefined,600,1.5886e+27,0.000012168,0.00045101,0.5389,0.000076271,0.23704,82182.7744904668,0.000478079
27920,10.1016/j.jallcom.2018.04.214,25321,3(b),31554,Cu4Mn1.7Fe0.3Te4,undefined,650,1.7121e+27,0.000013408,0.00036706,0.48661,0.000084152,0.28297,74582.338902148,0.0005281592
27920,10.1016/j.jallcom.2018.04.214,25321,3(b),31554,Cu4Mn1.7Fe0.3Te4,undefined,700,1.8356e+27,0.000014647,0.00028311,0.43433,0.000092033,0.32891,68273.3665597051,0.0005782804
27920,10.1016/j.jallcom.2018.04.214,25321,3(b),31554,Cu4Mn1.7Fe0.3Te4,undefined,750,1.9591e+27,0.000015887,0.00019916,0.38205,0.000099914,0.37485,62944.5458551017,0.0006283633
27920,10.1016/j.jallcom.2018.04.214,25321,3(b),31554,Cu4Mn1.7Fe0.3Te4,undefined,800,2.0826e+27,0.000017127,0.00011521,0.32976,0.00010779,0.42079,58387.3416243358,0.0006783841
27920,10.1016/j.jallcom.2018.04.214,25330,5(b),31554,Cu4Mn1.7Fe0.3Te4,undefined,850,,,,0.27748,,0.46673,,
27920,10.1016/j.jallcom.2018.04.214,25331,6(a),31554,Cu4Mn1.7Fe0.3Te4,undefined,300,,,,,,-0.038596,,
27920,10.1016/j.jallcom.2018.04.214,25326,4(a),31558,Pristine Cu4Mn2Te4,undefined,350,,0.0000055532,,,0.000031352,0.013201,180076.3523734063,0.0001770057
27920,10.1016/j.jallcom.2018.04.214,25326,4(a),31558,Pristine Cu4Mn2Te4,undefined,400,,0.0000060291,,,0.000036448,0.034898,165862.2348277521,0.0002203408
27920,10.1016/j.jallcom.2018.04.214,25326,4(a),31558,Pristine Cu4Mn2Te4,undefined,450,,0.0000065049,,,0.000041544,0.056595,153730.2648772464,0.0002653237
27920,10.1016/j.jallcom.2018.04.214,25326,4(a),31558,Pristine Cu4Mn2Te4,undefined,500,,0.0000069808,,,0.000046639,0.078292,143250.0573000229,0.000311597
27920,10.1016/j.jallcom.2018.04.214,25326,4(a),31558,Pristine Cu4Mn2Te4,undefined,550,,0.0000074566,,,0.000051735,0.09999,134109.3796100099,0.0003589451
27920,10.1016/j.jallcom.2018.04.214,25326,4(a),31558,Pristine Cu4Mn2Te4,undefined,600,,0.0000079325,,,0.000056831,0.12169,126063.6621493854,0.0004071557
27920,10.1016/j.jallcom.2018.04.214,25326,4(a),31558,Pristine Cu4Mn2Te4,undefined,650,,0.0000084083,,,0.000061926,0.14338,118930.1047774223,0.0004560767
27920,10.1016/j.jallcom.2018.04.214,25326,4(a),31558,Pristine Cu4Mn2Te4,undefined,700,,0.0000088842,,,0.000067022,0.16508,112559.3750703496,0.0005056109
27920,10.1016/j.jallcom.2018.04.214,25326,4(a),31558,Pristine Cu4Mn2Te4,undefined,750,,0.00000936,,,0.000072117,0.18678,106837.6068376068,0.0005556476
27920,10.1016/j.jallcom.2018.04.214,26253,6(e),32920,300 K,undefined,,9.5e+26,,0.00091216,,0.000039534,,,
27920,10.1016/j.jallcom.2018.04.214,26253,6(e),32920,300 K,undefined,,1e+27,,0.00089486,,0.000038635,,,
27920,10.1016/j.jallcom.2018.04.214,26253,6(e),32920,300 K,undefined,,1.05e+27,,0.00087756,,0.000037737,,,
27920,10.1016/j.jallcom.2018.04.214,26253,6(e),32920,300 K,undefined,,1.1e+27,,0.00086026,,0.000036839,,,
27920,10.1016/j.jallcom.2018.04.214,26253,6(e),32920,300 K,undefined,,1.15e+27,,0.00084296,,0.000035941,,,
27920,10.1016/j.jallcom.2018.04.214,26253,6(e),32920,300 K,undefined,,1.2e+27,,0.00082566,,0.000035043,,,
27920,10.1016/j.jallcom.2018.04.214,26253,6(e),32920,300 K,undefined,,1.25e+27,,0.00080836,,0.000034144,,,
27920,10.1016/j.jallcom.2018.04.214,26253,6(e),32920,300 K,undefined,,1.3e+27,,0.00079106,,0.000033246,,,
27920,10.1016/j.jallcom.2018.04.214,26253,6(e),32920,300 K,undefined,,1.35e+27,,0.00077375,,0.000032348,,,
27920,10.1016/j.jallcom.2018.04.214,26253,6(e),32920,300 K,undefined,,1.4e+27,,0.00075645,,0.00003145,,,
27920,10.1016/j.jallcom.2018.04.214,26253,6(e),32920,300 K,undefined,,1.45e+27,,0.00073915,,0.000030551,,,
27920,10.1016/j.jallcom.2018.04.214,26253,6(e),32920,300 K,undefined,,1.5e+27,,0.00072185,,0.000029653,,,
27920,10.1016/j.jallcom.2018.04.214,26253,6(e),32920,300 K,undefined,,1.55e+27,,0.00070455,,0.000028755,,,
27920,10.1016/j.jallcom.2018.04.214,26253,6(e),32921,550 K,undefined,,1.45e+27,,0.00041304,,0.000068473,,,
27920,10.1016/j.jallcom.2018.04.214,26253,6(e),32921,550 K,undefined,,1.5e+27,,0.00041481,,0.000067899,,,
27920,10.1016/j.jallcom.2018.04.214,26253,6(e),32921,550 K,undefined,,1.55e+27,,0.00041657,,0.000067324,,,
27920,10.1016/j.jallcom.2018.04.214,26253,6(e),32921,550 K,undefined,,1.6e+27,,0.00041833,,0.00006675,,,
27920,10.1016/j.jallcom.2018.04.214,26253,6(e),32921,550 K,undefined,,1.65e+27,,0.00042009,,0.000066175,,,
27920,10.1016/j.jallcom.2018.04.214,26253,6(e),32921,550 K,undefined,,1.7e+27,,0.00042185,,0.000065601,,,
27920,10.1016/j.jallcom.2018.04.214,26253,6(e),32921,550 K,undefined,,1.75e+27,,0.00042362,,0.000065027,,,
27920,10.1016/j.jallcom.2018.04.214,26253,6(e),32921,550 K,undefined,,1.8e+27,,0.00042538,,0.000064452,,,
27920,10.1016/j.jallcom.2018.04.214,26253,6(e),32921,550 K,undefined,,1.85e+27,,0.00042714,,0.000063878,,,
27920,10.1016/j.jallcom.2018.04.214,26253,6(e),32921,550 K,undefined,,1.9e+27,,0.0004289,,0.000063304,,,
27920,10.1016/j.jallcom.2018.04.214,26253,6(e),32921,550 K,undefined,,1.95e+27,,0.00043066,,0.000062729,,,
27920,10.1016/j.jallcom.2018.04.214,26253,6(e),32922,800 K,undefined,,1.85e+27,,0.00018013,,0.0001151,,,
27920,10.1016/j.jallcom.2018.04.214,26253,6(e),32922,800 K,undefined,,1.9e+27,,0.00018159,,0.000114,,,
27920,10.1016/j.jallcom.2018.04.214,26253,6(e),32922,800 K,undefined,,1.95e+27,,0.00018306,,0.00011289,,,
27920,10.1016/j.jallcom.2018.04.214,26253,6(e),32922,800 K,undefined,,2e+27,,0.00018453,,0.00011178,,,
27920,10.1016/j.jallcom.2018.04.214,26253,6(e),32922,800 K,undefined,,2.05e+27,,0.00018599,,0.00011068,,,
27920,10.1016/j.jallcom.2018.04.214,26253,6(e),32922,800 K,undefined,,2.1e+27,,0.00018746,,0.00010957,,,
27920,10.1016/j.jallcom.2018.04.214,26253,6(e),32922,800 K,undefined,,2.15e+27,,0.00018892,,0.00010846,,,
27920,10.1016/j.jallcom.2018.04.214,26253,6(e),32922,800 K,undefined,,2.2e+27,,0.00019039,,0.00010736,,,
27920,10.1016/j.jallcom.2018.04.214,26253,6(e),32922,800 K,undefined,,2.25e+27,,0.00019186,,0.00010625,,,
27920,10.1016/j.jallcom.2018.04.214,26253,6(e),32922,800 K,undefined,,2.3e+27,,0.00019332,,0.00010514,,,
27920,10.1016/j.jallcom.2018.04.214,26253,6(e),32922,800 K,undefined,,2.35e+27,,0.00019479,,0.00010404,,,
27920,10.1016/j.jallcom.2018.04.214,26253,6(e),32922,800 K,undefined,,2.4e+27,,0.00019626,,0.00010293,,,
27920,10.1016/j.jallcom.2018.04.214,26253,6(e),32922,800 K,undefined,,2.45e+27,,0.00019772,,0.00010182,,,
27920,10.1016/j.jallcom.2018.04.214,26253,6(e),32922,800 K,undefined,,2.5e+27,,0.00019919,,0.00010072,,,
27920,10.1016/j.jallcom.2018.04.214,26253,6(e),32922,800 K,undefined,,2.55e+27,,0.00020066,,0.000099611,,,
27920,10.1016/j.jallcom.2018.04.214,26253,6(e),32922,800 K,undefined,,2.6e+27,,0.00020212,,0.000098505,,,
27920,10.1016/j.jallcom.2018.04.214,26253,6(e),32922,800 K,undefined,,2.65e+27,,,,0.000097398,,,