sid,DOI,figureid,fignum,sampleid,samplename,composition,Temperature,Carrier concentration,Electrical conductivity,Electrical resistivity,Hall coefficient,Hall movility,Lattice thermal conductivity,Power factor,Seebeck coefficient,Thermal conductivity,ZT,total thermal conductivity,Figure of merit Z
27936,10.1021/acsami.7b08770,25512,4(a),31764,Sn1−xNaxS_ x=0,undefined,400,9.7053e+23,195.87,0.0051055,,,0.76835,0.000039417,0.0004486,0.80227,0.021374,,0.0000491318
27936,10.1021/acsami.7b08770,25512,4(a),31764,Sn1−xNaxS_ x=0,undefined,450,1.1252e+24,200.7,0.0049825,,,0.72196,0.000040783,0.00045078,0.751,0.030375,,0.0000543049
27936,10.1021/acsami.7b08770,25512,4(a),31764,Sn1−xNaxS_ x=0,undefined,500,1.2798e+24,205.79,0.0048594,,,0.67558,0.000042223,0.00045296,0.69973,0.039376,,0.0000603418
27936,10.1021/acsami.7b08770,25512,4(a),31764,Sn1−xNaxS_ x=0,undefined,550,1.4344e+24,211.13,0.0047364,,,0.6292,0.000043738,0.00045515,0.64847,0.048376,,0.000067448
27936,10.1021/acsami.7b08770,25512,4(a),31764,Sn1−xNaxS_ x=0,undefined,600,1.5891e+24,216.76,0.0046133,,,0.58281,0.000045336,0.00045733,0.5972,0.057377,,0.0000759143
27936,10.1021/acsami.7b08770,25512,4(a),31764,Sn1−xNaxS_ x=0,undefined,650,1.7437e+24,222.71,0.0044902,,,0.53643,0.000047025,0.00045951,0.54593,0.066378,,0.0000861374
27936,10.1021/acsami.7b08770,25514,5(a),31764,Sn1−xNaxS_ x=0,undefined,700,,228.98,0.0043672,,,0.49004,0.000048809,0.00046169,0.49466,0.075379,,0.0000986718
27936,10.1021/acsami.7b08770,25514,5(a),31764,Sn1−xNaxS_ x=0,undefined,750,,235.62,0.0042441,,,0.44366,0.000050702,0.00046388,0.44339,0.08438,,0.0001143508
27936,10.1021/acsami.7b08770,25516,6(a),31764,Sn1−xNaxS_ x=0,undefined,800,,,,,,,,,0.39212,0.093381,,
27936,10.1021/acsami.7b08770,25518,6(c),31764,Sn1−xNaxS_ x=0,undefined,300,,,,,,,,,,0.0033724,,
27936,10.1021/acsami.7b08770,25512,4(a),31765,Sn1−xNaxS_ x=0.005,undefined,350,1.2792e+25,1751.6,0.00057092,,0.0010094,0.83338,0.00010504,0.00024488,0.85902,0.0023095,,0.0001222789
27936,10.1021/acsami.7b08770,25512,4(a),31765,Sn1−xNaxS_ x=0.005,undefined,400,1.2437e+25,1782,0.00056117,,0.00099467,0.78155,0.00011768,0.00025698,0.80901,0.053648,,0.0001454617
27936,10.1021/acsami.7b08770,25512,4(a),31765,Sn1−xNaxS_ x=0.005,undefined,450,1.2082e+25,1813.5,0.00055142,,0.00097995,0.72971,0.0001313,0.00026908,0.759,0.10499,,0.0001729908
27936,10.1021/acsami.7b08770,25512,4(a),31765,Sn1−xNaxS_ x=0.005,undefined,500,1.1728e+25,1846.2,0.00054166,,0.00096522,0.67788,0.00014596,0.00028118,0.709,0.15632,,0.0002058674
27936,10.1021/acsami.7b08770,25512,4(a),31765,Sn1−xNaxS_ x=0.005,undefined,550,1.1373e+25,1880,0.00053191,,0.0009505,0.62605,0.0001617,0.00029328,0.65899,0.20766,,0.0002453755
27936,10.1021/acsami.7b08770,25512,4(a),31765,Sn1−xNaxS_ x=0.005,undefined,600,1.1019e+25,1915.1,0.00052216,,0.00093577,0.57421,0.0001786,0.00030538,0.60898,0.259,,0.0002932773
27936,10.1021/acsami.7b08770,25512,4(a),31765,Sn1−xNaxS_ x=0.005,undefined,650,1.0664e+25,1951.6,0.0005124,,0.00092105,0.52238,0.0001967,0.00031747,0.55898,0.31034,,0.0003518909
27936,10.1021/acsami.7b08770,25514,5(a),31765,Sn1−xNaxS_ x=0.005,undefined,700,,1989.5,0.00050265,,,0.47054,0.00021609,0.00032957,0.50897,0.36168,,0.0004245633
27936,10.1021/acsami.7b08770,25514,5(a),31765,Sn1−xNaxS_ x=0.005,undefined,750,,2028.8,0.0004929,,,0.41871,0.00023684,0.00034167,0.45896,0.41301,,0.0005160363
27936,10.1021/acsami.7b08770,25514,5(a),31765,Sn1−xNaxS_ x=0.005,undefined,800,,2069.8,0.00048314,,,0.36687,0.00025904,0.00035377,0.40896,0.46435,,0.0006334116
27936,10.1021/acsami.7b08770,25514,5(a),31765,Sn1−xNaxS_ x=0.005,undefined,850,,2112.4,0.00047339,,,,0.00028277,0.00036587,0.35895,0.6696,,0.0007877699
27936,10.1021/acsami.7b08770,25512,4(a),31766,Sn1−xNaxS_ x=0.01,undefined,350,8.7154e+24,871.76,0.0011471,,0.00076442,0.7284,0.000068855,0.00028104,0.73826,-0.022266,,0.0000932666
27936,10.1021/acsami.7b08770,25512,4(a),31766,Sn1−xNaxS_ x=0.01,undefined,400,8.3792e+24,909.75,0.0010992,,0.00076846,0.68759,0.000077266,0.00029143,0.6997,0.026202,,0.0001104273
27936,10.1021/acsami.7b08770,25512,4(a),31766,Sn1−xNaxS_ x=0.01,undefined,450,8.0431e+24,951.2,0.0010513,,0.0007725,0.64678,0.000086644,0.00030181,0.66114,0.07467,,0.0001310524
27936,10.1021/acsami.7b08770,25512,4(a),31766,Sn1−xNaxS_ x=0.01,undefined,500,7.7069e+24,996.61,0.0010034,,0.00077654,0.60596,0.000097138,0.0003122,0.62258,0.12314,,0.0001560249
27936,10.1021/acsami.7b08770,25512,4(a),31766,Sn1−xNaxS_ x=0.01,undefined,550,7.3707e+24,1046.5,0.00095557,,0.00078059,0.56515,0.0001089,0.00032258,0.58402,0.17161,,0.0001864662
27936,10.1021/acsami.7b08770,25512,4(a),31766,Sn1−xNaxS_ x=0.01,undefined,600,7.0346e+24,1101.7,0.00090768,,0.00078463,0.52434,0.00012214,0.00033297,0.54546,0.22007,,0.0002239211
27936,10.1021/acsami.7b08770,25512,4(a),31766,Sn1−xNaxS_ x=0.01,undefined,650,6.6984e+24,1163.1,0.0008598,,0.00078867,0.48353,0.00013712,0.00034335,0.5069,0.26854,,0.000270507
27936,10.1021/acsami.7b08770,25514,5(a),31766,Sn1−xNaxS_ x=0.01,undefined,700,,1231.6,0.00081192,,,0.44272,0.00015411,0.00035374,0.46834,0.31701,,0.0003290558
27936,10.1021/acsami.7b08770,25514,5(a),31766,Sn1−xNaxS_ x=0.01,undefined,750,,1308.8,0.00076403,,,0.40191,0.00017353,0.00036412,0.42978,0.36548,,0.0004037647
27936,10.1021/acsami.7b08770,25514,5(a),31766,Sn1−xNaxS_ x=0.01,undefined,800,,1396.4,0.00071615,,,0.3611,0.00019586,0.00037451,0.39122,0.41395,,0.000500639
27936,10.1021/acsami.7b08770,25514,5(a),31766,Sn1−xNaxS_ x=0.01,undefined,850,,1496.4,0.00066826,,,,0.00022168,0.00038489,0.35266,0.5343,,0.0006285941
27936,10.1021/acsami.7b08770,25517,6(b),31766,Sn1−xNaxS_ x=0.01,undefined,300,,,,,,0.76921,,,,,,
27936,10.1021/acsami.7b08770,25512,4(a),31767,Sn1−xNaxS_ x=0.02,undefined,350,1.8902e+25,2165.3,0.00046183,,0.00082866,0.8272,0.00010118,0.00021617,0.84861,0.011222,,0.0001192303
27936,10.1021/acsami.7b08770,25512,4(a),31767,Sn1−xNaxS_ x=0.02,undefined,400,1.8439e+25,2180.8,0.00045854,,0.00082833,0.77536,0.00011614,0.00023077,0.79918,0.063634,,0.000145324
27936,10.1021/acsami.7b08770,25512,4(a),31767,Sn1−xNaxS_ x=0.02,undefined,450,1.7977e+25,2196.6,0.00045524,,0.00082799,0.72352,0.00013224,0.00024536,0.74976,0.11605,,0.0001763764
27936,10.1021/acsami.7b08770,25512,4(a),31767,Sn1−xNaxS_ x=0.02,undefined,500,1.7514e+25,2212.7,0.00045194,,0.00082766,0.67169,0.00014953,0.00025996,0.70033,0.16846,,0.0002135136
27936,10.1021/acsami.7b08770,25512,4(a),31767,Sn1−xNaxS_ x=0.02,undefined,550,1.7051e+25,2228.9,0.00044865,,0.00082733,0.61985,0.00016802,0.00027456,0.65091,0.22087,,0.0002581309
27936,10.1021/acsami.7b08770,25512,4(a),31767,Sn1−xNaxS_ x=0.02,undefined,600,1.6589e+25,2245.4,0.00044535,,0.00082699,0.56801,0.00018775,0.00028916,0.60148,0.27328,,0.0003121467
27936,10.1021/acsami.7b08770,25512,4(a),31767,Sn1−xNaxS_ x=0.02,undefined,650,1.6126e+25,2262.1,0.00044206,,0.00082666,0.51618,0.00020872,0.00030376,0.55206,0.3257,,0.0003780748
27936,10.1021/acsami.7b08770,25514,5(a),31767,Sn1−xNaxS_ x=0.02,undefined,700,,2279.2,0.00043876,,,0.46434,0.00023099,0.00031835,0.50263,0.37811,,0.0004595627
27936,10.1021/acsami.7b08770,25514,5(a),31767,Sn1−xNaxS_ x=0.02,undefined,750,,2296.4,0.00043546,,,0.4125,0.00025457,0.00033295,0.4532,0.43052,,0.0005617167
27936,10.1021/acsami.7b08770,25514,5(a),31767,Sn1−xNaxS_ x=0.02,undefined,800,,2313.9,0.00043217,,,0.36066,0.0002795,0.00034755,0.40378,0.48293,,0.0006922086
27936,10.1021/acsami.7b08770,25514,5(a),31767,Sn1−xNaxS_ x=0.02,undefined,850,,2331.7,0.00042887,,,,0.00030581,0.00036215,0.35435,0.73356,,0.0008630168
27936,10.1021/acsami.7b08770,25518,6(c),31767,Sn1−xNaxS_ x=0.02,undefined,300,,,,,,,,,,-0.041191,,
27936,10.1021/acsami.7b08770,25512,4(a),31768,Sn1−xNaxS_ x=0.03,undefined,350,1.2455e+25,1326.7,0.00075373,,,0.83211,0.000078186,0.00024276,0.84239,-0.013484,,0.0000928145
27936,10.1021/acsami.7b08770,25512,4(a),31768,Sn1−xNaxS_ x=0.03,undefined,400,1.2116e+25,1373.9,0.00072785,,,0.77992,0.000089282,0.00025492,0.79376,0.035157,,0.0001124798
27936,10.1021/acsami.7b08770,25512,4(a),31768,Sn1−xNaxS_ x=0.03,undefined,450,1.1777e+25,1424.6,0.00070197,,,0.72772,0.00010163,0.00026709,0.74514,0.083798,,0.0001363905
27936,10.1021/acsami.7b08770,25512,4(a),31768,Sn1−xNaxS_ x=0.03,undefined,500,1.1438e+25,1479.1,0.00067608,,,0.67553,0.00011535,0.00027926,0.69651,0.13244,,0.0001656114
27936,10.1021/acsami.7b08770,25512,4(a),31768,Sn1−xNaxS_ x=0.03,undefined,550,1.11e+25,1538,0.0006502,,,0.62333,0.00013062,0.00029143,0.64788,0.18108,,0.0002016114
27936,10.1021/acsami.7b08770,25512,4(a),31768,Sn1−xNaxS_ x=0.03,undefined,600,1.0761e+25,1601.7,0.00062432,,,0.57114,0.00014762,0.00030359,0.59926,0.22972,,0.0002463371
27936,10.1021/acsami.7b08770,25512,4(a),31768,Sn1−xNaxS_ x=0.03,undefined,650,1.0422e+25,1671,0.00059844,,,0.51894,0.00016661,0.00031576,0.55063,0.27836,,0.0003025807
27936,10.1021/acsami.7b08770,25514,5(a),31768,Sn1−xNaxS_ x=0.03,undefined,700,,1746.5,0.00057256,,,0.46675,0.00018782,0.00032793,0.50201,0.327,,0.000374136
27936,10.1021/acsami.7b08770,25514,5(a),31768,Sn1−xNaxS_ x=0.03,undefined,750,,1829.2,0.00054668,,,0.41455,0.00021158,0.0003401,0.45338,0.37565,,0.0004666725
27936,10.1021/acsami.7b08770,25514,5(a),31768,Sn1−xNaxS_ x=0.03,undefined,800,,1920.2,0.00052079,,,0.36236,0.00023827,0.00035226,0.40476,0.42429,,0.0005886698
27936,10.1021/acsami.7b08770,25514,5(a),31768,Sn1−xNaxS_ x=0.03,undefined,850,,2020.6,0.00049491,,,,0.00026835,0.00036443,,,,
27936,10.1021/acsami.7b08770,25517,6(b),31768,Sn1−xNaxS_ x=0.03,undefined,300,,,,,,0.88431,,,,-0.062126,,
27936,10.1021/acsami.7b08770,25512,4(a),31769,Sn0.95Ag0.05S,undefined,400,2.4711e+24,410.16,0.0024381,,0.001053,0.70579,0.0000688,0.00040956,0.7076,-0.018163,,0.0000972301
27936,10.1021/acsami.7b08770,25512,4(a),31769,Sn0.95Ag0.05S,undefined,450,2.3475e+24,435.94,0.0022939,,0.0010059,0.67354,0.000074074,0.00041221,0.67653,0.032278,,0.0001094911
27936,10.1021/acsami.7b08770,25512,4(a),31769,Sn0.95Ag0.05S,undefined,500,2.2239e+24,465.2,0.0021496,,0.00095867,0.64129,0.000080065,0.00041486,0.64546,0.082719,,0.0001240433
27936,10.1021/acsami.7b08770,25512,4(a),31769,Sn0.95Ag0.05S,undefined,550,2.1003e+24,498.65,0.0020054,,0.00091148,0.60903,0.000086926,0.00041752,0.6144,0.13316,,0.0001414811
27936,10.1021/acsami.7b08770,25512,4(a),31769,Sn0.95Ag0.05S,undefined,600,1.9768e+24,537.32,0.0018611,,0.00086429,0.57678,0.00009486,0.00042017,0.58333,0.1836,,0.0001626181
27936,10.1021/acsami.7b08770,25512,4(a),31769,Sn0.95Ag0.05S,undefined,650,1.8532e+24,582.45,0.0017169,,0.00081711,0.54453,0.00010413,0.00042282,0.55226,0.23404,,0.0001885525
27936,10.1021/acsami.7b08770,25514,5(a),31769,Sn0.95Ag0.05S,undefined,350,,387.25,0.0025823,,,0.73805,0.000064119,0.00040691,0.73866,-0.068604,,0.0000868045
27936,10.1021/acsami.7b08770,25514,5(a),31769,Sn0.95Ag0.05S,undefined,700,,635.89,0.0015726,,,0.51227,0.00011511,0.00042547,0.5212,0.28448,,0.0002208557
27936,10.1021/acsami.7b08770,25514,5(a),31769,Sn0.95Ag0.05S,undefined,750,,700.08,0.0014284,,,0.48002,0.00012832,0.00042812,0.49013,0.33492,,0.0002618081
27936,10.1021/acsami.7b08770,25514,5(a),31769,Sn0.95Ag0.05S,undefined,800,,778.76,0.0012841,,,0.44777,0.00014451,0.00043077,0.45906,0.38537,,0.0003147955
27936,10.1021/acsami.7b08770,25514,5(a),31769,Sn0.95Ag0.05S,undefined,850,,877.27,0.0011399,,,0.41551,0.00016481,0.00043343,0.428,0.43581,,0.0003850701
27936,10.1021/acsami.7b08770,25514,5(a),31769,Sn0.95Ag0.05S,undefined,900,,1004.4,0.00099565,,,0.38326,0.000191,0.00043608,0.39693,0.48625,,0.0004811932
27936,10.1021/acsami.7b08770,25519,7(a),31770,Sn1−xNaxS_ x=0.005_ heating,undefined,350,,1770.3,0.00056488,,,,0.00010449,0.00024295,0.84738,0.043158,,0.0001233095
27936,10.1021/acsami.7b08770,25519,7(a),31770,Sn1−xNaxS_ x=0.005_ heating,undefined,400,,1786.6,0.00055971,,,,0.00011702,0.00025593,0.79424,0.00033898,,0.0001473358
27936,10.1021/acsami.7b08770,25519,7(a),31770,Sn1−xNaxS_ x=0.005_ heating,undefined,450,,1803.3,0.00055455,,,,0.00013041,0.00026892,0.74111,0.060874,,0.0001759658
27936,10.1021/acsami.7b08770,25519,7(a),31770,Sn1−xNaxS_ x=0.005_ heating,undefined,500,,1820.2,0.00054938,,,,0.00014465,0.0002819,0.68797,0.12141,,0.0002102563
27936,10.1021/acsami.7b08770,25519,7(a),31770,Sn1−xNaxS_ x=0.005_ heating,undefined,550,,1837.5,0.00054421,,,,0.00015979,0.00029489,0.63484,0.18195,,0.0002517012
27936,10.1021/acsami.7b08770,25519,7(a),31770,Sn1−xNaxS_ x=0.005_ heating,undefined,600,,1855.1,0.00053904,,,,0.00017583,0.00030787,0.5817,0.24248,,0.0003022692
27936,10.1021/acsami.7b08770,25519,7(a),31770,Sn1−xNaxS_ x=0.005_ heating,undefined,650,,1873.1,0.00053387,,,,0.00019284,0.00032086,0.52856,0.30302,,0.0003648403
27936,10.1021/acsami.7b08770,25519,7(a),31770,Sn1−xNaxS_ x=0.005_ heating,undefined,700,,1891.4,0.00052871,,,,0.00021079,0.00033384,0.47543,0.36355,,0.0004433671
27936,10.1021/acsami.7b08770,25519,7(a),31770,Sn1−xNaxS_ x=0.005_ heating,undefined,750,,1910.1,0.00052354,,,,0.00022977,0.00034683,0.42229,0.42409,,0.0005441048
27936,10.1021/acsami.7b08770,25519,7(a),31770,Sn1−xNaxS_ x=0.005_ heating,undefined,800,,1929.1,0.00051837,,,,0.00024975,0.00035981,0.36916,0.48462,,0.0006765359
27936,10.1021/acsami.7b08770,25522,7(c),31770,Sn1−xNaxS_ x=0.005_ heating,undefined,300,,,,,,,,,0.90051,,,
27936,10.1021/acsami.7b08770,25519,7(a),31771,Sn1−xNaxS_ x=0.005_ cooling,undefined,350,,870.93,0.0011482,,,,0.000087712,0.00031735,0.80027,-0.0034838,,0.000109603
27936,10.1021/acsami.7b08770,25519,7(a),31771,Sn1−xNaxS_ x=0.005_ cooling,undefined,400,,927.3,0.0010784,,,,0.000096708,0.00032294,0.76182,0.046496,,0.0001269434
27936,10.1021/acsami.7b08770,25519,7(a),31771,Sn1−xNaxS_ x=0.005_ cooling,undefined,450,,991.38,0.0010087,,,,0.000107,0.00032852,0.72338,0.096475,,0.0001479167
27936,10.1021/acsami.7b08770,25519,7(a),31771,Sn1−xNaxS_ x=0.005_ cooling,undefined,500,,1065,0.000939,,,,0.00011888,0.0003341,0.68493,0.14645,,0.0001735652
27936,10.1021/acsami.7b08770,25519,7(a),31771,Sn1−xNaxS_ x=0.005_ cooling,undefined,550,,1150.4,0.00086928,,,,0.00013274,0.00033969,0.64648,0.19643,,0.0002053273
27936,10.1021/acsami.7b08770,25519,7(a),31771,Sn1−xNaxS_ x=0.005_ cooling,undefined,600,,1250.7,0.00079956,,,,0.0001491,0.00034527,0.60803,0.24641,,0.0002452182
27936,10.1021/acsami.7b08770,25519,7(a),31771,Sn1−xNaxS_ x=0.005_ cooling,undefined,650,,1370.2,0.00072984,,,,0.00016867,0.00035085,0.56959,0.29639,,0.0002961253
27936,10.1021/acsami.7b08770,25519,7(a),31771,Sn1−xNaxS_ x=0.005_ cooling,undefined,700,,1514.9,0.00066012,,,,0.00019246,0.00035643,0.53114,0.34637,,0.0003623527
27936,10.1021/acsami.7b08770,25519,7(a),31771,Sn1−xNaxS_ x=0.005_ cooling,undefined,750,,1693.8,0.0005904,,,,0.00022199,0.00036202,0.49269,0.39635,,0.0004505673
27936,10.1021/acsami.7b08770,25519,7(a),31771,Sn1−xNaxS_ x=0.005_ cooling,undefined,800,,1920.5,0.00052069,,,,0.00025952,0.0003676,0.45425,0.44633,,0.0005713154
27936,10.1021/acsami.7b08770,25521,7(b),31771,Sn1−xNaxS_ x=0.005_ cooling,undefined,850,,2217.4,0.00045097,,,,,,0.4158,,,
27936,10.1021/acsami.7b08770,25523,7(d),31771,Sn1−xNaxS_ x=0.005_ cooling,undefined,300,,,,,,,,,,-0.053463,,
27936,10.1021/acsami.7b08770,25519,7(a),31772,Sn1−xNaxS_ x=0.02_ 1st measure_ heating,undefined,350,,2339.7,0.0004274,,,,0.00011009,0.00021692,0.83876,0.045939,,0.0001312533
27936,10.1021/acsami.7b08770,25519,7(a),31772,Sn1−xNaxS_ x=0.02_ 1st measure_ heating,undefined,400,,2330.6,0.00042908,,,,0.00012727,0.00023368,0.78621,0.062029,,0.0001618779
27936,10.1021/acsami.7b08770,25519,7(a),31772,Sn1−xNaxS_ x=0.02_ 1st measure_ heating,undefined,450,,2321.5,0.00043076,,,,0.00014562,0.00025045,0.73365,0.11893,,0.000198487
27936,10.1021/acsami.7b08770,25519,7(a),31772,Sn1−xNaxS_ x=0.02_ 1st measure_ heating,undefined,500,,2312.5,0.00043244,,,,0.00016512,0.00026721,0.6811,0.17582,,0.0002424314
27936,10.1021/acsami.7b08770,25519,7(a),31772,Sn1−xNaxS_ x=0.02_ 1st measure_ heating,undefined,550,,2303.5,0.00043412,,,,0.00018576,0.00028398,0.62854,0.23272,,0.000295542
27936,10.1021/acsami.7b08770,25519,7(a),31772,Sn1−xNaxS_ x=0.02_ 1st measure_ heating,undefined,600,,2294.6,0.0004358,,,,0.00020753,0.00030074,0.57599,0.28962,,0.0003603014
27936,10.1021/acsami.7b08770,25519,7(a),31772,Sn1−xNaxS_ x=0.02_ 1st measure_ heating,undefined,650,,2285.8,0.00043748,,,,0.00023044,0.00031751,0.52343,0.34652,,0.0004402499
27936,10.1021/acsami.7b08770,25519,7(a),31772,Sn1−xNaxS_ x=0.02_ 1st measure_ heating,undefined,700,,2277.1,0.00043916,,,,0.00025444,0.00033427,0.47088,0.40342,,0.00054035
27936,10.1021/acsami.7b08770,25519,7(a),31772,Sn1−xNaxS_ x=0.02_ 1st measure_ heating,undefined,750,,2268.4,0.00044084,,,,0.00027953,0.00035104,0.41832,0.46031,,0.0006682205
27936,10.1021/acsami.7b08770,25519,7(a),31772,Sn1−xNaxS_ x=0.02_ 1st measure_ heating,undefined,800,,2259.8,0.00044252,,,,0.0003057,0.0003678,0.36577,0.51721,,0.0008357711
27936,10.1021/acsami.7b08770,25522,7(c),31772,Sn1−xNaxS_ x=0.02_ 1st measure_ heating,undefined,300,,,,,,,,,0.89132,,,
27936,10.1021/acsami.7b08770,25519,7(a),31773,Sn1−xNaxS_ x=0.02_ 1st measure_ cooling,undefined,350,,1238.6,0.00080735,,,,0.00011445,0.00030398,,0.0025273,,
27936,10.1021/acsami.7b08770,25519,7(a),31773,Sn1−xNaxS_ x=0.02_ 1st measure_ cooling,undefined,400,,1316.4,0.00075967,,,,0.00012684,0.00031041,0.73546,0.058563,,0.0001724635
27936,10.1021/acsami.7b08770,25519,7(a),31773,Sn1−xNaxS_ x=0.02_ 1st measure_ cooling,undefined,450,,1404.5,0.00071198,,,,0.00014099,0.00031684,0.70142,0.1146,,0.0002010065
27936,10.1021/acsami.7b08770,25519,7(a),31773,Sn1−xNaxS_ x=0.02_ 1st measure_ cooling,undefined,500,,1505.3,0.0006643,,,,0.00015731,0.00032327,0.66738,0.17064,,0.0002357128
27936,10.1021/acsami.7b08770,25519,7(a),31773,Sn1−xNaxS_ x=0.02_ 1st measure_ cooling,undefined,550,,1621.8,0.00061661,,,,0.00017629,0.0003297,0.63334,0.22667,,0.0002783497
27936,10.1021/acsami.7b08770,25519,7(a),31773,Sn1−xNaxS_ x=0.02_ 1st measure_ cooling,undefined,600,,1757.7,0.00056893,,,,0.00019859,0.00033613,0.5993,0.28271,,0.0003313699
27936,10.1021/acsami.7b08770,25519,7(a),31773,Sn1−xNaxS_ x=0.02_ 1st measure_ cooling,undefined,650,,1918.5,0.00052125,,,,0.00022513,0.00034256,0.56526,0.33874,,0.0003982769
27936,10.1021/acsami.7b08770,25519,7(a),31773,Sn1−xNaxS_ x=0.02_ 1st measure_ cooling,undefined,700,,2111.7,0.00047356,,,,0.00025721,0.000349,0.53122,0.39478,,0.0004841873
27936,10.1021/acsami.7b08770,25519,7(a),31773,Sn1−xNaxS_ x=0.02_ 1st measure_ cooling,undefined,750,,2348.1,0.00042588,,,,0.00029664,0.00035543,0.49718,0.45082,,0.0005966451
27936,10.1021/acsami.7b08770,25519,7(a),31773,Sn1−xNaxS_ x=0.02_ 1st measure_ cooling,undefined,800,,2644.2,0.00037819,,,,0.00034624,0.00036186,0.46315,0.50685,,0.0007475764
27936,10.1021/acsami.7b08770,25521,7(b),31773,Sn1−xNaxS_ x=0.02_ 1st measure_ cooling,undefined,850,,3025.6,0.00033051,,,,,,0.42911,0.56289,,
27936,10.1021/acsami.7b08770,25523,7(d),31773,Sn1−xNaxS_ x=0.02_ 1st measure_ cooling,undefined,300,,,,,,,,,,-0.053509,,
27936,10.1021/acsami.7b08770,25519,7(a),31774,Sn1−xNaxS_ x=0.02_ 2nd measure_ heating,undefined,350,,1116.2,0.0008959,,,,0.0001036,0.00030465,,0.013073,,
27936,10.1021/acsami.7b08770,25519,7(a),31774,Sn1−xNaxS_ x=0.02_ 2nd measure_ heating,undefined,400,,1124.9,0.00088893,,,,0.00011073,0.00031375,,0.057217,,
27936,10.1021/acsami.7b08770,25519,7(a),31774,Sn1−xNaxS_ x=0.02_ 2nd measure_ heating,undefined,450,,1133.9,0.00088195,,,,0.0001182,0.00032286,,0.10136,,
27936,10.1021/acsami.7b08770,25519,7(a),31774,Sn1−xNaxS_ x=0.02_ 2nd measure_ heating,undefined,500,,1142.9,0.00087498,,,,0.00012595,0.00033197,,0.14551,,
27936,10.1021/acsami.7b08770,25519,7(a),31774,Sn1−xNaxS_ x=0.02_ 2nd measure_ heating,undefined,550,,1152.1,0.000868,,,,0.00013402,0.00034107,,0.18965,,
27936,10.1021/acsami.7b08770,25519,7(a),31774,Sn1−xNaxS_ x=0.02_ 2nd measure_ heating,undefined,600,,1161.4,0.00086103,,,,0.00014242,0.00035018,,0.23379,,
27936,10.1021/acsami.7b08770,25519,7(a),31774,Sn1−xNaxS_ x=0.02_ 2nd measure_ heating,undefined,650,,1170.9,0.00085406,,,,0.00015114,0.00035928,,0.27794,,