sid,DOI,figureid,fignum,sampleid,samplename,composition,Temperature,Carrier concentration,Electrical conductivity,Electrical resistivity,Hall coefficient,Hall movility,Lattice thermal conductivity,Power factor,Seebeck coefficient,Thermal conductivity,ZT,total thermal conductivity,Figure of merit Z
27946,10.1021/acsenergylett.6b00671,26385,3(a),33046,Sn1.03−yMgyTe(Cu2Te)0.05,undefined,,1.55e+26,,,,0.003903,,,0.00012506,,,,
27946,10.1021/acsenergylett.6b00671,26385,3(a),33046,Sn1.03−yMgyTe(Cu2Te)0.05,undefined,,1.555e+26,,,,0.0038978,,,0.000125,,,,
27946,10.1021/acsenergylett.6b00671,26385,3(a),33046,Sn1.03−yMgyTe(Cu2Te)0.05,undefined,,1.56e+26,,,,0.0038925,,,0.00012494,,,,
27946,10.1021/acsenergylett.6b00671,26385,3(a),33046,Sn1.03−yMgyTe(Cu2Te)0.05,undefined,,1.565e+26,,,,0.0038873,,,0.00012488,,,,
27946,10.1021/acsenergylett.6b00671,26385,3(a),33046,Sn1.03−yMgyTe(Cu2Te)0.05,undefined,,1.57e+26,,,,0.003882,,,0.00012482,,,,
27946,10.1021/acsenergylett.6b00671,26385,3(a),33046,Sn1.03−yMgyTe(Cu2Te)0.05,undefined,,1.575e+26,,,,0.0038768,,,0.00012476,,,,
27946,10.1021/acsenergylett.6b00671,26385,3(a),33046,Sn1.03−yMgyTe(Cu2Te)0.05,undefined,,1.58e+26,,,,0.0038715,,,0.0001247,,,,
27946,10.1021/acsenergylett.6b00671,26385,3(a),33046,Sn1.03−yMgyTe(Cu2Te)0.05,undefined,,1.585e+26,,,,0.0038662,,,0.00012465,,,,
27946,10.1021/acsenergylett.6b00671,26385,3(a),33046,Sn1.03−yMgyTe(Cu2Te)0.05,undefined,,1.59e+26,,,,0.003861,,,0.00012459,,,,
27946,10.1021/acsenergylett.6b00671,26385,3(a),33046,Sn1.03−yMgyTe(Cu2Te)0.05,undefined,,1.595e+26,,,,0.0038557,,,0.00012453,,,,
27946,10.1021/acsenergylett.6b00671,26385,3(a),33046,Sn1.03−yMgyTe(Cu2Te)0.05,undefined,,1.6e+26,,,,0.0038505,,,0.00012447,,,,
27946,10.1021/acsenergylett.6b00671,26385,3(a),33046,Sn1.03−yMgyTe(Cu2Te)0.05,undefined,,1.605e+26,,,,0.0038452,,,0.00012441,,,,
27946,10.1021/acsenergylett.6b00671,26385,3(a),33046,Sn1.03−yMgyTe(Cu2Te)0.05,undefined,,1.61e+26,,,,0.0038399,,,0.00012435,,,,
27946,10.1021/acsenergylett.6b00671,26385,3(a),33046,Sn1.03−yMgyTe(Cu2Te)0.05,undefined,,1.615e+26,,,,0.0038347,,,0.0001243,,,,
27946,10.1021/acsenergylett.6b00671,26385,3(a),33046,Sn1.03−yMgyTe(Cu2Te)0.05,undefined,,1.62e+26,,,,0.0038294,,,0.00012424,,,,
27946,10.1021/acsenergylett.6b00671,26385,3(a),33046,Sn1.03−yMgyTe(Cu2Te)0.05,undefined,,1.625e+26,,,,0.0038242,,,0.00012418,,,,
27946,10.1021/acsenergylett.6b00671,26385,3(a),33046,Sn1.03−yMgyTe(Cu2Te)0.05,undefined,,1.63e+26,,,,0.0038189,,,0.00012412,,,,
27946,10.1021/acsenergylett.6b00671,26385,3(a),33046,Sn1.03−yMgyTe(Cu2Te)0.05,undefined,,1.635e+26,,,,0.0038137,,,0.00012406,,,,
27946,10.1021/acsenergylett.6b00671,26385,3(a),33046,Sn1.03−yMgyTe(Cu2Te)0.05,undefined,,1.64e+26,,,,0.0038084,,,0.000124,,,,
27946,10.1021/acsenergylett.6b00671,26385,3(a),33046,Sn1.03−yMgyTe(Cu2Te)0.05,undefined,,1.645e+26,,,,0.0038031,,,0.00012394,,,,
27946,10.1021/acsenergylett.6b00671,26385,3(a),33046,Sn1.03−yMgyTe(Cu2Te)0.05,undefined,,1.65e+26,,,,0.0037979,,,0.00012389,,,,
27946,10.1021/acsenergylett.6b00671,26385,3(a),33046,Sn1.03−yMgyTe(Cu2Te)0.05,undefined,,1.655e+26,,,,0.0037926,,,0.00012383,,,,
27946,10.1021/acsenergylett.6b00671,26385,3(a),33046,Sn1.03−yMgyTe(Cu2Te)0.05,undefined,,1.66e+26,,,,0.0037874,,,0.00012377,,,,
27946,10.1021/acsenergylett.6b00671,26385,3(a),33046,Sn1.03−yMgyTe(Cu2Te)0.05,undefined,,1.665e+26,,,,0.0037821,,,0.00012371,,,,
27946,10.1021/acsenergylett.6b00671,26385,3(a),33046,Sn1.03−yMgyTe(Cu2Te)0.05,undefined,,1.67e+26,,,,0.0037768,,,0.00012365,,,,
27946,10.1021/acsenergylett.6b00671,26385,3(a),33046,Sn1.03−yMgyTe(Cu2Te)0.05,undefined,,1.675e+26,,,,0.0037716,,,0.00012359,,,,
27946,10.1021/acsenergylett.6b00671,26385,3(a),33046,Sn1.03−yMgyTe(Cu2Te)0.05,undefined,,1.68e+26,,,,0.0037663,,,0.00012354,,,,
27946,10.1021/acsenergylett.6b00671,26385,3(a),33046,Sn1.03−yMgyTe(Cu2Te)0.05,undefined,,1.685e+26,,,,0.0037611,,,0.00012348,,,,
27946,10.1021/acsenergylett.6b00671,26385,3(a),33046,Sn1.03−yMgyTe(Cu2Te)0.05,undefined,,1.69e+26,,,,0.0037558,,,0.00012342,,,,
27946,10.1021/acsenergylett.6b00671,26385,3(a),33046,Sn1.03−yMgyTe(Cu2Te)0.05,undefined,,1.695e+26,,,,0.0037506,,,0.00012336,,,,
27946,10.1021/acsenergylett.6b00671,26385,3(a),33046,Sn1.03−yMgyTe(Cu2Te)0.05,undefined,,1.7e+26,,,,0.0037453,,,0.0001233,,,,
27946,10.1021/acsenergylett.6b00671,26385,3(a),33046,Sn1.03−yMgyTe(Cu2Te)0.05,undefined,,1.705e+26,,,,0.00374,,,0.00012324,,,,
27946,10.1021/acsenergylett.6b00671,26385,3(a),33046,Sn1.03−yMgyTe(Cu2Te)0.05,undefined,,1.71e+26,,,,0.0037348,,,0.00012318,,,,
27946,10.1021/acsenergylett.6b00671,26385,3(a),33046,Sn1.03−yMgyTe(Cu2Te)0.05,undefined,,1.715e+26,,,,0.0037295,,,0.00012313,,,,
27946,10.1021/acsenergylett.6b00671,26385,3(a),33046,Sn1.03−yMgyTe(Cu2Te)0.05,undefined,,1.72e+26,,,,0.0037243,,,0.00012307,,,,
27946,10.1021/acsenergylett.6b00671,26385,3(a),33046,Sn1.03−yMgyTe(Cu2Te)0.05,undefined,,1.725e+26,,,,0.003719,,,0.00012301,,,,
27946,10.1021/acsenergylett.6b00671,26385,3(a),33046,Sn1.03−yMgyTe(Cu2Te)0.05,undefined,,1.73e+26,,,,0.0037137,,,0.00012295,,,,
27946,10.1021/acsenergylett.6b00671,26385,3(a),33046,Sn1.03−yMgyTe(Cu2Te)0.05,undefined,,1.735e+26,,,,0.0037085,,,0.00012289,,,,
27946,10.1021/acsenergylett.6b00671,26385,3(a),33046,Sn1.03−yMgyTe(Cu2Te)0.05,undefined,,1.74e+26,,,,0.0037032,,,0.00012283,,,,
27946,10.1021/acsenergylett.6b00671,26385,3(a),33046,Sn1.03−yMgyTe(Cu2Te)0.05,undefined,,1.745e+26,,,,0.003698,,,0.00012278,,,,
27946,10.1021/acsenergylett.6b00671,26385,3(a),33046,Sn1.03−yMgyTe(Cu2Te)0.05,undefined,,1.75e+26,,,,0.0036927,,,0.00012272,,,,
27946,10.1021/acsenergylett.6b00671,26385,3(a),33046,Sn1.03−yMgyTe(Cu2Te)0.05,undefined,,1.755e+26,,,,0.0036875,,,0.00012266,,,,
27946,10.1021/acsenergylett.6b00671,26385,3(a),33046,Sn1.03−yMgyTe(Cu2Te)0.05,undefined,,1.76e+26,,,,0.0036822,,,0.0001226,,,,
27946,10.1021/acsenergylett.6b00671,26385,3(a),33046,Sn1.03−yMgyTe(Cu2Te)0.05,undefined,,1.765e+26,,,,0.0036769,,,0.00012254,,,,
27946,10.1021/acsenergylett.6b00671,26385,3(a),33046,Sn1.03−yMgyTe(Cu2Te)0.05,undefined,,1.77e+26,,,,0.0036717,,,0.00012248,,,,
27946,10.1021/acsenergylett.6b00671,26385,3(a),33046,Sn1.03−yMgyTe(Cu2Te)0.05,undefined,,1.775e+26,,,,0.0036664,,,0.00012242,,,,
27946,10.1021/acsenergylett.6b00671,26385,3(a),33046,Sn1.03−yMgyTe(Cu2Te)0.05,undefined,,1.78e+26,,,,0.0036612,,,0.00012237,,,,
27946,10.1021/acsenergylett.6b00671,26385,3(a),33046,Sn1.03−yMgyTe(Cu2Te)0.05,undefined,,1.785e+26,,,,0.0036559,,,0.00012231,,,,
27946,10.1021/acsenergylett.6b00671,26385,3(a),33046,Sn1.03−yMgyTe(Cu2Te)0.05,undefined,,1.79e+26,,,,0.0036506,,,0.00012225,,,,
27946,10.1021/acsenergylett.6b00671,26385,3(a),33046,Sn1.03−yMgyTe(Cu2Te)0.05,undefined,,1.795e+26,,,,0.0036454,,,0.00012219,,,,
27946,10.1021/acsenergylett.6b00671,26385,3(a),33046,Sn1.03−yMgyTe(Cu2Te)0.05,undefined,,1.8e+26,,,,0.0036401,,,0.00012213,,,,
27946,10.1021/acsenergylett.6b00671,26385,3(a),33046,Sn1.03−yMgyTe(Cu2Te)0.05,undefined,,1.805e+26,,,,0.0036349,,,0.00012207,,,,
27946,10.1021/acsenergylett.6b00671,26385,3(a),33046,Sn1.03−yMgyTe(Cu2Te)0.05,undefined,,1.81e+26,,,,0.0036296,,,0.00012201,,,,
27946,10.1021/acsenergylett.6b00671,26385,3(a),33046,Sn1.03−yMgyTe(Cu2Te)0.05,undefined,,1.815e+26,,,,0.0036244,,,0.00012196,,,,
27946,10.1021/acsenergylett.6b00671,26385,3(a),33046,Sn1.03−yMgyTe(Cu2Te)0.05,undefined,,1.82e+26,,,,0.0036191,,,0.0001219,,,,
27946,10.1021/acsenergylett.6b00671,26385,3(a),33046,Sn1.03−yMgyTe(Cu2Te)0.05,undefined,,1.825e+26,,,,0.0036138,,,0.00012184,,,,
27946,10.1021/acsenergylett.6b00671,26385,3(a),33046,Sn1.03−yMgyTe(Cu2Te)0.05,undefined,,1.83e+26,,,,0.0036086,,,0.00012178,,,,
27946,10.1021/acsenergylett.6b00671,26385,3(a),33046,Sn1.03−yMgyTe(Cu2Te)0.05,undefined,,1.835e+26,,,,0.0036033,,,0.00012172,,,,
27946,10.1021/acsenergylett.6b00671,26385,3(a),33046,Sn1.03−yMgyTe(Cu2Te)0.05,undefined,,1.84e+26,,,,0.0035981,,,0.00012166,,,,
27946,10.1021/acsenergylett.6b00671,26385,3(a),33046,Sn1.03−yMgyTe(Cu2Te)0.05,undefined,,1.845e+26,,,,0.0035928,,,0.00012161,,,,
27946,10.1021/acsenergylett.6b00671,26385,3(a),33046,Sn1.03−yMgyTe(Cu2Te)0.05,undefined,,1.85e+26,,,,0.0035875,,,0.00012155,,,,
27946,10.1021/acsenergylett.6b00671,26385,3(a),33046,Sn1.03−yMgyTe(Cu2Te)0.05,undefined,,1.855e+26,,,,0.0035823,,,0.00012149,,,,
27946,10.1021/acsenergylett.6b00671,26385,3(a),33046,Sn1.03−yMgyTe(Cu2Te)0.05,undefined,,1.86e+26,,,,0.003577,,,0.00012143,,,,
27946,10.1021/acsenergylett.6b00671,26385,3(a),33046,Sn1.03−yMgyTe(Cu2Te)0.05,undefined,,1.865e+26,,,,0.0035718,,,0.00012137,,,,
27946,10.1021/acsenergylett.6b00671,26385,3(a),33046,Sn1.03−yMgyTe(Cu2Te)0.05,undefined,,1.87e+26,,,,0.0035665,,,0.00012131,,,,
27946,10.1021/acsenergylett.6b00671,26385,3(a),33046,Sn1.03−yMgyTe(Cu2Te)0.05,undefined,,1.875e+26,,,,0.0035613,,,0.00012125,,,,
27946,10.1021/acsenergylett.6b00671,26385,3(a),33046,Sn1.03−yMgyTe(Cu2Te)0.05,undefined,,1.88e+26,,,,0.003556,,,0.0001212,,,,
27946,10.1021/acsenergylett.6b00671,26385,3(a),33046,Sn1.03−yMgyTe(Cu2Te)0.05,undefined,,1.885e+26,,,,0.0035507,,,0.00012114,,,,
27946,10.1021/acsenergylett.6b00671,26385,3(a),33046,Sn1.03−yMgyTe(Cu2Te)0.05,undefined,,1.89e+26,,,,0.0035455,,,0.00012108,,,,
27946,10.1021/acsenergylett.6b00671,26385,3(a),33046,Sn1.03−yMgyTe(Cu2Te)0.05,undefined,,1.895e+26,,,,0.0035402,,,0.00012102,,,,
27946,10.1021/acsenergylett.6b00671,26385,3(a),33046,Sn1.03−yMgyTe(Cu2Te)0.05,undefined,,1.9e+26,,,,0.003535,,,0.00012096,,,,
27946,10.1021/acsenergylett.6b00671,26385,3(a),33046,Sn1.03−yMgyTe(Cu2Te)0.05,undefined,,1.905e+26,,,,0.0035297,,,0.0001209,,,,
27946,10.1021/acsenergylett.6b00671,26385,3(a),33046,Sn1.03−yMgyTe(Cu2Te)0.05,undefined,,1.91e+26,,,,0.0035244,,,0.00012085,,,,
27946,10.1021/acsenergylett.6b00671,26385,3(a),33046,Sn1.03−yMgyTe(Cu2Te)0.05,undefined,,1.915e+26,,,,0.0035192,,,0.00012079,,,,
27946,10.1021/acsenergylett.6b00671,26385,3(a),33046,Sn1.03−yMgyTe(Cu2Te)0.05,undefined,,1.92e+26,,,,0.0035139,,,0.00012073,,,,
27946,10.1021/acsenergylett.6b00671,26385,3(a),33046,Sn1.03−yMgyTe(Cu2Te)0.05,undefined,,1.925e+26,,,,0.0035087,,,0.00012067,,,,
27946,10.1021/acsenergylett.6b00671,26385,3(a),33046,Sn1.03−yMgyTe(Cu2Te)0.05,undefined,,1.93e+26,,,,0.0035034,,,0.00012061,,,,
27946,10.1021/acsenergylett.6b00671,26385,3(a),33046,Sn1.03−yMgyTe(Cu2Te)0.05,undefined,,1.935e+26,,,,0.0034982,,,0.00012055,,,,
27946,10.1021/acsenergylett.6b00671,26385,3(a),33046,Sn1.03−yMgyTe(Cu2Te)0.05,undefined,,1.94e+26,,,,0.0034929,,,0.00012049,,,,
27946,10.1021/acsenergylett.6b00671,26385,3(a),33046,Sn1.03−yMgyTe(Cu2Te)0.05,undefined,,1.945e+26,,,,0.0034876,,,0.00012044,,,,
27946,10.1021/acsenergylett.6b00671,26385,3(a),33046,Sn1.03−yMgyTe(Cu2Te)0.05,undefined,,1.95e+26,,,,0.0034824,,,0.00012038,,,,
27946,10.1021/acsenergylett.6b00671,26385,3(a),33046,Sn1.03−yMgyTe(Cu2Te)0.05,undefined,,1.955e+26,,,,0.0034771,,,0.00012032,,,,
27946,10.1021/acsenergylett.6b00671,26385,3(a),33046,Sn1.03−yMgyTe(Cu2Te)0.05,undefined,,1.96e+26,,,,0.0034719,,,0.00012026,,,,
27946,10.1021/acsenergylett.6b00671,26385,3(a),33046,Sn1.03−yMgyTe(Cu2Te)0.05,undefined,,1.965e+26,,,,0.0034666,,,0.0001202,,,,
27946,10.1021/acsenergylett.6b00671,26385,3(a),33046,Sn1.03−yMgyTe(Cu2Te)0.05,undefined,,1.97e+26,,,,0.0034613,,,0.00012014,,,,
27946,10.1021/acsenergylett.6b00671,26385,3(a),33046,Sn1.03−yMgyTe(Cu2Te)0.05,undefined,,1.975e+26,,,,0.0034561,,,0.00012009,,,,
27946,10.1021/acsenergylett.6b00671,26385,3(a),33046,Sn1.03−yMgyTe(Cu2Te)0.05,undefined,,1.98e+26,,,,0.0034508,,,0.00012003,,,,
27946,10.1021/acsenergylett.6b00671,26385,3(a),33046,Sn1.03−yMgyTe(Cu2Te)0.05,undefined,,1.985e+26,,,,0.0034456,,,0.00011997,,,,
27946,10.1021/acsenergylett.6b00671,26385,3(a),33046,Sn1.03−yMgyTe(Cu2Te)0.05,undefined,,1.99e+26,,,,0.0034403,,,0.00011991,,,,
27946,10.1021/acsenergylett.6b00671,26385,3(a),33046,Sn1.03−yMgyTe(Cu2Te)0.05,undefined,,1.995e+26,,,,0.0034351,,,0.00011985,,,,
27946,10.1021/acsenergylett.6b00671,26385,3(a),33046,Sn1.03−yMgyTe(Cu2Te)0.05,undefined,,2e+26,,,,0.0034298,,,0.00011979,,,,
27946,10.1021/acsenergylett.6b00671,26385,3(a),33046,Sn1.03−yMgyTe(Cu2Te)0.05,undefined,,2.005e+26,,,,0.0034245,,,0.00011973,,,,
27946,10.1021/acsenergylett.6b00671,26385,3(a),33046,Sn1.03−yMgyTe(Cu2Te)0.05,undefined,,2.01e+26,,,,0.0034193,,,0.00011968,,,,
27946,10.1021/acsenergylett.6b00671,26385,3(a),33046,Sn1.03−yMgyTe(Cu2Te)0.05,undefined,,2.015e+26,,,,0.003414,,,0.00011962,,,,
27946,10.1021/acsenergylett.6b00671,26385,3(a),33046,Sn1.03−yMgyTe(Cu2Te)0.05,undefined,,2.02e+26,,,,0.0034088,,,0.00011956,,,,
27946,10.1021/acsenergylett.6b00671,26385,3(a),33046,Sn1.03−yMgyTe(Cu2Te)0.05,undefined,,2.025e+26,,,,0.0034035,,,0.0001195,,,,
27946,10.1021/acsenergylett.6b00671,26385,3(a),33046,Sn1.03−yMgyTe(Cu2Te)0.05,undefined,,2.03e+26,,,,0.0033982,,,0.00011944,,,,
27946,10.1021/acsenergylett.6b00671,26385,3(a),33046,Sn1.03−yMgyTe(Cu2Te)0.05,undefined,,2.035e+26,,,,0.003393,,,0.00011938,,,,
27946,10.1021/acsenergylett.6b00671,26385,3(a),33046,Sn1.03−yMgyTe(Cu2Te)0.05,undefined,,2.04e+26,,,,0.0033877,,,0.00011932,,,,
27946,10.1021/acsenergylett.6b00671,26385,3(a),33046,Sn1.03−yMgyTe(Cu2Te)0.05,undefined,,2.045e+26,,,,0.0033825,,,0.00011927,,,,
27946,10.1021/acsenergylett.6b00671,26385,3(a),33046,Sn1.03−yMgyTe(Cu2Te)0.05,undefined,,2.05e+26,,,,0.0033772,,,0.00011921,,,,
27946,10.1021/acsenergylett.6b00671,26385,3(a),33046,Sn1.03−yMgyTe(Cu2Te)0.05,undefined,,2.055e+26,,,,0.003372,,,0.00011915,,,,
27946,10.1021/acsenergylett.6b00671,26385,3(a),33046,Sn1.03−yMgyTe(Cu2Te)0.05,undefined,,2.06e+26,,,,0.0033667,,,0.00011909,,,,
27946,10.1021/acsenergylett.6b00671,26385,3(a),33046,Sn1.03−yMgyTe(Cu2Te)0.05,undefined,,2.065e+26,,,,0.0033614,,,0.00011903,,,,
27946,10.1021/acsenergylett.6b00671,26385,3(a),33046,Sn1.03−yMgyTe(Cu2Te)0.05,undefined,,2.07e+26,,,,0.0033562,,,0.00011897,,,,
27946,10.1021/acsenergylett.6b00671,26385,3(a),33046,Sn1.03−yMgyTe(Cu2Te)0.05,undefined,,2.075e+26,,,,0.0033509,,,0.00011892,,,,
27946,10.1021/acsenergylett.6b00671,26385,3(a),33046,Sn1.03−yMgyTe(Cu2Te)0.05,undefined,,2.08e+26,,,,0.0033457,,,0.00011886,,,,
27946,10.1021/acsenergylett.6b00671,26385,3(a),33046,Sn1.03−yMgyTe(Cu2Te)0.05,undefined,,2.085e+26,,,,0.0033404,,,0.0001188,,,,
27946,10.1021/acsenergylett.6b00671,26385,3(a),33046,Sn1.03−yMgyTe(Cu2Te)0.05,undefined,,2.09e+26,,,,0.0033351,,,0.00011874,,,,
27946,10.1021/acsenergylett.6b00671,26385,3(a),33046,Sn1.03−yMgyTe(Cu2Te)0.05,undefined,,2.095e+26,,,,0.0033299,,,0.00011868,,,,
27946,10.1021/acsenergylett.6b00671,26385,3(a),33046,Sn1.03−yMgyTe(Cu2Te)0.05,undefined,,2.1e+26,,,,0.0033246,,,0.00011862,,,,
27946,10.1021/acsenergylett.6b00671,26385,3(a),33046,Sn1.03−yMgyTe(Cu2Te)0.05,undefined,,2.105e+26,,,,0.0033194,,,0.00011856,,,,
27946,10.1021/acsenergylett.6b00671,26385,3(a),33046,Sn1.03−yMgyTe(Cu2Te)0.05,undefined,,2.11e+26,,,,0.0033141,,,0.00011851,,,,
27946,10.1021/acsenergylett.6b00671,26385,3(a),33046,Sn1.03−yMgyTe(Cu2Te)0.05,undefined,,2.115e+26,,,,0.0033089,,,0.00011845,,,,
27946,10.1021/acsenergylett.6b00671,26385,3(a),33046,Sn1.03−yMgyTe(Cu2Te)0.05,undefined,,2.12e+26,,,,0.0033036,,,0.00011839,,,,
27946,10.1021/acsenergylett.6b00671,26385,3(a),33046,Sn1.03−yMgyTe(Cu2Te)0.05,undefined,,2.125e+26,,,,0.0032983,,,0.00011833,,,,
27946,10.1021/acsenergylett.6b00671,26385,3(a),33046,Sn1.03−yMgyTe(Cu2Te)0.05,undefined,,2.13e+26,,,,0.0032931,,,0.00011827,,,,
27946,10.1021/acsenergylett.6b00671,26385,3(a),33046,Sn1.03−yMgyTe(Cu2Te)0.05,undefined,,2.135e+26,,,,0.0032878,,,0.00011821,,,,
27946,10.1021/acsenergylett.6b00671,26385,3(a),33046,Sn1.03−yMgyTe(Cu2Te)0.05,undefined,,2.14e+26,,,,0.0032826,,,0.00011816,,,,
27946,10.1021/acsenergylett.6b00671,26385,3(a),33046,Sn1.03−yMgyTe(Cu2Te)0.05,undefined,,2.145e+26,,,,0.0032773,,,0.0001181,,,,
27946,10.1021/acsenergylett.6b00671,26385,3(a),33046,Sn1.03−yMgyTe(Cu2Te)0.05,undefined,,2.15e+26,,,,0.003272,,,0.00011804,,,,
27946,10.1021/acsenergylett.6b00671,26385,3(a),33046,Sn1.03−yMgyTe(Cu2Te)0.05,undefined,,2.155e+26,,,,0.0032668,,,0.00011798,,,,
27946,10.1021/acsenergylett.6b00671,26385,3(a),33046,Sn1.03−yMgyTe(Cu2Te)0.05,undefined,,2.16e+26,,,,0.0032615,,,0.00011792,,,,
27946,10.1021/acsenergylett.6b00671,26385,3(a),33046,Sn1.03−yMgyTe(Cu2Te)0.05,undefined,,2.165e+26,,,,0.0032563,,,0.00011786,,,,
27946,10.1021/acsenergylett.6b00671,26385,3(a),33046,Sn1.03−yMgyTe(Cu2Te)0.05,undefined,,2.17e+26,,,,0.003251,,,0.0001178,,,,
27946,10.1021/acsenergylett.6b00671,26385,3(a),33046,Sn1.03−yMgyTe(Cu2Te)0.05,undefined,,2.175e+26,,,,0.0032458,,,0.00011775,,,,
27946,10.1021/acsenergylett.6b00671,26385,3(a),33046,Sn1.03−yMgyTe(Cu2Te)0.05,undefined,,2.18e+26,,,,0.0032405,,,0.00011769,,,,
27946,10.1021/acsenergylett.6b00671,26385,3(a),33046,Sn1.03−yMgyTe(Cu2Te)0.05,undefined,,2.185e+26,,,,0.0032352,,,0.00011763,,,,
27946,10.1021/acsenergylett.6b00671,26385,3(a),33046,Sn1.03−yMgyTe(Cu2Te)0.05,undefined,,2.19e+26,,,,0.00323,,,0.00011757,,,,
27946,10.1021/acsenergylett.6b00671,26385,3(a),33046,Sn1.03−yMgyTe(Cu2Te)0.05,undefined,,2.195e+26,,,,0.0032247,,,0.00011751,,,,
27946,10.1021/acsenergylett.6b00671,26385,3(a),33046,Sn1.03−yMgyTe(Cu2Te)0.05,undefined,,2.2e+26,,,,0.0032195,,,0.00011745,,,,
27946,10.1021/acsenergylett.6b00671,26385,3(a),33046,Sn1.03−yMgyTe(Cu2Te)0.05,undefined,,2.205e+26,,,,0.0032142,,,0.0001174,,,,
27946,10.1021/acsenergylett.6b00671,26385,3(a),33046,Sn1.03−yMgyTe(Cu2Te)0.05,undefined,,2.21e+26,,,,0.0032089,,,0.00011734,,,,
27946,10.1021/acsenergylett.6b00671,26385,3(a),33046,Sn1.03−yMgyTe(Cu2Te)0.05,undefined,,2.215e+26,,,,0.0032037,,,0.00011728,,,,
27946,10.1021/acsenergylett.6b00671,26385,3(a),33046,Sn1.03−yMgyTe(Cu2Te)0.05,undefined,,2.22e+26,,,,0.0031984,,,0.00011722,,,,
27946,10.1021/acsenergylett.6b00671,26385,3(a),33046,Sn1.03−yMgyTe(Cu2Te)0.05,undefined,,2.225e+26,,,,0.0031932,,,0.00011716,,,,
27946,10.1021/acsenergylett.6b00671,26385,3(a),33046,Sn1.03−yMgyTe(Cu2Te)0.05,undefined,,2.23e+26,,,,0.0031879,,,0.0001171,,,,
27946,10.1021/acsenergylett.6b00671,26385,3(a),33046,Sn1.03−yMgyTe(Cu2Te)0.05,undefined,,2.235e+26,,,,0.0031827,,,0.00011704,,,,
27946,10.1021/acsenergylett.6b00671,26385,3(a),33046,Sn1.03−yMgyTe(Cu2Te)0.05,undefined,,2.24e+26,,,,0.0031774,,,0.00011699,,,,
27946,10.1021/acsenergylett.6b00671,26385,3(a),33046,Sn1.03−yMgyTe(Cu2Te)0.05,undefined,,2.245e+26,,,,0.0031721,,,0.00011693,,,,
27946,10.1021/acsenergylett.6b00671,26385,3(a),33046,Sn1.03−yMgyTe(Cu2Te)0.05,undefined,,2.25e+26,,,,0.0031669,,,0.00011687,,,,
27946,10.1021/acsenergylett.6b00671,26385,3(a),33046,Sn1.03−yMgyTe(Cu2Te)0.05,undefined,,2.255e+26,,,,0.0031616,,,0.00011681,,,,
27946,10.1021/acsenergylett.6b00671,26385,3(a),33046,Sn1.03−yMgyTe(Cu2Te)0.05,undefined,,2.26e+26,,,,0.0031564,,,0.00011675,,,,
27946,10.1021/acsenergylett.6b00671,26385,3(a),33046,Sn1.03−yMgyTe(Cu2Te)0.05,undefined,,2.265e+26,,,,0.0031511,,,0.00011669,,,,
27946,10.1021/acsenergylett.6b00671,26385,3(a),33046,Sn1.03−yMgyTe(Cu2Te)0.05,undefined,,2.27e+26,,,,0.0031458,,,0.00011663,,,,
27946,10.1021/acsenergylett.6b00671,26385,3(a),33046,Sn1.03−yMgyTe(Cu2Te)0.05,undefined,,2.275e+26,,,,0.0031406,,,0.00011658,,,,
27946,10.1021/acsenergylett.6b00671,26385,3(a),33046,Sn1.03−yMgyTe(Cu2Te)0.05,undefined,,2.28e+26,,,,0.0031353,,,0.00011652,,,,
27946,10.1021/acsenergylett.6b00671,26385,3(a),33046,Sn1.03−yMgyTe(Cu2Te)0.05,undefined,,2.285e+26,,,,0.0031301,,,0.00011646,,,,
27946,10.1021/acsenergylett.6b00671,26385,3(a),33046,Sn1.03−yMgyTe(Cu2Te)0.05,undefined,,2.29e+26,,,,0.0031248,,,0.0001164,,,,
27946,10.1021/acsenergylett.6b00671,26385,3(a),33046,Sn1.03−yMgyTe(Cu2Te)0.05,undefined,,2.295e+26,,,,0.0031196,,,0.00011634,,,,
27946,10.1021/acsenergylett.6b00671,26385,3(a),33046,Sn1.03−yMgyTe(Cu2Te)0.05,undefined,,2.3e+26,,,,0.0031143,,,0.00011628,,,,
27946,10.1021/acsenergylett.6b00671,26385,3(a),33046,Sn1.03−yMgyTe(Cu2Te)0.05,undefined,,2.305e+26,,,,0.003109,,,0.00011623,,,,
27946,10.1021/acsenergylett.6b00671,26385,3(a),33046,Sn1.03−yMgyTe(Cu2Te)0.05,undefined,,2.31e+26,,,,0.0031038,,,0.00011617,,,,