sid,DOI,figureid,fignum,sampleid,samplename,composition,Temperature,Carrier concentration,Electrical conductivity,Electrical resistivity,Hall coefficient,Hall movility,Lattice thermal conductivity,Power factor,Seebeck coefficient,Thermal conductivity,ZT,total thermal conductivity,Figure of merit Z
27946,10.1021/acsenergylett.6b00671,26385,3(a),33045,Sn0.91Mg0.12Te(Cu2Te)x,undefined,,2.725e+26,,,,0.0053165,,,0.000029691,,,,
27946,10.1021/acsenergylett.6b00671,26385,3(a),33045,Sn0.91Mg0.12Te(Cu2Te)x,undefined,,2.73e+26,,,,0.0053037,,,0.000029693,,,,
27946,10.1021/acsenergylett.6b00671,26385,3(a),33045,Sn0.91Mg0.12Te(Cu2Te)x,undefined,,2.735e+26,,,,0.0052909,,,0.000029695,,,,
27946,10.1021/acsenergylett.6b00671,26385,3(a),33045,Sn0.91Mg0.12Te(Cu2Te)x,undefined,,2.74e+26,,,,0.0052781,,,0.000029697,,,,
27946,10.1021/acsenergylett.6b00671,26385,3(a),33045,Sn0.91Mg0.12Te(Cu2Te)x,undefined,,2.745e+26,,,,0.0052653,,,0.0000297,,,,
27946,10.1021/acsenergylett.6b00671,26385,3(a),33045,Sn0.91Mg0.12Te(Cu2Te)x,undefined,,2.75e+26,,,,0.0052525,,,0.000029702,,,,
27946,10.1021/acsenergylett.6b00671,26385,3(a),33045,Sn0.91Mg0.12Te(Cu2Te)x,undefined,,2.755e+26,,,,0.0052397,,,0.000029704,,,,
27946,10.1021/acsenergylett.6b00671,26385,3(a),33045,Sn0.91Mg0.12Te(Cu2Te)x,undefined,,2.76e+26,,,,0.0052269,,,0.000029707,,,,
27946,10.1021/acsenergylett.6b00671,26385,3(a),33045,Sn0.91Mg0.12Te(Cu2Te)x,undefined,,2.765e+26,,,,0.0052141,,,0.000029709,,,,
27946,10.1021/acsenergylett.6b00671,26385,3(a),33045,Sn0.91Mg0.12Te(Cu2Te)x,undefined,,2.77e+26,,,,0.0052013,,,0.000029711,,,,
27946,10.1021/acsenergylett.6b00671,26385,3(a),33045,Sn0.91Mg0.12Te(Cu2Te)x,undefined,,2.775e+26,,,,0.0051885,,,0.000029714,,,,
27946,10.1021/acsenergylett.6b00671,26385,3(a),33045,Sn0.91Mg0.12Te(Cu2Te)x,undefined,,2.78e+26,,,,0.0051757,,,0.000029716,,,,
27946,10.1021/acsenergylett.6b00671,26385,3(a),33045,Sn0.91Mg0.12Te(Cu2Te)x,undefined,,2.785e+26,,,,0.0051629,,,0.000029718,,,,
27946,10.1021/acsenergylett.6b00671,26385,3(a),33045,Sn0.91Mg0.12Te(Cu2Te)x,undefined,,2.79e+26,,,,0.0051501,,,0.000029721,,,,
27946,10.1021/acsenergylett.6b00671,26385,3(a),33045,Sn0.91Mg0.12Te(Cu2Te)x,undefined,,2.795e+26,,,,0.0051373,,,0.000029723,,,,
27946,10.1021/acsenergylett.6b00671,26385,3(a),33045,Sn0.91Mg0.12Te(Cu2Te)x,undefined,,2.8e+26,,,,0.0051245,,,0.000029725,,,,
27946,10.1021/acsenergylett.6b00671,26385,3(a),33045,Sn0.91Mg0.12Te(Cu2Te)x,undefined,,2.805e+26,,,,0.0051117,,,0.000029727,,,,
27946,10.1021/acsenergylett.6b00671,26385,3(a),33045,Sn0.91Mg0.12Te(Cu2Te)x,undefined,,2.81e+26,,,,0.005099,,,0.00002973,,,,
27946,10.1021/acsenergylett.6b00671,26385,3(a),33045,Sn0.91Mg0.12Te(Cu2Te)x,undefined,,2.815e+26,,,,0.0050862,,,0.000029732,,,,
27946,10.1021/acsenergylett.6b00671,26385,3(a),33045,Sn0.91Mg0.12Te(Cu2Te)x,undefined,,2.82e+26,,,,0.0050734,,,0.000029734,,,,
27946,10.1021/acsenergylett.6b00671,26385,3(a),33045,Sn0.91Mg0.12Te(Cu2Te)x,undefined,,2.825e+26,,,,0.0050606,,,0.000029737,,,,
27946,10.1021/acsenergylett.6b00671,26385,3(a),33045,Sn0.91Mg0.12Te(Cu2Te)x,undefined,,2.83e+26,,,,0.0050478,,,0.000029739,,,,
27946,10.1021/acsenergylett.6b00671,26385,3(a),33045,Sn0.91Mg0.12Te(Cu2Te)x,undefined,,2.835e+26,,,,0.005035,,,0.000029741,,,,
27946,10.1021/acsenergylett.6b00671,26385,3(a),33045,Sn0.91Mg0.12Te(Cu2Te)x,undefined,,2.84e+26,,,,0.0050222,,,0.000029744,,,,
27946,10.1021/acsenergylett.6b00671,26385,3(a),33045,Sn0.91Mg0.12Te(Cu2Te)x,undefined,,2.845e+26,,,,0.0050094,,,0.000029746,,,,
27946,10.1021/acsenergylett.6b00671,26385,3(a),33045,Sn0.91Mg0.12Te(Cu2Te)x,undefined,,2.85e+26,,,,0.0049966,,,0.000029748,,,,
27946,10.1021/acsenergylett.6b00671,26385,3(a),33045,Sn0.91Mg0.12Te(Cu2Te)x,undefined,,2.855e+26,,,,0.0049838,,,0.000029751,,,,
27946,10.1021/acsenergylett.6b00671,26385,3(a),33045,Sn0.91Mg0.12Te(Cu2Te)x,undefined,,2.86e+26,,,,0.004971,,,0.000029753,,,,
27946,10.1021/acsenergylett.6b00671,26385,3(a),33045,Sn0.91Mg0.12Te(Cu2Te)x,undefined,,2.865e+26,,,,0.0049582,,,0.000029755,,,,
27946,10.1021/acsenergylett.6b00671,26385,3(a),33045,Sn0.91Mg0.12Te(Cu2Te)x,undefined,,2.87e+26,,,,0.0049454,,,0.000029757,,,,
27946,10.1021/acsenergylett.6b00671,26385,3(a),33045,Sn0.91Mg0.12Te(Cu2Te)x,undefined,,2.875e+26,,,,0.0049326,,,0.00002976,,,,
27946,10.1021/acsenergylett.6b00671,26385,3(a),33045,Sn0.91Mg0.12Te(Cu2Te)x,undefined,,2.88e+26,,,,0.0049198,,,0.000029762,,,,
27946,10.1021/acsenergylett.6b00671,26385,3(a),33045,Sn0.91Mg0.12Te(Cu2Te)x,undefined,,2.885e+26,,,,0.004907,,,0.000029764,,,,
27946,10.1021/acsenergylett.6b00671,26385,3(a),33045,Sn0.91Mg0.12Te(Cu2Te)x,undefined,,2.89e+26,,,,0.0048942,,,0.000029767,,,,
27946,10.1021/acsenergylett.6b00671,26385,3(a),33045,Sn0.91Mg0.12Te(Cu2Te)x,undefined,,2.895e+26,,,,0.0048814,,,0.000029769,,,,
27946,10.1021/acsenergylett.6b00671,26385,3(a),33045,Sn0.91Mg0.12Te(Cu2Te)x,undefined,,2.9e+26,,,,0.0048686,,,0.000029771,,,,
27946,10.1021/acsenergylett.6b00671,26385,3(a),33045,Sn0.91Mg0.12Te(Cu2Te)x,undefined,,2.905e+26,,,,0.0048558,,,0.000029774,,,,
27946,10.1021/acsenergylett.6b00671,26385,3(a),33045,Sn0.91Mg0.12Te(Cu2Te)x,undefined,,2.91e+26,,,,0.004843,,,0.000029776,,,,
27946,10.1021/acsenergylett.6b00671,26385,3(a),33045,Sn0.91Mg0.12Te(Cu2Te)x,undefined,,2.915e+26,,,,0.0048302,,,0.000029778,,,,
27946,10.1021/acsenergylett.6b00671,26385,3(a),33045,Sn0.91Mg0.12Te(Cu2Te)x,undefined,,2.92e+26,,,,0.0048174,,,0.00002978,,,,
27946,10.1021/acsenergylett.6b00671,26385,3(a),33045,Sn0.91Mg0.12Te(Cu2Te)x,undefined,,2.925e+26,,,,0.0048046,,,0.000029783,,,,
27946,10.1021/acsenergylett.6b00671,26385,3(a),33045,Sn0.91Mg0.12Te(Cu2Te)x,undefined,,2.93e+26,,,,0.0047918,,,0.000029785,,,,
27946,10.1021/acsenergylett.6b00671,26385,3(a),33045,Sn0.91Mg0.12Te(Cu2Te)x,undefined,,2.935e+26,,,,0.004779,,,0.000029787,,,,
27946,10.1021/acsenergylett.6b00671,26385,3(a),33045,Sn0.91Mg0.12Te(Cu2Te)x,undefined,,2.94e+26,,,,0.0047663,,,0.00002979,,,,
27946,10.1021/acsenergylett.6b00671,26385,3(a),33045,Sn0.91Mg0.12Te(Cu2Te)x,undefined,,2.945e+26,,,,0.0047535,,,0.000029792,,,,
27946,10.1021/acsenergylett.6b00671,26385,3(a),33045,Sn0.91Mg0.12Te(Cu2Te)x,undefined,,2.95e+26,,,,0.0047407,,,0.000029794,,,,
27946,10.1021/acsenergylett.6b00671,26385,3(a),33045,Sn0.91Mg0.12Te(Cu2Te)x,undefined,,2.955e+26,,,,0.0047279,,,0.000029797,,,,
27946,10.1021/acsenergylett.6b00671,26385,3(a),33045,Sn0.91Mg0.12Te(Cu2Te)x,undefined,,2.96e+26,,,,0.0047151,,,0.000029799,,,,
27946,10.1021/acsenergylett.6b00671,26385,3(a),33045,Sn0.91Mg0.12Te(Cu2Te)x,undefined,,2.965e+26,,,,0.0047023,,,0.000029801,,,,
27946,10.1021/acsenergylett.6b00671,26385,3(a),33045,Sn0.91Mg0.12Te(Cu2Te)x,undefined,,2.97e+26,,,,0.0046895,,,0.000029804,,,,
27946,10.1021/acsenergylett.6b00671,26385,3(a),33045,Sn0.91Mg0.12Te(Cu2Te)x,undefined,,2.975e+26,,,,0.0046767,,,0.000029806,,,,
27946,10.1021/acsenergylett.6b00671,26385,3(a),33045,Sn0.91Mg0.12Te(Cu2Te)x,undefined,,2.98e+26,,,,0.0046639,,,0.000029808,,,,
27946,10.1021/acsenergylett.6b00671,26385,3(a),33045,Sn0.91Mg0.12Te(Cu2Te)x,undefined,,2.985e+26,,,,0.0046511,,,0.00002981,,,,
27946,10.1021/acsenergylett.6b00671,26385,3(a),33045,Sn0.91Mg0.12Te(Cu2Te)x,undefined,,2.99e+26,,,,0.0046383,,,0.000029813,,,,
27946,10.1021/acsenergylett.6b00671,26385,3(a),33045,Sn0.91Mg0.12Te(Cu2Te)x,undefined,,2.995e+26,,,,0.0046255,,,0.000029815,,,,
27946,10.1021/acsenergylett.6b00671,26385,3(a),33045,Sn0.91Mg0.12Te(Cu2Te)x,undefined,,3e+26,,,,0.0046127,,,0.000029817,,,,
27946,10.1021/acsenergylett.6b00671,26385,3(a),33045,Sn0.91Mg0.12Te(Cu2Te)x,undefined,,3.005e+26,,,,0.0045999,,,0.00002982,,,,
27946,10.1021/acsenergylett.6b00671,26385,3(a),33045,Sn0.91Mg0.12Te(Cu2Te)x,undefined,,3.01e+26,,,,0.0045871,,,0.000029822,,,,
27946,10.1021/acsenergylett.6b00671,26385,3(a),33045,Sn0.91Mg0.12Te(Cu2Te)x,undefined,,3.015e+26,,,,0.0045743,,,0.000029824,,,,
27946,10.1021/acsenergylett.6b00671,26385,3(a),33045,Sn0.91Mg0.12Te(Cu2Te)x,undefined,,3.02e+26,,,,0.0045615,,,0.000029827,,,,
27946,10.1021/acsenergylett.6b00671,26385,3(a),33045,Sn0.91Mg0.12Te(Cu2Te)x,undefined,,3.025e+26,,,,0.0045487,,,0.000029829,,,,
27946,10.1021/acsenergylett.6b00671,26386,3(b),33045,Sn0.91Mg0.12Te(Cu2Te)x,undefined,,1.07e+26,,,,0.0036703,,,0.00014019,,,,
27946,10.1021/acsenergylett.6b00671,26386,3(b),33045,Sn0.91Mg0.12Te(Cu2Te)x,undefined,,1.075e+26,,,,0.0036662,,,0.00014006,,,,
27946,10.1021/acsenergylett.6b00671,26386,3(b),33045,Sn0.91Mg0.12Te(Cu2Te)x,undefined,,1.08e+26,,,,0.0036621,,,0.00013994,,,,
27946,10.1021/acsenergylett.6b00671,26386,3(b),33045,Sn0.91Mg0.12Te(Cu2Te)x,undefined,,1.085e+26,,,,0.003658,,,0.00013981,,,,
27946,10.1021/acsenergylett.6b00671,26386,3(b),33045,Sn0.91Mg0.12Te(Cu2Te)x,undefined,,1.09e+26,,,,0.0036539,,,0.00013968,,,,
27946,10.1021/acsenergylett.6b00671,26386,3(b),33045,Sn0.91Mg0.12Te(Cu2Te)x,undefined,,1.095e+26,,,,0.0036498,,,0.00013955,,,,
27946,10.1021/acsenergylett.6b00671,26386,3(b),33045,Sn0.91Mg0.12Te(Cu2Te)x,undefined,,1.1e+26,,,,0.0036457,,,0.00013942,,,,
27946,10.1021/acsenergylett.6b00671,26386,3(b),33045,Sn0.91Mg0.12Te(Cu2Te)x,undefined,,1.105e+26,,,,0.0036416,,,0.00013929,,,,
27946,10.1021/acsenergylett.6b00671,26386,3(b),33045,Sn0.91Mg0.12Te(Cu2Te)x,undefined,,1.11e+26,,,,0.0036375,,,0.00013916,,,,
27946,10.1021/acsenergylett.6b00671,26386,3(b),33045,Sn0.91Mg0.12Te(Cu2Te)x,undefined,,1.115e+26,,,,0.0036334,,,0.00013903,,,,
27946,10.1021/acsenergylett.6b00671,26386,3(b),33045,Sn0.91Mg0.12Te(Cu2Te)x,undefined,,1.12e+26,,,,0.0036293,,,0.0001389,,,,
27946,10.1021/acsenergylett.6b00671,26386,3(b),33045,Sn0.91Mg0.12Te(Cu2Te)x,undefined,,1.125e+26,,,,0.0036252,,,0.00013877,,,,
27946,10.1021/acsenergylett.6b00671,26386,3(b),33045,Sn0.91Mg0.12Te(Cu2Te)x,undefined,,1.13e+26,,,,0.0036211,,,0.00013864,,,,
27946,10.1021/acsenergylett.6b00671,26386,3(b),33045,Sn0.91Mg0.12Te(Cu2Te)x,undefined,,1.135e+26,,,,0.0036169,,,0.00013852,,,,
27946,10.1021/acsenergylett.6b00671,26386,3(b),33045,Sn0.91Mg0.12Te(Cu2Te)x,undefined,,1.14e+26,,,,0.0036128,,,0.00013839,,,,
27946,10.1021/acsenergylett.6b00671,26386,3(b),33045,Sn0.91Mg0.12Te(Cu2Te)x,undefined,,1.145e+26,,,,0.0036087,,,0.00013826,,,,
27946,10.1021/acsenergylett.6b00671,26386,3(b),33045,Sn0.91Mg0.12Te(Cu2Te)x,undefined,,1.15e+26,,,,0.0036046,,,0.00013813,,,,
27946,10.1021/acsenergylett.6b00671,26386,3(b),33045,Sn0.91Mg0.12Te(Cu2Te)x,undefined,,1.155e+26,,,,0.0036005,,,0.000138,,,,
27946,10.1021/acsenergylett.6b00671,26386,3(b),33045,Sn0.91Mg0.12Te(Cu2Te)x,undefined,,1.16e+26,,,,0.0035964,,,0.00013787,,,,
27946,10.1021/acsenergylett.6b00671,26386,3(b),33045,Sn0.91Mg0.12Te(Cu2Te)x,undefined,,1.165e+26,,,,0.0035923,,,0.00013774,,,,
27946,10.1021/acsenergylett.6b00671,26386,3(b),33045,Sn0.91Mg0.12Te(Cu2Te)x,undefined,,1.17e+26,,,,0.0035882,,,0.00013761,,,,
27946,10.1021/acsenergylett.6b00671,26386,3(b),33045,Sn0.91Mg0.12Te(Cu2Te)x,undefined,,1.175e+26,,,,0.0035841,,,0.00013748,,,,
27946,10.1021/acsenergylett.6b00671,26386,3(b),33045,Sn0.91Mg0.12Te(Cu2Te)x,undefined,,1.18e+26,,,,0.00358,,,0.00013735,,,,
27946,10.1021/acsenergylett.6b00671,26386,3(b),33045,Sn0.91Mg0.12Te(Cu2Te)x,undefined,,1.185e+26,,,,0.0035759,,,0.00013722,,,,
27946,10.1021/acsenergylett.6b00671,26386,3(b),33045,Sn0.91Mg0.12Te(Cu2Te)x,undefined,,1.19e+26,,,,0.0035718,,,0.00013709,,,,
27946,10.1021/acsenergylett.6b00671,26386,3(b),33045,Sn0.91Mg0.12Te(Cu2Te)x,undefined,,1.195e+26,,,,0.0035677,,,0.00013697,,,,
27946,10.1021/acsenergylett.6b00671,26386,3(b),33045,Sn0.91Mg0.12Te(Cu2Te)x,undefined,,1.2e+26,,,,0.0035636,,,0.00013684,,,,
27946,10.1021/acsenergylett.6b00671,26386,3(b),33045,Sn0.91Mg0.12Te(Cu2Te)x,undefined,,1.205e+26,,,,0.0035595,,,0.00013671,,,,
27946,10.1021/acsenergylett.6b00671,26386,3(b),33045,Sn0.91Mg0.12Te(Cu2Te)x,undefined,,1.21e+26,,,,0.0035554,,,0.00013658,,,,
27946,10.1021/acsenergylett.6b00671,26386,3(b),33045,Sn0.91Mg0.12Te(Cu2Te)x,undefined,,1.215e+26,,,,0.0035512,,,0.00013645,,,,
27946,10.1021/acsenergylett.6b00671,26386,3(b),33045,Sn0.91Mg0.12Te(Cu2Te)x,undefined,,1.22e+26,,,,0.0035471,,,0.00013632,,,,
27946,10.1021/acsenergylett.6b00671,26386,3(b),33045,Sn0.91Mg0.12Te(Cu2Te)x,undefined,,1.225e+26,,,,0.003543,,,0.00013619,,,,
27946,10.1021/acsenergylett.6b00671,26386,3(b),33045,Sn0.91Mg0.12Te(Cu2Te)x,undefined,,1.23e+26,,,,0.0035389,,,0.00013606,,,,
27946,10.1021/acsenergylett.6b00671,26386,3(b),33045,Sn0.91Mg0.12Te(Cu2Te)x,undefined,,1.235e+26,,,,0.0035348,,,0.00013593,,,,
27946,10.1021/acsenergylett.6b00671,26386,3(b),33045,Sn0.91Mg0.12Te(Cu2Te)x,undefined,,1.24e+26,,,,0.0035307,,,0.0001358,,,,
27946,10.1021/acsenergylett.6b00671,26386,3(b),33045,Sn0.91Mg0.12Te(Cu2Te)x,undefined,,1.245e+26,,,,0.0035266,,,0.00013567,,,,
27946,10.1021/acsenergylett.6b00671,26386,3(b),33045,Sn0.91Mg0.12Te(Cu2Te)x,undefined,,1.25e+26,,,,0.0035225,,,0.00013555,,,,
27946,10.1021/acsenergylett.6b00671,26386,3(b),33045,Sn0.91Mg0.12Te(Cu2Te)x,undefined,,1.255e+26,,,,0.0035184,,,0.00013542,,,,
27946,10.1021/acsenergylett.6b00671,26386,3(b),33045,Sn0.91Mg0.12Te(Cu2Te)x,undefined,,1.26e+26,,,,0.0035143,,,0.00013529,,,,
27946,10.1021/acsenergylett.6b00671,26386,3(b),33045,Sn0.91Mg0.12Te(Cu2Te)x,undefined,,1.265e+26,,,,0.0035102,,,0.00013516,,,,
27946,10.1021/acsenergylett.6b00671,26386,3(b),33045,Sn0.91Mg0.12Te(Cu2Te)x,undefined,,1.27e+26,,,,0.0035061,,,0.00013503,,,,
27946,10.1021/acsenergylett.6b00671,26386,3(b),33045,Sn0.91Mg0.12Te(Cu2Te)x,undefined,,1.275e+26,,,,0.003502,,,0.0001349,,,,
27946,10.1021/acsenergylett.6b00671,26386,3(b),33045,Sn0.91Mg0.12Te(Cu2Te)x,undefined,,1.28e+26,,,,0.0034979,,,0.00013477,,,,
27946,10.1021/acsenergylett.6b00671,26386,3(b),33045,Sn0.91Mg0.12Te(Cu2Te)x,undefined,,1.285e+26,,,,0.0034938,,,0.00013464,,,,
27946,10.1021/acsenergylett.6b00671,26386,3(b),33045,Sn0.91Mg0.12Te(Cu2Te)x,undefined,,1.29e+26,,,,0.0034896,,,0.00013451,,,,
27946,10.1021/acsenergylett.6b00671,26386,3(b),33045,Sn0.91Mg0.12Te(Cu2Te)x,undefined,,1.295e+26,,,,0.0034855,,,0.00013438,,,,
27946,10.1021/acsenergylett.6b00671,26386,3(b),33045,Sn0.91Mg0.12Te(Cu2Te)x,undefined,,1.3e+26,,,,0.0034814,,,0.00013425,,,,
27946,10.1021/acsenergylett.6b00671,26386,3(b),33045,Sn0.91Mg0.12Te(Cu2Te)x,undefined,,1.305e+26,,,,0.0034773,,,0.00013412,,,,
27946,10.1021/acsenergylett.6b00671,26386,3(b),33045,Sn0.91Mg0.12Te(Cu2Te)x,undefined,,1.31e+26,,,,0.0034732,,,0.000134,,,,
27946,10.1021/acsenergylett.6b00671,26386,3(b),33045,Sn0.91Mg0.12Te(Cu2Te)x,undefined,,1.315e+26,,,,0.0034691,,,0.00013387,,,,
27946,10.1021/acsenergylett.6b00671,26386,3(b),33045,Sn0.91Mg0.12Te(Cu2Te)x,undefined,,1.32e+26,,,,0.003465,,,0.00013374,,,,
27946,10.1021/acsenergylett.6b00671,26386,3(b),33045,Sn0.91Mg0.12Te(Cu2Te)x,undefined,,1.325e+26,,,,0.0034609,,,0.00013361,,,,
27946,10.1021/acsenergylett.6b00671,26386,3(b),33045,Sn0.91Mg0.12Te(Cu2Te)x,undefined,,1.33e+26,,,,0.0034568,,,0.00013348,,,,
27946,10.1021/acsenergylett.6b00671,26386,3(b),33045,Sn0.91Mg0.12Te(Cu2Te)x,undefined,,1.335e+26,,,,0.0034527,,,0.00013335,,,,
27946,10.1021/acsenergylett.6b00671,26386,3(b),33045,Sn0.91Mg0.12Te(Cu2Te)x,undefined,,1.34e+26,,,,0.0034486,,,0.00013322,,,,
27946,10.1021/acsenergylett.6b00671,26386,3(b),33045,Sn0.91Mg0.12Te(Cu2Te)x,undefined,,1.345e+26,,,,0.0034445,,,0.00013309,,,,
27946,10.1021/acsenergylett.6b00671,26386,3(b),33045,Sn0.91Mg0.12Te(Cu2Te)x,undefined,,1.35e+26,,,,0.0034404,,,0.00013296,,,,
27946,10.1021/acsenergylett.6b00671,26386,3(b),33045,Sn0.91Mg0.12Te(Cu2Te)x,undefined,,1.355e+26,,,,0.0034363,,,0.00013283,,,,
27946,10.1021/acsenergylett.6b00671,26386,3(b),33045,Sn0.91Mg0.12Te(Cu2Te)x,undefined,,1.36e+26,,,,0.0034322,,,0.0001327,,,,
27946,10.1021/acsenergylett.6b00671,26386,3(b),33045,Sn0.91Mg0.12Te(Cu2Te)x,undefined,,1.365e+26,,,,0.003428,,,0.00013258,,,,
27946,10.1021/acsenergylett.6b00671,26386,3(b),33045,Sn0.91Mg0.12Te(Cu2Te)x,undefined,,1.37e+26,,,,0.0034239,,,0.00013245,,,,
27946,10.1021/acsenergylett.6b00671,26386,3(b),33045,Sn0.91Mg0.12Te(Cu2Te)x,undefined,,1.375e+26,,,,0.0034198,,,0.00013232,,,,
27946,10.1021/acsenergylett.6b00671,26386,3(b),33045,Sn0.91Mg0.12Te(Cu2Te)x,undefined,,1.38e+26,,,,0.0034157,,,0.00013219,,,,
27946,10.1021/acsenergylett.6b00671,26386,3(b),33045,Sn0.91Mg0.12Te(Cu2Te)x,undefined,,1.385e+26,,,,0.0034116,,,0.00013206,,,,
27946,10.1021/acsenergylett.6b00671,26387,3(c),33045,Sn0.91Mg0.12Te(Cu2Te)x,undefined,,3.03e+26,,,,0.0045359,,,,,,,
27946,10.1021/acsenergylett.6b00671,26387,3(c),33045,Sn0.91Mg0.12Te(Cu2Te)x,undefined,,3.035e+26,,,,0.0045231,,,,,,,
27946,10.1021/acsenergylett.6b00671,26388,3(d),33045,Sn0.91Mg0.12Te(Cu2Te)x,undefined,,1.06e+26,,,,0.0036785,,,,,,,
27946,10.1021/acsenergylett.6b00671,26388,3(d),33045,Sn0.91Mg0.12Te(Cu2Te)x,undefined,,1.065e+26,,,,0.0036744,,,,,,,
27946,10.1021/acsenergylett.6b00671,26385,3(a),33046,Sn1.03−yMgyTe(Cu2Te)0.05,undefined,,1.42e+26,,,,0.0040398,,,0.00012658,,,,
27946,10.1021/acsenergylett.6b00671,26385,3(a),33046,Sn1.03−yMgyTe(Cu2Te)0.05,undefined,,1.425e+26,,,,0.0040345,,,0.00012652,,,,
27946,10.1021/acsenergylett.6b00671,26385,3(a),33046,Sn1.03−yMgyTe(Cu2Te)0.05,undefined,,1.43e+26,,,,0.0040292,,,0.00012646,,,,
27946,10.1021/acsenergylett.6b00671,26385,3(a),33046,Sn1.03−yMgyTe(Cu2Te)0.05,undefined,,1.435e+26,,,,0.004024,,,0.0001264,,,,
27946,10.1021/acsenergylett.6b00671,26385,3(a),33046,Sn1.03−yMgyTe(Cu2Te)0.05,undefined,,1.44e+26,,,,0.0040187,,,0.00012634,,,,
27946,10.1021/acsenergylett.6b00671,26385,3(a),33046,Sn1.03−yMgyTe(Cu2Te)0.05,undefined,,1.445e+26,,,,0.0040135,,,0.00012628,,,,
27946,10.1021/acsenergylett.6b00671,26385,3(a),33046,Sn1.03−yMgyTe(Cu2Te)0.05,undefined,,1.45e+26,,,,0.0040082,,,0.00012623,,,,
27946,10.1021/acsenergylett.6b00671,26385,3(a),33046,Sn1.03−yMgyTe(Cu2Te)0.05,undefined,,1.455e+26,,,,0.004003,,,0.00012617,,,,
27946,10.1021/acsenergylett.6b00671,26385,3(a),33046,Sn1.03−yMgyTe(Cu2Te)0.05,undefined,,1.46e+26,,,,0.0039977,,,0.00012611,,,,
27946,10.1021/acsenergylett.6b00671,26385,3(a),33046,Sn1.03−yMgyTe(Cu2Te)0.05,undefined,,1.465e+26,,,,0.0039924,,,0.00012605,,,,
27946,10.1021/acsenergylett.6b00671,26385,3(a),33046,Sn1.03−yMgyTe(Cu2Te)0.05,undefined,,1.47e+26,,,,0.0039872,,,0.00012599,,,,
27946,10.1021/acsenergylett.6b00671,26385,3(a),33046,Sn1.03−yMgyTe(Cu2Te)0.05,undefined,,1.475e+26,,,,0.0039819,,,0.00012593,,,,
27946,10.1021/acsenergylett.6b00671,26385,3(a),33046,Sn1.03−yMgyTe(Cu2Te)0.05,undefined,,1.48e+26,,,,0.0039767,,,0.00012587,,,,
27946,10.1021/acsenergylett.6b00671,26385,3(a),33046,Sn1.03−yMgyTe(Cu2Te)0.05,undefined,,1.485e+26,,,,0.0039714,,,0.00012582,,,,
27946,10.1021/acsenergylett.6b00671,26385,3(a),33046,Sn1.03−yMgyTe(Cu2Te)0.05,undefined,,1.49e+26,,,,0.0039661,,,0.00012576,,,,
27946,10.1021/acsenergylett.6b00671,26385,3(a),33046,Sn1.03−yMgyTe(Cu2Te)0.05,undefined,,1.495e+26,,,,0.0039609,,,0.0001257,,,,
27946,10.1021/acsenergylett.6b00671,26385,3(a),33046,Sn1.03−yMgyTe(Cu2Te)0.05,undefined,,1.5e+26,,,,0.0039556,,,0.00012564,,,,
27946,10.1021/acsenergylett.6b00671,26385,3(a),33046,Sn1.03−yMgyTe(Cu2Te)0.05,undefined,,1.505e+26,,,,0.0039504,,,0.00012558,,,,
27946,10.1021/acsenergylett.6b00671,26385,3(a),33046,Sn1.03−yMgyTe(Cu2Te)0.05,undefined,,1.51e+26,,,,0.0039451,,,0.00012552,,,,
27946,10.1021/acsenergylett.6b00671,26385,3(a),33046,Sn1.03−yMgyTe(Cu2Te)0.05,undefined,,1.515e+26,,,,0.0039399,,,0.00012547,,,,
27946,10.1021/acsenergylett.6b00671,26385,3(a),33046,Sn1.03−yMgyTe(Cu2Te)0.05,undefined,,1.52e+26,,,,0.0039346,,,0.00012541,,,,
27946,10.1021/acsenergylett.6b00671,26385,3(a),33046,Sn1.03−yMgyTe(Cu2Te)0.05,undefined,,1.525e+26,,,,0.0039293,,,0.00012535,,,,
27946,10.1021/acsenergylett.6b00671,26385,3(a),33046,Sn1.03−yMgyTe(Cu2Te)0.05,undefined,,1.53e+26,,,,0.0039241,,,0.00012529,,,,
27946,10.1021/acsenergylett.6b00671,26385,3(a),33046,Sn1.03−yMgyTe(Cu2Te)0.05,undefined,,1.535e+26,,,,0.0039188,,,0.00012523,,,,
27946,10.1021/acsenergylett.6b00671,26385,3(a),33046,Sn1.03−yMgyTe(Cu2Te)0.05,undefined,,1.54e+26,,,,0.0039136,,,0.00012517,,,,
27946,10.1021/acsenergylett.6b00671,26385,3(a),33046,Sn1.03−yMgyTe(Cu2Te)0.05,undefined,,1.545e+26,,,,0.0039083,,,0.00012511,,,,