sid,DOI,figureid,fignum,sampleid,samplename,composition,Temperature,Carrier concentration,Electrical conductivity,Electrical resistivity,Hall coefficient,Hall movility,Lattice thermal conductivity,Power factor,Seebeck coefficient,Thermal conductivity,ZT,total thermal conductivity,Figure of merit Z
18603,10.1002/adma.201605887,26266,4(d),32940,Sn(1.03-y)MnyTe(Cu2Te)0.05_ y=0.09 (nH = 1.4e20 cm^-3),undefined,850,,,,,0.00049324,,,,,,,
18603,10.1002/adma.201605887,26266,4(d),32941,Sn(1.03-y)MnyTe(Cu2Te)0.05_ y=0.12 (nH = 1.7e20 cm^-3),undefined,350,,,,,0.0099738,,,,,,,
18603,10.1002/adma.201605887,26266,4(d),32941,Sn(1.03-y)MnyTe(Cu2Te)0.05_ y=0.12 (nH = 1.7e20 cm^-3),undefined,400,,,,,0.0090864,,,,,,,
18603,10.1002/adma.201605887,26266,4(d),32941,Sn(1.03-y)MnyTe(Cu2Te)0.05_ y=0.12 (nH = 1.7e20 cm^-3),undefined,450,,,,,0.008199,,,,,,,
18603,10.1002/adma.201605887,26266,4(d),32941,Sn(1.03-y)MnyTe(Cu2Te)0.05_ y=0.12 (nH = 1.7e20 cm^-3),undefined,500,,,,,0.0073116,,,,,,,
18603,10.1002/adma.201605887,26266,4(d),32941,Sn(1.03-y)MnyTe(Cu2Te)0.05_ y=0.12 (nH = 1.7e20 cm^-3),undefined,550,,,,,0.0064242,,,,,,,
18603,10.1002/adma.201605887,26266,4(d),32941,Sn(1.03-y)MnyTe(Cu2Te)0.05_ y=0.12 (nH = 1.7e20 cm^-3),undefined,600,,,,,0.0055368,,,,,,,
18603,10.1002/adma.201605887,26266,4(d),32941,Sn(1.03-y)MnyTe(Cu2Te)0.05_ y=0.12 (nH = 1.7e20 cm^-3),undefined,650,,,,,0.0046494,,,,,,,
18603,10.1002/adma.201605887,26266,4(d),32941,Sn(1.03-y)MnyTe(Cu2Te)0.05_ y=0.12 (nH = 1.7e20 cm^-3),undefined,700,,,,,0.003762,,,,,,,
18603,10.1002/adma.201605887,26266,4(d),32941,Sn(1.03-y)MnyTe(Cu2Te)0.05_ y=0.12 (nH = 1.7e20 cm^-3),undefined,750,,,,,0.0028746,,,,,,,
18603,10.1002/adma.201605887,26266,4(d),32941,Sn(1.03-y)MnyTe(Cu2Te)0.05_ y=0.12 (nH = 1.7e20 cm^-3),undefined,800,,,,,0.0019872,,,,,,,
18603,10.1002/adma.201605887,26266,4(d),32941,Sn(1.03-y)MnyTe(Cu2Te)0.05_ y=0.12 (nH = 1.7e20 cm^-3),undefined,850,,,,,0.0010998,,,,,,,
18603,10.1002/adma.201605887,26266,4(d),32942,Sn(1.03-y)MnyTe(Cu2Te)0.05_ y=0.14 (nH = 1.4e20 cm^-3),undefined,350,,,,,0.0067451,,,,,,,
18603,10.1002/adma.201605887,26266,4(d),32942,Sn(1.03-y)MnyTe(Cu2Te)0.05_ y=0.14 (nH = 1.4e20 cm^-3),undefined,400,,,,,0.0060542,,,,,,,
18603,10.1002/adma.201605887,26266,4(d),32942,Sn(1.03-y)MnyTe(Cu2Te)0.05_ y=0.14 (nH = 1.4e20 cm^-3),undefined,450,,,,,0.0053634,,,,,,,
18603,10.1002/adma.201605887,26266,4(d),32942,Sn(1.03-y)MnyTe(Cu2Te)0.05_ y=0.14 (nH = 1.4e20 cm^-3),undefined,500,,,,,0.0046725,,,,,,,
18603,10.1002/adma.201605887,26266,4(d),32942,Sn(1.03-y)MnyTe(Cu2Te)0.05_ y=0.14 (nH = 1.4e20 cm^-3),undefined,550,,,,,0.0039816,,,,,,,
18603,10.1002/adma.201605887,26266,4(d),32942,Sn(1.03-y)MnyTe(Cu2Te)0.05_ y=0.14 (nH = 1.4e20 cm^-3),undefined,600,,,,,0.0032908,,,,,,,
18603,10.1002/adma.201605887,26266,4(d),32942,Sn(1.03-y)MnyTe(Cu2Te)0.05_ y=0.14 (nH = 1.4e20 cm^-3),undefined,650,,,,,0.0025999,,,,,,,
18603,10.1002/adma.201605887,26266,4(d),32942,Sn(1.03-y)MnyTe(Cu2Te)0.05_ y=0.14 (nH = 1.4e20 cm^-3),undefined,700,,,,,0.001909,,,,,,,
18603,10.1002/adma.201605887,26266,4(d),32942,Sn(1.03-y)MnyTe(Cu2Te)0.05_ y=0.14 (nH = 1.4e20 cm^-3),undefined,750,,,,,0.0012182,,,,,,,
18603,10.1002/adma.201605887,26266,4(d),32942,Sn(1.03-y)MnyTe(Cu2Te)0.05_ y=0.14 (nH = 1.4e20 cm^-3),undefined,800,,,,,0.0005273,,,,,,,
18603,10.1002/adma.201605887,26266,4(d),32943,Sn(1.03-y)MnyTe(Cu2Te)0.05_ y=0.14 (nH = 1.2e20 cm^-3),undefined,350,,,,,0.0074626,,,,,,,
18603,10.1002/adma.201605887,26266,4(d),32943,Sn(1.03-y)MnyTe(Cu2Te)0.05_ y=0.14 (nH = 1.2e20 cm^-3),undefined,400,,,,,0.0067347,,,,,,,
18603,10.1002/adma.201605887,26266,4(d),32943,Sn(1.03-y)MnyTe(Cu2Te)0.05_ y=0.14 (nH = 1.2e20 cm^-3),undefined,450,,,,,0.0060068,,,,,,,
18603,10.1002/adma.201605887,26266,4(d),32943,Sn(1.03-y)MnyTe(Cu2Te)0.05_ y=0.14 (nH = 1.2e20 cm^-3),undefined,500,,,,,0.0052788,,,,,,,
18603,10.1002/adma.201605887,26266,4(d),32943,Sn(1.03-y)MnyTe(Cu2Te)0.05_ y=0.14 (nH = 1.2e20 cm^-3),undefined,550,,,,,0.0045509,,,,,,,
18603,10.1002/adma.201605887,26266,4(d),32943,Sn(1.03-y)MnyTe(Cu2Te)0.05_ y=0.14 (nH = 1.2e20 cm^-3),undefined,600,,,,,0.0038229,,,,,,,
18603,10.1002/adma.201605887,26266,4(d),32943,Sn(1.03-y)MnyTe(Cu2Te)0.05_ y=0.14 (nH = 1.2e20 cm^-3),undefined,650,,,,,0.003095,,,,,,,
18603,10.1002/adma.201605887,26266,4(d),32943,Sn(1.03-y)MnyTe(Cu2Te)0.05_ y=0.14 (nH = 1.2e20 cm^-3),undefined,700,,,,,0.002367,,,,,,,
18603,10.1002/adma.201605887,26266,4(d),32943,Sn(1.03-y)MnyTe(Cu2Te)0.05_ y=0.14 (nH = 1.2e20 cm^-3),undefined,750,,,,,0.0016391,,,,,,,
18603,10.1002/adma.201605887,26266,4(d),32943,Sn(1.03-y)MnyTe(Cu2Te)0.05_ y=0.14 (nH = 1.2e20 cm^-3),undefined,800,,,,,0.00091114,,,,,,,
18603,10.1002/adma.201605887,26266,4(d),32943,Sn(1.03-y)MnyTe(Cu2Te)0.05_ y=0.14 (nH = 1.2e20 cm^-3),undefined,850,,,,,0.00018319,,,,,,,
18622,10.1016/j.jallcom.2017.04.110,25500,5a,31750,SnSe Parallel bc plane,SnSe,350,,402.66,0.0024835,,,,0.00012297,0.00055262,1.8325,-0.030275,,0.000067105
18622,10.1016/j.jallcom.2017.04.110,25500,5a,31750,SnSe Parallel bc plane,SnSe,400,,695.37,0.0014381,,,,0.00020046,0.00053691,1.711,0.036117,,0.0001171596
18622,10.1016/j.jallcom.2017.04.110,25500,5a,31750,SnSe Parallel bc plane,SnSe,450,,988.09,0.0010121,,,,0.00026841,0.0005212,1.5895,0.10251,,0.0001688644
18622,10.1016/j.jallcom.2017.04.110,25500,5a,31750,SnSe Parallel bc plane,SnSe,500,,1280.8,0.00078076,,,,0.00032726,0.00050548,1.468,0.1689,,0.0002229292
18622,10.1016/j.jallcom.2017.04.110,25500,5a,31750,SnSe Parallel bc plane,SnSe,550,,1573.5,0.00063553,,,,0.00037744,0.00048977,1.3465,0.23529,,0.0002803119
18622,10.1016/j.jallcom.2017.04.110,25500,5a,31750,SnSe Parallel bc plane,SnSe,600,,1866.2,0.00053585,,,,0.0004194,0.00047406,1.225,0.30168,,0.0003423673
18622,10.1016/j.jallcom.2017.04.110,25500,5a,31750,SnSe Parallel bc plane,SnSe,650,,2159,0.00046318,,,,0.00045355,0.00045834,1.1035,0.36807,,0.0004110104
18622,10.1016/j.jallcom.2017.04.110,25500,5a,31750,SnSe Parallel bc plane,SnSe,700,,2451.7,0.00040788,,,,0.00048034,0.00044263,0.98196,0.43446,,0.0004891645
18622,10.1016/j.jallcom.2017.04.110,25500,5a,31750,SnSe Parallel bc plane,SnSe,750,,2744.4,0.00036438,,,,0.00050017,0.00042691,0.86045,0.50086,,0.0005812889
18622,10.1016/j.jallcom.2017.04.110,25500,5a,31750,SnSe Parallel bc plane,SnSe,800,,3037.1,0.00032926,,,,0.00051353,0.0004112,0.73895,0.56725,,0.0006949455
18622,10.1016/j.jallcom.2017.04.110,25500,5a,31750,SnSe Parallel bc plane,SnSe,850,,3329.8,0.00030032,,,,0.00052082,0.00039549,0.61744,0.63364,,0.0008435152
18622,10.1016/j.jallcom.2017.04.110,25501,5b,31750,SnSe Parallel bc plane,SnSe,300,,,,,,,,0.00056834,,,,
18622,10.1016/j.jallcom.2017.04.110,25500,5a,31751,SnSe Perpendicular bc plane,SnSe,350,,322.47,0.0031011,,,,0.00010146,0.00056093,0.65904,0.045345,,0.0001539512
18622,10.1016/j.jallcom.2017.04.110,25500,5a,31751,SnSe Perpendicular bc plane,SnSe,400,,332.95,0.0030035,,,,0.000097146,0.00054016,0.61801,0.057394,,0.0001571916
18622,10.1016/j.jallcom.2017.04.110,25500,5a,31751,SnSe Perpendicular bc plane,SnSe,450,,343.43,0.0029118,,,,0.000092649,0.0005194,0.57698,0.069443,,0.0001605758
18622,10.1016/j.jallcom.2017.04.110,25500,5a,31751,SnSe Perpendicular bc plane,SnSe,500,,353.9,0.0028257,,,,0.000087991,0.00049863,0.53595,0.081492,,0.0001641776
18622,10.1016/j.jallcom.2017.04.110,25500,5a,31751,SnSe Perpendicular bc plane,SnSe,550,,364.38,0.0027444,,,,0.00008321,0.00047787,0.49492,0.093541,,0.0001681282
18622,10.1016/j.jallcom.2017.04.110,25500,5a,31751,SnSe Perpendicular bc plane,SnSe,600,,374.85,0.0026677,,,,0.000078321,0.0004571,0.45389,0.10559,,0.000172555
18622,10.1016/j.jallcom.2017.04.110,25500,5a,31751,SnSe Perpendicular bc plane,SnSe,650,,385.33,0.0025952,,,,0.000073364,0.00043634,0.41286,0.11764,,0.000177697
18622,10.1016/j.jallcom.2017.04.110,25500,5a,31751,SnSe Perpendicular bc plane,SnSe,700,,395.8,0.0025265,,,,0.000068354,0.00041557,0.37183,0.12969,,0.0001838313
18622,10.1016/j.jallcom.2017.04.110,25500,5a,31751,SnSe Perpendicular bc plane,SnSe,750,,406.28,0.0024614,,,,0.000063326,0.0003948,0.33079,0.14174,,0.0001914387
18622,10.1016/j.jallcom.2017.04.110,25500,5a,31751,SnSe Perpendicular bc plane,SnSe,800,,416.76,0.0023995,,,,0.000058307,0.00037404,0.28976,0.15379,,0.0002012252
18622,10.1016/j.jallcom.2017.04.110,25502,3d,31751,SnSe Perpendicular bc plane,SnSe,850,,,,,,,,,0.24873,,,
18650,10.1016/j.jmat.2015.09.001,25672,Figure 3A,31987,Sn(1-x)MnxTe_ x=0,undefined,350,,1769000,5.653e-7,7.89e-8,502.83,2.2687,0.00014755,0.0000091328,7.2729,-0.060649,,0.0000202876
18650,10.1016/j.jmat.2015.09.001,25672,Figure 3A,31987,Sn(1-x)MnxTe_ x=0,undefined,400,,627430,0.0000015938,8.6e-8,461.49,2.1615,0.00028755,0.000021408,6.7816,-0.013634,,0.0000424015
18650,10.1016/j.jmat.2015.09.001,25672,Figure 3A,31987,Sn(1-x)MnxTe_ x=0,undefined,450,,381360,0.0000026222,9.31e-8,420.16,2.0544,0.00043267,0.000033683,6.2904,0.033381,,0.0000687826
18650,10.1016/j.jmat.2015.09.001,25672,Figure 3A,31987,Sn(1-x)MnxTe_ x=0,undefined,500,,273920,0.0000036507,1.003e-7,378.82,1.9473,0.00057858,0.000045959,5.7991,0.080397,,0.0000997707
18650,10.1016/j.jmat.2015.09.001,25672,Figure 3A,31987,Sn(1-x)MnxTe_ x=0,undefined,550,,213710,0.0000046792,1.074e-7,337.48,1.8402,0.00072473,0.000058234,5.3078,0.12741,,0.0001365406
18650,10.1016/j.jmat.2015.09.001,25672,Figure 3A,31987,Sn(1-x)MnxTe_ x=0,undefined,600,,175200,0.0000057076,1.146e-7,296.15,1.733,0.00087103,0.00007051,4.8165,0.17443,,0.0001808429
18650,10.1016/j.jmat.2015.09.001,25672,Figure 3A,31987,Sn(1-x)MnxTe_ x=0,undefined,650,,148450,0.0000067361,1.217e-7,254.81,1.6259,0.0010174,0.000082785,4.3252,0.22144,,0.0002352261
18650,10.1016/j.jmat.2015.09.001,25672,Figure 3A,31987,Sn(1-x)MnxTe_ x=0,undefined,700,,128790,0.0000077646,1.288e-7,213.48,1.5188,0.0011638,0.00009506,3.8339,0.26846,,0.0003035551
18650,10.1016/j.jmat.2015.09.001,25672,Figure 3A,31987,Sn(1-x)MnxTe_ x=0,undefined,750,,113730,0.0000087931,1.36e-7,172.14,1.4116,0.0013104,0.00010734,3.3427,0.31547,,0.0003920184
18650,10.1016/j.jmat.2015.09.001,25672,Figure 3A,31987,Sn(1-x)MnxTe_ x=0,undefined,800,,101820,0.0000098215,1.431e-7,130.81,1.3045,0.0014567,0.00011961,2.8514,0.36249,,0.0005108719
18650,10.1016/j.jmat.2015.09.001,25679,Figure 5A,31987,Sn(1-x)MnxTe_ x=0,undefined,850,,92166,0.00001085,,,1.1974,0.0016032,0.00013189,2.3601,0.4095,,0.0006792933
18650,10.1016/j.jmat.2015.09.001,25682,Figure 6B,31987,Sn(1-x)MnxTe_ x=0,undefined,900,,,,,,,,,1.8688,,,
18650,10.1016/j.jmat.2015.09.001,25672,Figure 3A,31988,Sn(1-x)MnxTe_ x=0.03,undefined,350,,633430,0.0000015787,4.55e-8,240.95,1.8411,0.0004175,0.000025673,5.3796,-0.038396,,0.000077608
18650,10.1016/j.jmat.2015.09.001,25672,Figure 3A,31988,Sn(1-x)MnxTe_ x=0.03,undefined,400,,411470,0.0000024303,5.46e-8,222.76,1.7488,0.00053897,0.000036192,5.0742,0.015592,,0.0001062177
18650,10.1016/j.jmat.2015.09.001,25672,Figure 3A,31988,Sn(1-x)MnxTe_ x=0.03,undefined,450,,304700,0.0000032819,6.22e-8,204.56,1.6566,0.00066483,0.000046711,4.7689,0.069579,,0.0001394095
18650,10.1016/j.jmat.2015.09.001,25672,Figure 3A,31988,Sn(1-x)MnxTe_ x=0.03,undefined,500,,241930,0.0000041335,6.82e-8,186.36,1.5643,0.00079239,0.00005723,4.4635,0.12357,,0.0001775266
18650,10.1016/j.jmat.2015.09.001,25672,Figure 3A,31988,Sn(1-x)MnxTe_ x=0.03,undefined,550,,200600,0.000004985,7.27e-8,168.16,1.4721,0.00092074,0.000067749,4.1581,0.17755,,0.0002214329
18650,10.1016/j.jmat.2015.09.001,25672,Figure 3A,31988,Sn(1-x)MnxTe_ x=0.03,undefined,600,,171330,0.0000058366,7.57e-8,149.97,1.3798,0.0010495,0.000078268,3.8528,0.23154,,0.0002723993
18650,10.1016/j.jmat.2015.09.001,25672,Figure 3A,31988,Sn(1-x)MnxTe_ x=0.03,undefined,650,,149520,0.0000066882,7.72e-8,131.77,1.2876,0.0011787,0.000088787,3.5474,0.28553,,0.0003322715
18650,10.1016/j.jmat.2015.09.001,25672,Figure 3A,31988,Sn(1-x)MnxTe_ x=0.03,undefined,700,,132630,0.0000075398,7.72e-8,113.57,1.1953,0.001308,0.000099306,3.2421,0.33952,,0.0004034422
18650,10.1016/j.jmat.2015.09.001,25672,Figure 3A,31988,Sn(1-x)MnxTe_ x=0.03,undefined,750,,119170,0.0000083914,7.57e-8,95.373,1.1031,0.0014372,0.00010982,2.9367,0.39351,,0.0004893929
18650,10.1016/j.jmat.2015.09.001,25672,Figure 3A,31988,Sn(1-x)MnxTe_ x=0.03,undefined,800,,108190,0.000009243,7.27e-8,77.176,1.0108,0.0015668,0.00012034,2.6313,0.44749,,0.0005954471
18650,10.1016/j.jmat.2015.09.001,25679,Figure 5A,31988,Sn(1-x)MnxTe_ x=0.03,undefined,850,,99059,0.000010095,,,0.91859,0.0016963,0.00013086,2.326,0.50148,,0.0007292777
18650,10.1016/j.jmat.2015.09.001,25682,Figure 6B,31988,Sn(1-x)MnxTe_ x=0.03,undefined,900,,,,,,,,,2.0206,,,
18650,10.1016/j.jmat.2015.09.001,25672,Figure 3A,31989,Sn(1-x)MnxTe_ x=0.06,undefined,350,,357180,0.0000027997,2.86e-8,87.568,1.924,0.00051958,0.00003814,4.0086,-0.021246,,0.0001296163
18650,10.1016/j.jmat.2015.09.001,25672,Figure 3A,31989,Sn(1-x)MnxTe_ x=0.06,undefined,400,,241050,0.0000041485,3.17e-8,80.253,1.8293,0.00050235,0.000045651,3.7916,0.030434,,0.0001324902
18650,10.1016/j.jmat.2015.09.001,25672,Figure 3A,31989,Sn(1-x)MnxTe_ x=0.06,undefined,450,,181910,0.0000054973,3.4e-8,72.939,1.7345,0.00051785,0.000053355,3.5746,0.082115,,0.0001448694
18650,10.1016/j.jmat.2015.09.001,25672,Figure 3A,31989,Sn(1-x)MnxTe_ x=0.06,undefined,500,,146070,0.0000068461,3.55e-8,65.625,1.6398,0.00055505,0.000061643,3.3577,0.1338,,0.0001653066
18650,10.1016/j.jmat.2015.09.001,25672,Figure 3A,31989,Sn(1-x)MnxTe_ x=0.06,undefined,550,,122030,0.0000081949,3.63e-8,58.31,1.545,0.00061185,0.000070809,3.1407,0.18548,,0.0001948133
18650,10.1016/j.jmat.2015.09.001,25672,Figure 3A,31989,Sn(1-x)MnxTe_ x=0.06,undefined,600,,104780,0.0000095437,3.62e-8,50.996,1.4503,0.00068829,0.000081049,2.9237,0.23716,,0.0002354175
18650,10.1016/j.jmat.2015.09.001,25672,Figure 3A,31989,Sn(1-x)MnxTe_ x=0.06,undefined,650,,91811,0.000010892,3.53e-8,43.682,1.3555,0.00078493,0.000092463,2.7068,0.28884,,0.0002899845
18650,10.1016/j.jmat.2015.09.001,25672,Figure 3A,31989,Sn(1-x)MnxTe_ x=0.06,undefined,700,,81693,0.000012241,3.36e-8,36.367,1.2608,0.00090152,0.00010505,2.4898,0.34052,,0.0003620853
18650,10.1016/j.jmat.2015.09.001,25672,Figure 3A,31989,Sn(1-x)MnxTe_ x=0.06,undefined,750,,73584,0.00001359,3.1e-8,29.053,1.1661,0.001037,0.00011871,2.2728,0.3922,,0.0004562654
18650,10.1016/j.jmat.2015.09.001,25672,Figure 3A,31989,Sn(1-x)MnxTe_ x=0.06,undefined,800,,66939,0.000014939,2.77e-8,21.739,1.0713,0.0011887,0.00013326,2.0559,0.44388,,0.0005781896
18650,10.1016/j.jmat.2015.09.001,25673,Figure 3B,31989,Sn(1-x)MnxTe_ x=0.06,undefined,300,,,,,94.882,,,,,-0.072927,,
18650,10.1016/j.jmat.2015.09.001,25679,Figure 5A,31989,Sn(1-x)MnxTe_ x=0.06,undefined,850,,61395,0.000016288,,,0.97656,0.0013521,0.0001484,1.8389,0.49556,,0.0007352765
18650,10.1016/j.jmat.2015.09.001,25680,Figure 5B,31989,Sn(1-x)MnxTe_ x=0.06,undefined,900,,,,,,,,0.00016373,1.6219,,,
18650,10.1016/j.jmat.2015.09.001,25672,Figure 3A,31990,Sn(1-x)MnxTe_ x=0.09,undefined,350,,254650,0.000003927,2.16e-8,49.888,1.4181,0.00050906,0.000044711,2.9924,-0.0029716,,0.0001701176
18650,10.1016/j.jmat.2015.09.001,25672,Figure 3A,31990,Sn(1-x)MnxTe_ x=0.09,undefined,400,,188250,0.0000053122,2.11e-8,45.526,1.3478,0.00060026,0.000056468,2.8447,0.070507,,0.0002110099
18650,10.1016/j.jmat.2015.09.001,25672,Figure 3A,31990,Sn(1-x)MnxTe_ x=0.09,undefined,450,,149310,0.0000066974,2.07e-8,41.165,1.2775,0.00069497,0.000068224,2.697,0.14399,,0.0002576826
18650,10.1016/j.jmat.2015.09.001,25672,Figure 3A,31990,Sn(1-x)MnxTe_ x=0.09,undefined,500,,123720,0.0000080826,2.02e-8,36.803,1.2071,0.00079143,0.000079981,2.5493,0.21746,,0.0003104499
18650,10.1016/j.jmat.2015.09.001,25672,Figure 3A,31990,Sn(1-x)MnxTe_ x=0.09,undefined,550,,105620,0.0000094678,1.98e-8,32.442,1.1368,0.00088888,0.000091738,2.4016,0.29094,,0.0003701199
18650,10.1016/j.jmat.2015.09.001,25672,Figure 3A,31990,Sn(1-x)MnxTe_ x=0.09,undefined,600,,92140,0.000010853,1.93e-8,28.08,1.0664,0.00098684,0.00010349,2.2539,0.36442,,0.0004378366
18650,10.1016/j.jmat.2015.09.001,25672,Figure 3A,31990,Sn(1-x)MnxTe_ x=0.09,undefined,650,,81713,0.000012238,1.89e-8,23.718,0.99608,0.0010854,0.00011525,2.1061,0.4379,,0.0005153601
18650,10.1016/j.jmat.2015.09.001,25672,Figure 3A,31990,Sn(1-x)MnxTe_ x=0.09,undefined,700,,73405,0.000013623,1.84e-8,19.357,0.92574,0.0011841,0.00012701,1.9584,0.51138,,0.0006046262
18650,10.1016/j.jmat.2015.09.001,25672,Figure 3A,31990,Sn(1-x)MnxTe_ x=0.09,undefined,750,,66627,0.000015009,1.8e-8,14.995,0.8554,0.001283,0.00013877,1.8107,0.58486,,0.0007085657
18650,10.1016/j.jmat.2015.09.001,25672,Figure 3A,31990,Sn(1-x)MnxTe_ x=0.09,undefined,800,,60998,0.000016394,1.75e-8,10.633,0.78506,0.001382,0.00015052,1.663,0.65834,,0.0008310283
18650,10.1016/j.jmat.2015.09.001,25679,Figure 5A,31990,Sn(1-x)MnxTe_ x=0.09,undefined,850,,56246,0.000017779,,,0.71471,0.0014812,0.00016228,1.5153,0.73182,,0.0009774962
18650,10.1016/j.jmat.2015.09.001,25680,Figure 5B,31990,Sn(1-x)MnxTe_ x=0.09,undefined,900,,,,,,,,0.00017404,1.3676,,,
18650,10.1016/j.jmat.2015.09.001,25683,Figure 7A,31990,Sn(1-x)MnxTe_ x=0.09,undefined,300,,,,,,,,,,-0.07645,,
18650,10.1016/j.jmat.2015.09.001,25672,Figure 3A,31991,Sn(1-x)MnxTe_ x=0.15,undefined,350,,,,1.12e-8,19.872,,,,,,,
18650,10.1016/j.jmat.2015.09.001,25672,Figure 3A,31991,Sn(1-x)MnxTe_ x=0.15,undefined,400,,,,1.11e-8,18.172,,,,,,,
18650,10.1016/j.jmat.2015.09.001,25672,Figure 3A,31991,Sn(1-x)MnxTe_ x=0.15,undefined,450,,,,1.09e-8,16.472,,,,,,,
18650,10.1016/j.jmat.2015.09.001,25672,Figure 3A,31991,Sn(1-x)MnxTe_ x=0.15,undefined,500,,,,1.07e-8,14.772,,,,,,,
18650,10.1016/j.jmat.2015.09.001,25672,Figure 3A,31991,Sn(1-x)MnxTe_ x=0.15,undefined,550,,,,1.05e-8,13.072,,,,,,,
18650,10.1016/j.jmat.2015.09.001,25672,Figure 3A,31991,Sn(1-x)MnxTe_ x=0.15,undefined,600,,,,1.04e-8,11.372,,,,,,,
18650,10.1016/j.jmat.2015.09.001,25672,Figure 3A,31991,Sn(1-x)MnxTe_ x=0.15,undefined,650,,,,1.02e-8,9.6725,,,,,,,
18650,10.1016/j.jmat.2015.09.001,25672,Figure 3A,31991,Sn(1-x)MnxTe_ x=0.15,undefined,700,,,,1e-8,7.9725,,,,,,,
18650,10.1016/j.jmat.2015.09.001,25672,Figure 3A,31991,Sn(1-x)MnxTe_ x=0.15,undefined,750,,,,9.9e-9,6.2726,,,,,,,
18650,10.1016/j.jmat.2015.09.001,25673,Figure 3B,31991,Sn(1-x)MnxTe_ x=0.15,undefined,800,,,,,4.5727,,,,,,,
18650,10.1016/j.jmat.2015.09.001,26377,4(a),31991,Sn(1-x)MnxTe_ x=0.15,undefined,,3.65e+25,,,,,,,0.000089359,,,,
18650,10.1016/j.jmat.2015.09.001,26377,4(a),31991,Sn(1-x)MnxTe_ x=0.15,undefined,,3.7e+25,,,,0.0069198,,,0.000089306,,,,
18650,10.1016/j.jmat.2015.09.001,26377,4(a),31991,Sn(1-x)MnxTe_ x=0.15,undefined,,3.75e+25,,,,0.0069144,,,0.000089253,,,,
18650,10.1016/j.jmat.2015.09.001,26377,4(a),31991,Sn(1-x)MnxTe_ x=0.15,undefined,,3.8e+25,,,,0.006909,,,0.000089199,,,,
18650,10.1016/j.jmat.2015.09.001,26377,4(a),31991,Sn(1-x)MnxTe_ x=0.15,undefined,,3.85e+25,,,,0.0069036,,,0.000089146,,,,
18650,10.1016/j.jmat.2015.09.001,26377,4(a),31991,Sn(1-x)MnxTe_ x=0.15,undefined,,3.9e+25,,,,0.0068982,,,0.000089093,,,,
18650,10.1016/j.jmat.2015.09.001,26377,4(a),31991,Sn(1-x)MnxTe_ x=0.15,undefined,,3.95e+25,,,,0.0068928,,,0.00008904,,,,
18650,10.1016/j.jmat.2015.09.001,26377,4(a),31991,Sn(1-x)MnxTe_ x=0.15,undefined,,4e+25,,,,0.0068874,,,0.000088986,,,,
18650,10.1016/j.jmat.2015.09.001,26377,4(a),31991,Sn(1-x)MnxTe_ x=0.15,undefined,,4.05e+25,,,,0.0068821,,,0.000088933,,,,
18650,10.1016/j.jmat.2015.09.001,26377,4(a),31991,Sn(1-x)MnxTe_ x=0.15,undefined,,4.1e+25,,,,0.0068767,,,0.00008888,,,,
18650,10.1016/j.jmat.2015.09.001,26377,4(a),31991,Sn(1-x)MnxTe_ x=0.15,undefined,,4.15e+25,,,,0.0068713,,,0.000088827,,,,
18650,10.1016/j.jmat.2015.09.001,26377,4(a),31991,Sn(1-x)MnxTe_ x=0.15,undefined,,4.2e+25,,,,0.0068659,,,0.000088773,,,,
18650,10.1016/j.jmat.2015.09.001,26377,4(a),31991,Sn(1-x)MnxTe_ x=0.15,undefined,,4.25e+25,,,,0.0068605,,,0.00008872,,,,
18650,10.1016/j.jmat.2015.09.001,26377,4(a),31991,Sn(1-x)MnxTe_ x=0.15,undefined,,4.3e+25,,,,0.0068551,,,0.000088667,,,,
18650,10.1016/j.jmat.2015.09.001,26377,4(a),31991,Sn(1-x)MnxTe_ x=0.15,undefined,,4.35e+25,,,,0.0068497,,,0.000088614,,,,