sid,DOI,figureid,fignum,sampleid,samplename,composition,Temperature,Carrier concentration,Electrical conductivity,Electrical resistivity,Hall coefficient,Hall movility,Lattice thermal conductivity,Power factor,Seebeck coefficient,Thermal conductivity,ZT,total thermal conductivity,Figure of merit Z
18603,10.1002/adma.201605887,1964,6(c),2956,x=0.05_K,Sn0.86Mn0.14Te(Cu2Te)0.05,500,,,,,,,,,2.0897,,,
18603,10.1002/adma.201605887,1964,6(c),2956,x=0.05_K,Sn0.86Mn0.14Te(Cu2Te)0.05,550,,,,,,,,,1.8972,,,
18603,10.1002/adma.201605887,1964,6(c),2956,x=0.05_K,Sn0.86Mn0.14Te(Cu2Te)0.05,600,,,,,,,,,1.7235,,,
18603,10.1002/adma.201605887,1964,6(c),2956,x=0.05_K,Sn0.86Mn0.14Te(Cu2Te)0.05,650,,,,,,,,,1.576,,,
18603,10.1002/adma.201605887,1964,6(c),2956,x=0.05_K,Sn0.86Mn0.14Te(Cu2Te)0.05,700,,,,,,,,,1.4537,,,
18603,10.1002/adma.201605887,1964,6(c),2956,x=0.05_K,Sn0.86Mn0.14Te(Cu2Te)0.05,750,,,,,,,,,1.3497,,,
18603,10.1002/adma.201605887,1964,6(c),2956,x=0.05_K,Sn0.86Mn0.14Te(Cu2Te)0.05,800,,,,,,,,,1.2522,,,
18603,10.1002/adma.201605887,1964,6(c),2956,x=0.05_K,Sn0.86Mn0.14Te(Cu2Te)0.05,850,,,,,,,,,1.1473,,,
18603,10.1002/adma.201605887,1964,6(c),2957,x=0.05_3%Snexcess_K,Sn0.89Mn0.14Te(Cu2Te)0.05,300,,,,,,,,,2.962,,,
18603,10.1002/adma.201605887,1964,6(c),2957,x=0.05_3%Snexcess_K,Sn0.89Mn0.14Te(Cu2Te)0.05,350,,,,,,,,,2.7281,,,
18603,10.1002/adma.201605887,1964,6(c),2957,x=0.05_3%Snexcess_K,Sn0.89Mn0.14Te(Cu2Te)0.05,400,,,,,,,,,2.4836,,,
18603,10.1002/adma.201605887,1964,6(c),2957,x=0.05_3%Snexcess_K,Sn0.89Mn0.14Te(Cu2Te)0.05,450,,,,,,,,,2.2515,,,
18603,10.1002/adma.201605887,1964,6(c),2957,x=0.05_3%Snexcess_K,Sn0.89Mn0.14Te(Cu2Te)0.05,500,,,,,,,,,2.0433,,,
18603,10.1002/adma.201605887,1964,6(c),2957,x=0.05_3%Snexcess_K,Sn0.89Mn0.14Te(Cu2Te)0.05,550,,,,,,,,,1.8615,,,
18603,10.1002/adma.201605887,1964,6(c),2957,x=0.05_3%Snexcess_K,Sn0.89Mn0.14Te(Cu2Te)0.05,600,,,,,,,,,1.7026,,,
18603,10.1002/adma.201605887,1964,6(c),2957,x=0.05_3%Snexcess_K,Sn0.89Mn0.14Te(Cu2Te)0.05,650,,,,,,,,,1.5596,,,
18603,10.1002/adma.201605887,1964,6(c),2957,x=0.05_3%Snexcess_K,Sn0.89Mn0.14Te(Cu2Te)0.05,700,,,,,,,,,1.4247,,,
18603,10.1002/adma.201605887,1964,6(c),2957,x=0.05_3%Snexcess_K,Sn0.89Mn0.14Te(Cu2Te)0.05,750,,,,,,,,,1.2921,,,
18603,10.1002/adma.201605887,1964,6(c),2957,x=0.05_3%Snexcess_K,Sn0.89Mn0.14Te(Cu2Te)0.05,800,,,,,,,,,1.1607,,,
18603,10.1002/adma.201605887,1964,6(c),2957,x=0.05_3%Snexcess_K,Sn0.89Mn0.14Te(Cu2Te)0.05,850,,,,,,,,,1.0368,,,
18603,10.1002/adma.201605887,1964,6(c),2957,x=0.05_3%Snexcess_K,Sn0.89Mn0.14Te(Cu2Te)0.05,900,,,,,,,,,0.93652,,,
18603,10.1002/adma.201605887,1964,6(c),2958,x=0.05_4%Snexcess_K,Sn0.9Mn0.14Te(Cu2Te)0.05,300,,,,,,,,,2.5595,,,
18603,10.1002/adma.201605887,1964,6(c),2958,x=0.05_4%Snexcess_K,Sn0.9Mn0.14Te(Cu2Te)0.05,350,,,,,,,,,2.4616,,,
18603,10.1002/adma.201605887,1964,6(c),2958,x=0.05_4%Snexcess_K,Sn0.9Mn0.14Te(Cu2Te)0.05,400,,,,,,,,,2.2898,,,
18603,10.1002/adma.201605887,1964,6(c),2958,x=0.05_4%Snexcess_K,Sn0.9Mn0.14Te(Cu2Te)0.05,450,,,,,,,,,2.0931,,,
18603,10.1002/adma.201605887,1964,6(c),2958,x=0.05_4%Snexcess_K,Sn0.9Mn0.14Te(Cu2Te)0.05,500,,,,,,,,,1.9011,,,
18603,10.1002/adma.201605887,1964,6(c),2958,x=0.05_4%Snexcess_K,Sn0.9Mn0.14Te(Cu2Te)0.05,550,,,,,,,,,1.7283,,,
18603,10.1002/adma.201605887,1964,6(c),2958,x=0.05_4%Snexcess_K,Sn0.9Mn0.14Te(Cu2Te)0.05,600,,,,,,,,,1.5779,,,
18603,10.1002/adma.201605887,1964,6(c),2958,x=0.05_4%Snexcess_K,Sn0.9Mn0.14Te(Cu2Te)0.05,650,,,,,,,,,1.4458,,,
18603,10.1002/adma.201605887,1964,6(c),2958,x=0.05_4%Snexcess_K,Sn0.9Mn0.14Te(Cu2Te)0.05,700,,,,,,,,,1.3247,,,
18603,10.1002/adma.201605887,1964,6(c),2958,x=0.05_4%Snexcess_K,Sn0.9Mn0.14Te(Cu2Te)0.05,750,,,,,,,,,1.2079,,,
18603,10.1002/adma.201605887,1964,6(c),2958,x=0.05_4%Snexcess_K,Sn0.9Mn0.14Te(Cu2Te)0.05,800,,,,,,,,,1.0937,,,
18603,10.1002/adma.201605887,1964,6(c),2958,x=0.05_4%Snexcess_K,Sn0.9Mn0.14Te(Cu2Te)0.05,850,,,,,,,,,0.98874,,,
18603,10.1002/adma.201605887,1964,6(c),2958,x=0.05_4%Snexcess_K,Sn0.9Mn0.14Te(Cu2Te)0.05,900,,,,,,,,,0.91259,,,
18603,10.1002/adma.201605887,1964,6(c),2959,x=0.05_5%Sneccess_K,Sn0.92Mn0.14Te(Cu2Te)0.05,350,,,,,,,,,2.0311,,,
18603,10.1002/adma.201605887,1964,6(c),2959,x=0.05_5%Sneccess_K,Sn0.92Mn0.14Te(Cu2Te)0.05,400,,,,,,,,,1.9148,,,
18603,10.1002/adma.201605887,1964,6(c),2959,x=0.05_5%Sneccess_K,Sn0.92Mn0.14Te(Cu2Te)0.05,450,,,,,,,,,1.7859,,,
18603,10.1002/adma.201605887,1964,6(c),2959,x=0.05_5%Sneccess_K,Sn0.92Mn0.14Te(Cu2Te)0.05,500,,,,,,,,,1.6475,,,
18603,10.1002/adma.201605887,1964,6(c),2959,x=0.05_5%Sneccess_K,Sn0.92Mn0.14Te(Cu2Te)0.05,550,,,,,,,,,1.5048,,,
18603,10.1002/adma.201605887,1964,6(c),2959,x=0.05_5%Sneccess_K,Sn0.92Mn0.14Te(Cu2Te)0.05,600,,,,,,,,,1.3643,,,
18603,10.1002/adma.201605887,1964,6(c),2959,x=0.05_5%Sneccess_K,Sn0.92Mn0.14Te(Cu2Te)0.05,650,,,,,,,,,1.2329,,,
18603,10.1002/adma.201605887,1964,6(c),2959,x=0.05_5%Sneccess_K,Sn0.92Mn0.14Te(Cu2Te)0.05,700,,,,,,,,,1.1165,,,
18603,10.1002/adma.201605887,1964,6(c),2959,x=0.05_5%Sneccess_K,Sn0.92Mn0.14Te(Cu2Te)0.05,750,,,,,,,,,1.0192,,,
18603,10.1002/adma.201605887,1964,6(c),2959,x=0.05_5%Sneccess_K,Sn0.92Mn0.14Te(Cu2Te)0.05,800,,,,,,,,,0.94235,,,
18603,10.1002/adma.201605887,1964,6(c),2959,x=0.05_5%Sneccess_K,Sn0.92Mn0.14Te(Cu2Te)0.05,850,,,,,,,,,0.88331,,,
18603,10.1002/adma.201605887,1964,6(c),2959,x=0.05_5%Sneccess_K,Sn0.92Mn0.14Te(Cu2Te)0.05,900,,,,,,,,,0.8347,,,
18603,10.1002/adma.201605887,1964,6(c),2960,x=0_KL,Sn0.86Mn0.14Te(Cu2Te)0,300,,,,,,,,,1.9552,,,
18603,10.1002/adma.201605887,1964,6(c),2960,x=0_KL,Sn0.86Mn0.14Te(Cu2Te)0,350,,,,,,,,,1.7903,,,
18603,10.1002/adma.201605887,1964,6(c),2960,x=0_KL,Sn0.86Mn0.14Te(Cu2Te)0,400,,,,,,,,,1.6436,,,
18603,10.1002/adma.201605887,1964,6(c),2960,x=0_KL,Sn0.86Mn0.14Te(Cu2Te)0,450,,,,,,,,,1.5242,,,
18603,10.1002/adma.201605887,1964,6(c),2960,x=0_KL,Sn0.86Mn0.14Te(Cu2Te)0,500,,,,,,,,,1.4306,,,
18603,10.1002/adma.201605887,1964,6(c),2960,x=0_KL,Sn0.86Mn0.14Te(Cu2Te)0,550,,,,,,,,,1.3546,,,
18603,10.1002/adma.201605887,1964,6(c),2960,x=0_KL,Sn0.86Mn0.14Te(Cu2Te)0,600,,,,,,,,,1.2847,,,
18603,10.1002/adma.201605887,1964,6(c),2960,x=0_KL,Sn0.86Mn0.14Te(Cu2Te)0,650,,,,,,,,,1.2099,,,
18603,10.1002/adma.201605887,1964,6(c),2960,x=0_KL,Sn0.86Mn0.14Te(Cu2Te)0,700,,,,,,,,,1.1231,,,
18603,10.1002/adma.201605887,1964,6(c),2960,x=0_KL,Sn0.86Mn0.14Te(Cu2Te)0,750,,,,,,,,,1.025,,,
18603,10.1002/adma.201605887,1964,6(c),2960,x=0_KL,Sn0.86Mn0.14Te(Cu2Te)0,800,,,,,,,,,0.92752,,,
18603,10.1002/adma.201605887,1964,6(c),2960,x=0_KL,Sn0.86Mn0.14Te(Cu2Te)0,850,,,,,,,,,0.8577,,,
18603,10.1002/adma.201605887,1964,6(c),2961,x=0.01_KL,Sn0.86Mn0.14Te(Cu2Te)0.01,300,,,,,,,,,2.3595,,,
18603,10.1002/adma.201605887,1964,6(c),2961,x=0.01_KL,Sn0.86Mn0.14Te(Cu2Te)0.01,350,,,,,,,,,2.0918,,,
18603,10.1002/adma.201605887,1964,6(c),2961,x=0.01_KL,Sn0.86Mn0.14Te(Cu2Te)0.01,400,,,,,,,,,1.9705,,,
18603,10.1002/adma.201605887,1964,6(c),2961,x=0.01_KL,Sn0.86Mn0.14Te(Cu2Te)0.01,450,,,,,,,,,1.8953,,,
18603,10.1002/adma.201605887,1964,6(c),2961,x=0.01_KL,Sn0.86Mn0.14Te(Cu2Te)0.01,500,,,,,,,,,1.8117,,,
18603,10.1002/adma.201605887,1964,6(c),2961,x=0.01_KL,Sn0.86Mn0.14Te(Cu2Te)0.01,550,,,,,,,,,1.7,,,
18603,10.1002/adma.201605887,1964,6(c),2961,x=0.01_KL,Sn0.86Mn0.14Te(Cu2Te)0.01,600,,,,,,,,,1.5647,,,
18603,10.1002/adma.201605887,1964,6(c),2961,x=0.01_KL,Sn0.86Mn0.14Te(Cu2Te)0.01,650,,,,,,,,,1.4236,,,
18603,10.1002/adma.201605887,1964,6(c),2961,x=0.01_KL,Sn0.86Mn0.14Te(Cu2Te)0.01,700,,,,,,,,,1.297,,,
18603,10.1002/adma.201605887,1964,6(c),2961,x=0.01_KL,Sn0.86Mn0.14Te(Cu2Te)0.01,750,,,,,,,,,1.1971,,,
18603,10.1002/adma.201605887,1964,6(c),2961,x=0.01_KL,Sn0.86Mn0.14Te(Cu2Te)0.01,800,,,,,,,,,1.1172,,,
18603,10.1002/adma.201605887,1964,6(c),2961,x=0.01_KL,Sn0.86Mn0.14Te(Cu2Te)0.01,850,,,,,,,,,1.0205,,,
18603,10.1002/adma.201605887,1964,6(c),2962,x=0.03_KL,Sn0.86Mn0.14Te(Cu2Te)0.03,300,,,,,,,,,2.1615,,,
18603,10.1002/adma.201605887,1964,6(c),2962,x=0.03_KL,Sn0.86Mn0.14Te(Cu2Te)0.03,350,,,,,,,,,2.0529,,,
18603,10.1002/adma.201605887,1964,6(c),2962,x=0.03_KL,Sn0.86Mn0.14Te(Cu2Te)0.03,400,,,,,,,,,1.9596,,,
18603,10.1002/adma.201605887,1964,6(c),2962,x=0.03_KL,Sn0.86Mn0.14Te(Cu2Te)0.03,450,,,,,,,,,1.8728,,,
18603,10.1002/adma.201605887,1964,6(c),2962,x=0.03_KL,Sn0.86Mn0.14Te(Cu2Te)0.03,500,,,,,,,,,1.7833,,,
18603,10.1002/adma.201605887,1964,6(c),2962,x=0.03_KL,Sn0.86Mn0.14Te(Cu2Te)0.03,550,,,,,,,,,1.6825,,,
18603,10.1002/adma.201605887,1964,6(c),2962,x=0.03_KL,Sn0.86Mn0.14Te(Cu2Te)0.03,600,,,,,,,,,1.5649,,,
18603,10.1002/adma.201605887,1964,6(c),2962,x=0.03_KL,Sn0.86Mn0.14Te(Cu2Te)0.03,650,,,,,,,,,1.4285,,,
18603,10.1002/adma.201605887,1964,6(c),2962,x=0.03_KL,Sn0.86Mn0.14Te(Cu2Te)0.03,700,,,,,,,,,1.2774,,,
18603,10.1002/adma.201605887,1964,6(c),2962,x=0.03_KL,Sn0.86Mn0.14Te(Cu2Te)0.03,750,,,,,,,,,1.1229,,,
18603,10.1002/adma.201605887,1964,6(c),2962,x=0.03_KL,Sn0.86Mn0.14Te(Cu2Te)0.03,800,,,,,,,,,0.98499,,,
18603,10.1002/adma.201605887,1964,6(c),2962,x=0.03_KL,Sn0.86Mn0.14Te(Cu2Te)0.03,850,,,,,,,,,0.89411,,,
18603,10.1002/adma.201605887,1964,6(c),2964,x=0.05_3%Snexcess_KL,Sn0.89Mn0.14Te(Cu2Te)0.05,300,,,,,,,,,1.5724,,,
18603,10.1002/adma.201605887,1964,6(c),2964,x=0.05_3%Snexcess_KL,Sn0.89Mn0.14Te(Cu2Te)0.05,350,,,,,,,,,1.4325,,,
18603,10.1002/adma.201605887,1964,6(c),2964,x=0.05_3%Snexcess_KL,Sn0.89Mn0.14Te(Cu2Te)0.05,400,,,,,,,,,1.3332,,,
18603,10.1002/adma.201605887,1964,6(c),2964,x=0.05_3%Snexcess_KL,Sn0.89Mn0.14Te(Cu2Te)0.05,450,,,,,,,,,1.2528,,,
18603,10.1002/adma.201605887,1964,6(c),2964,x=0.05_3%Snexcess_KL,Sn0.89Mn0.14Te(Cu2Te)0.05,500,,,,,,,,,1.1778,,,
18603,10.1002/adma.201605887,1964,6(c),2964,x=0.05_3%Snexcess_KL,Sn0.89Mn0.14Te(Cu2Te)0.05,550,,,,,,,,,1.1014,,,
18603,10.1002/adma.201605887,1964,6(c),2964,x=0.05_3%Snexcess_KL,Sn0.89Mn0.14Te(Cu2Te)0.05,600,,,,,,,,,1.0215,,,
18603,10.1002/adma.201605887,1964,6(c),2964,x=0.05_3%Snexcess_KL,Sn0.89Mn0.14Te(Cu2Te)0.05,650,,,,,,,,,0.93895,,,
18603,10.1002/adma.201605887,1964,6(c),2964,x=0.05_3%Snexcess_KL,Sn0.89Mn0.14Te(Cu2Te)0.05,700,,,,,,,,,0.85605,,,
18603,10.1002/adma.201605887,1964,6(c),2964,x=0.05_3%Snexcess_KL,Sn0.89Mn0.14Te(Cu2Te)0.05,750,,,,,,,,,0.77439,,,
18603,10.1002/adma.201605887,1964,6(c),2964,x=0.05_3%Snexcess_KL,Sn0.89Mn0.14Te(Cu2Te)0.05,800,,,,,,,,,0.69332,,,
18603,10.1002/adma.201605887,1964,6(c),2964,x=0.05_3%Snexcess_KL,Sn0.89Mn0.14Te(Cu2Te)0.05,850,,,,,,,,,0.60809,,,
18603,10.1002/adma.201605887,1964,6(c),2964,x=0.05_3%Snexcess_KL,Sn0.89Mn0.14Te(Cu2Te)0.05,900,,,,,,,,,0.5081,,,
18603,10.1002/adma.201605887,1964,6(c),2965,x=0.05_5%Snexcess_KL,Sn0.92Mn0.14Te(Cu2Te)0.05,300,,,,,,,,,1.6507,,,
18603,10.1002/adma.201605887,1964,6(c),2965,x=0.05_5%Snexcess_KL,Sn0.92Mn0.14Te(Cu2Te)0.05,350,,,,,,,,,1.5588,,,
18603,10.1002/adma.201605887,1964,6(c),2965,x=0.05_5%Snexcess_KL,Sn0.92Mn0.14Te(Cu2Te)0.05,400,,,,,,,,,1.4698,,,
18603,10.1002/adma.201605887,1964,6(c),2965,x=0.05_5%Snexcess_KL,Sn0.92Mn0.14Te(Cu2Te)0.05,450,,,,,,,,,1.3722,,,
18603,10.1002/adma.201605887,1964,6(c),2965,x=0.05_5%Snexcess_KL,Sn0.92Mn0.14Te(Cu2Te)0.05,500,,,,,,,,,1.2618,,,
18603,10.1002/adma.201605887,1964,6(c),2965,x=0.05_5%Snexcess_KL,Sn0.92Mn0.14Te(Cu2Te)0.05,550,,,,,,,,,1.1402,,,
18603,10.1002/adma.201605887,1964,6(c),2965,x=0.05_5%Snexcess_KL,Sn0.92Mn0.14Te(Cu2Te)0.05,600,,,,,,,,,1.0129,,,
18603,10.1002/adma.201605887,1964,6(c),2965,x=0.05_5%Snexcess_KL,Sn0.92Mn0.14Te(Cu2Te)0.05,650,,,,,,,,,0.8873,,,
18603,10.1002/adma.201605887,1964,6(c),2965,x=0.05_5%Snexcess_KL,Sn0.92Mn0.14Te(Cu2Te)0.05,700,,,,,,,,,0.77125,,,
18603,10.1002/adma.201605887,1964,6(c),2965,x=0.05_5%Snexcess_KL,Sn0.92Mn0.14Te(Cu2Te)0.05,750,,,,,,,,,0.6708,,,
18603,10.1002/adma.201605887,1964,6(c),2965,x=0.05_5%Snexcess_KL,Sn0.92Mn0.14Te(Cu2Te)0.05,800,,,,,,,,,0.5886,,,
18603,10.1002/adma.201605887,1964,6(c),2965,x=0.05_5%Snexcess_KL,Sn0.92Mn0.14Te(Cu2Te)0.05,850,,,,,,,,,0.52201,,,
18603,10.1002/adma.201605887,1964,6(c),2965,x=0.05_5%Snexcess_KL,Sn0.92Mn0.14Te(Cu2Te)0.05,900,,,,,,,,,0.46126,,,
18603,10.1002/adma.201605887,1964,6(c),2966,X=0.05_4%Snexcess_KL,Sn0.9Mn0.14Te(Cu2Te)0.05,300,,,,,,,,,1.5024,,,
18603,10.1002/adma.201605887,1964,6(c),2966,X=0.05_4%Snexcess_KL,Sn0.9Mn0.14Te(Cu2Te)0.05,350,,,,,,,,,1.4135,,,
18603,10.1002/adma.201605887,1964,6(c),2966,X=0.05_4%Snexcess_KL,Sn0.9Mn0.14Te(Cu2Te)0.05,400,,,,,,,,,1.3407,,,
18603,10.1002/adma.201605887,1964,6(c),2966,X=0.05_4%Snexcess_KL,Sn0.9Mn0.14Te(Cu2Te)0.05,450,,,,,,,,,1.2675,,,
18603,10.1002/adma.201605887,1964,6(c),2966,X=0.05_4%Snexcess_KL,Sn0.9Mn0.14Te(Cu2Te)0.05,500,,,,,,,,,1.1866,,,
18603,10.1002/adma.201605887,1964,6(c),2966,X=0.05_4%Snexcess_KL,Sn0.9Mn0.14Te(Cu2Te)0.05,550,,,,,,,,,1.0976,,,
18603,10.1002/adma.201605887,1964,6(c),2966,X=0.05_4%Snexcess_KL,Sn0.9Mn0.14Te(Cu2Te)0.05,600,,,,,,,,,1.004,,,
18603,10.1002/adma.201605887,1964,6(c),2966,X=0.05_4%Snexcess_KL,Sn0.9Mn0.14Te(Cu2Te)0.05,650,,,,,,,,,0.91169,,,
18603,10.1002/adma.201605887,1964,6(c),2966,X=0.05_4%Snexcess_KL,Sn0.9Mn0.14Te(Cu2Te)0.05,700,,,,,,,,,0.82609,,,
18603,10.1002/adma.201605887,1964,6(c),2966,X=0.05_4%Snexcess_KL,Sn0.9Mn0.14Te(Cu2Te)0.05,750,,,,,,,,,0.74993,,,
18603,10.1002/adma.201605887,1964,6(c),2966,X=0.05_4%Snexcess_KL,Sn0.9Mn0.14Te(Cu2Te)0.05,800,,,,,,,,,0.68091,,,
18603,10.1002/adma.201605887,1964,6(c),2966,X=0.05_4%Snexcess_KL,Sn0.9Mn0.14Te(Cu2Te)0.05,850,,,,,,,,,0.60936,,,
18603,10.1002/adma.201605887,1964,6(c),2966,X=0.05_4%Snexcess_KL,Sn0.9Mn0.14Te(Cu2Te)0.05,900,,,,,,,,,0.51588,,,
18603,10.1002/adma.201605887,1964,6(c),2963,x=0.05_KL,Sn0.86Mn0.14Te(Cu2Te)0.05,300,,,,,,,,,1.5849,,,
18603,10.1002/adma.201605887,1964,6(c),2963,x=0.05_KL,Sn0.86Mn0.14Te(Cu2Te)0.05,350,,,,,,,,,1.5094,,,
18603,10.1002/adma.201605887,1964,6(c),2963,x=0.05_KL,Sn0.86Mn0.14Te(Cu2Te)0.05,400,,,,,,,,,1.4093,,,
18603,10.1002/adma.201605887,1964,6(c),2963,x=0.05_KL,Sn0.86Mn0.14Te(Cu2Te)0.05,450,,,,,,,,,1.2972,,,
18603,10.1002/adma.201605887,1964,6(c),2963,x=0.05_KL,Sn0.86Mn0.14Te(Cu2Te)0.05,500,,,,,,,,,1.1837,,,
18603,10.1002/adma.201605887,1964,6(c),2963,x=0.05_KL,Sn0.86Mn0.14Te(Cu2Te)0.05,550,,,,,,,,,1.0769,,,
18603,10.1002/adma.201605887,1964,6(c),2963,x=0.05_KL,Sn0.86Mn0.14Te(Cu2Te)0.05,600,,,,,,,,,0.98191,,,
18603,10.1002/adma.201605887,1964,6(c),2963,x=0.05_KL,Sn0.86Mn0.14Te(Cu2Te)0.05,650,,,,,,,,,0.90073,,,
18603,10.1002/adma.201605887,1964,6(c),2963,x=0.05_KL,Sn0.86Mn0.14Te(Cu2Te)0.05,700,,,,,,,,,0.83158,,,
18603,10.1002/adma.201605887,1964,6(c),2963,x=0.05_KL,Sn0.86Mn0.14Te(Cu2Te)0.05,750,,,,,,,,,0.76859,,,
18603,10.1002/adma.201605887,1964,6(c),2963,x=0.05_KL,Sn0.86Mn0.14Te(Cu2Te)0.05,800,,,,,,,,,0.70136,,,
18603,10.1002/adma.201605887,1964,6(c),2963,x=0.05_KL,Sn0.86Mn0.14Te(Cu2Te)0.05,850,,,,,,,,,0.6146,,,
18603,10.1002/adma.201605887,1964,6(c),2967,x=0.04_KL,Sn0.9Mn0.14Te(Cu2Te)0.05,300,,,,,,,,,2.0678,,,
18603,10.1002/adma.201605887,1964,6(c),2967,x=0.04_KL,Sn0.9Mn0.14Te(Cu2Te)0.05,350,,,,,,,,,2.0271,,,
18603,10.1002/adma.201605887,1964,6(c),2967,x=0.04_KL,Sn0.9Mn0.14Te(Cu2Te)0.05,400,,,,,,,,,1.9233,,,
18603,10.1002/adma.201605887,1964,6(c),2967,x=0.04_KL,Sn0.9Mn0.14Te(Cu2Te)0.05,450,,,,,,,,,1.787,,,
18603,10.1002/adma.201605887,1964,6(c),2967,x=0.04_KL,Sn0.9Mn0.14Te(Cu2Te)0.05,500,,,,,,,,,1.6386,,,
18603,10.1002/adma.201605887,1964,6(c),2967,x=0.04_KL,Sn0.9Mn0.14Te(Cu2Te)0.05,550,,,,,,,,,1.4904,,,
18603,10.1002/adma.201605887,1964,6(c),2967,x=0.04_KL,Sn0.9Mn0.14Te(Cu2Te)0.05,600,,,,,,,,,1.3485,,,
18603,10.1002/adma.201605887,1964,6(c),2967,x=0.04_KL,Sn0.9Mn0.14Te(Cu2Te)0.05,650,,,,,,,,,1.2153,,,
18603,10.1002/adma.201605887,1964,6(c),2967,x=0.04_KL,Sn0.9Mn0.14Te(Cu2Te)0.05,700,,,,,,,,,1.0909,,,
18603,10.1002/adma.201605887,1964,6(c),2967,x=0.04_KL,Sn0.9Mn0.14Te(Cu2Te)0.05,750,,,,,,,,,0.97563,,,
18603,10.1002/adma.201605887,1964,6(c),2967,x=0.04_KL,Sn0.9Mn0.14Te(Cu2Te)0.05,800,,,,,,,,,0.87199,,,
18603,10.1002/adma.201605887,1964,6(c),2967,x=0.04_KL,Sn0.9Mn0.14Te(Cu2Te)0.05,850,,,,,,,,,0.7866,,,
18603,10.1002/adma.201605887,1966,7(a),2968,y=0.03,Sn1Mn0.03Te(Cu2Te)0.05,350,,509580,0.0000019624,,,,0.00010434,0.000014309,,0.015859,,
18603,10.1002/adma.201605887,1966,7(a),2968,y=0.03,Sn1Mn0.03Te(Cu2Te)0.05,400,,439440,0.0000022756,,,,0.00016662,0.000019472,,0.019793,,
18603,10.1002/adma.201605887,1966,7(a),2968,y=0.03,Sn1Mn0.03Te(Cu2Te)0.05,450,,377860,0.0000026465,,,,0.00025482,0.000025969,,0.024671,,
18603,10.1002/adma.201605887,1966,7(a),2968,y=0.03,Sn1Mn0.03Te(Cu2Te)0.05,500,,326980,0.0000030583,,,,0.00035152,0.000032788,,0.039656,,
18603,10.1002/adma.201605887,1966,7(a),2968,y=0.03,Sn1Mn0.03Te(Cu2Te)0.05,550,,281220,0.0000035559,,,,0.00045299,0.000040135,,0.068595,,
18603,10.1002/adma.201605887,1966,7(a),2968,y=0.03,Sn1Mn0.03Te(Cu2Te)0.05,600,,237070,0.0000042182,,,,0.00056844,0.000048967,,0.11342,,
18603,10.1002/adma.201605887,1966,7(a),2968,y=0.03,Sn1Mn0.03Te(Cu2Te)0.05,650,,194980,0.0000051288,,,,0.00071403,0.000060515,,0.17757,,
18603,10.1002/adma.201605887,1966,7(a),2968,y=0.03,Sn1Mn0.03Te(Cu2Te)0.05,700,,157520,0.0000063486,,,,0.00090546,0.000075817,,0.26938,,
18603,10.1002/adma.201605887,1966,7(a),2968,y=0.03,Sn1Mn0.03Te(Cu2Te)0.05,750,,126790,0.0000078869,,,,0.0011501,0.000095241,,0.4055,,
18603,10.1002/adma.201605887,1966,7(a),2968,y=0.03,Sn1Mn0.03Te(Cu2Te)0.05,800,,103380,0.0000096732,,,,0.00144,0.00011802,,0.61428,,
18603,10.1002/adma.201605887,1966,7(a),2968,y=0.03,Sn1Mn0.03Te(Cu2Te)0.05,850,,86738,0.000011529,,,,0.0017436,0.00014178,,0.93924,,
18603,10.1002/adma.201605887,1967,7(b),2968,y=0.03,Sn1Mn0.03Te(Cu2Te)0.05,300,,551270,0.000001814,,,,,,,,,
18603,10.1002/adma.201605887,1966,7(a),2971,y=0.12,Sn0.91Mn0.12Te(Cu2Te)0.05,350,,235680,0.000004243,,,,0.00025541,0.00003292,,0.035171,,
18603,10.1002/adma.201605887,1966,7(a),2971,y=0.12,Sn0.91Mn0.12Te(Cu2Te)0.05,400,,195950,0.0000051034,,,,0.00040567,0.0000455,,0.071351,,
18603,10.1002/adma.201605887,1966,7(a),2971,y=0.12,Sn0.91Mn0.12Te(Cu2Te)0.05,450,,162580,0.0000061509,,,,0.00058233,0.000059848,,0.12281,,
18603,10.1002/adma.201605887,1966,7(a),2971,y=0.12,Sn0.91Mn0.12Te(Cu2Te)0.05,500,,137990,0.0000072467,,,,0.00076173,0.000074298,,0.18934,,
18603,10.1002/adma.201605887,1966,7(a),2971,y=0.12,Sn0.91Mn0.12Te(Cu2Te)0.05,550,,117770,0.0000084912,,,,0.00092743,0.000088741,,0.27274,,
18603,10.1002/adma.201605887,1966,7(a),2971,y=0.12,Sn0.91Mn0.12Te(Cu2Te)0.05,600,,98785,0.000010123,,,,0.0010674,0.00010395,,0.37499,,
18603,10.1002/adma.201605887,1966,7(a),2971,y=0.12,Sn0.91Mn0.12Te(Cu2Te)0.05,650,,80528,0.000012418,,,,0.0011775,0.00012092,,0.49648,,
18603,10.1002/adma.201605887,1966,7(a),2971,y=0.12,Sn0.91Mn0.12Te(Cu2Te)0.05,700,,64164,0.000015585,,,,0.001261,0.00014019,,0.63407,,
18603,10.1002/adma.201605887,1966,7(a),2971,y=0.12,Sn0.91Mn0.12Te(Cu2Te)0.05,750,,50839,0.00001967,,,,0.0013203,0.00016115,,0.77936,,
18603,10.1002/adma.201605887,1966,7(a),2971,y=0.12,Sn0.91Mn0.12Te(Cu2Te)0.05,800,,40901,0.000024449,,,,0.0013462,0.00018142,,0.91681,,
18603,10.1002/adma.201605887,1966,7(a),2971,y=0.12,Sn0.91Mn0.12Te(Cu2Te)0.05,850,,,,,,,,0.00019613,,1.0219,,
18603,10.1002/adma.201605887,1966,7(a),2972,x=0.14,Sn0.86Mn0.14Te(Cu2Te)0.05,350,,,,,,,,0.000053967,,,,
18603,10.1002/adma.201605887,1966,7(a),2972,x=0.14,Sn0.86Mn0.14Te(Cu2Te)0.05,400,,,,,,,,0.000069073,,,,
18603,10.1002/adma.201605887,1966,7(a),2972,x=0.14,Sn0.86Mn0.14Te(Cu2Te)0.05,450,,,,,,,,0.000086367,,,,
18603,10.1002/adma.201605887,1966,7(a),2972,x=0.14,Sn0.86Mn0.14Te(Cu2Te)0.05,500,,,,,,,,0.0001041,,,,
18603,10.1002/adma.201605887,1966,7(a),2972,x=0.14,Sn0.86Mn0.14Te(Cu2Te)0.05,550,,,,,,,,0.00012197,,,,
18603,10.1002/adma.201605887,1966,7(a),2972,x=0.14,Sn0.86Mn0.14Te(Cu2Te)0.05,600,,,,,,,,0.00014047,,,,
18603,10.1002/adma.201605887,1966,7(a),2972,x=0.14,Sn0.86Mn0.14Te(Cu2Te)0.05,650,,,,,,,,0.00016019,,,,
18603,10.1002/adma.201605887,1966,7(a),2972,x=0.14,Sn0.86Mn0.14Te(Cu2Te)0.05,700,,,,,,,,0.00018119,,,,
18603,10.1002/adma.201605887,1966,7(a),2972,x=0.14,Sn0.86Mn0.14Te(Cu2Te)0.05,750,,,,,,,,0.00020225,,,,
18603,10.1002/adma.201605887,1966,7(a),2972,x=0.14,Sn0.86Mn0.14Te(Cu2Te)0.05,800,,,,,,,,0.00022031,,,,