sid,DOI,figureid,fignum,sampleid,samplename,composition,Temperature,Carrier concentration,Electrical conductivity,Electrical resistivity,Hall coefficient,Hall movility,Lattice thermal conductivity,Power factor,Seebeck coefficient,Thermal conductivity,ZT,total thermal conductivity,Figure of merit Z
27946,10.1021/acsenergylett.6b00671,26386,3(b),33046,Sn1.03−yMgyTe(Cu2Te)0.05,undefined,,7.1e+25,,,,0.0047864,,,0.00013488,,,,
27946,10.1021/acsenergylett.6b00671,26386,3(b),33046,Sn1.03−yMgyTe(Cu2Te)0.05,undefined,,7.15e+25,,,,0.0047812,,,0.00013482,,,,
27946,10.1021/acsenergylett.6b00671,26386,3(b),33046,Sn1.03−yMgyTe(Cu2Te)0.05,undefined,,7.2e+25,,,,0.0047759,,,0.00013476,,,,
27946,10.1021/acsenergylett.6b00671,26386,3(b),33046,Sn1.03−yMgyTe(Cu2Te)0.05,undefined,,7.25e+25,,,,0.0047707,,,0.0001347,,,,
27946,10.1021/acsenergylett.6b00671,26386,3(b),33046,Sn1.03−yMgyTe(Cu2Te)0.05,undefined,,7.3e+25,,,,0.0047654,,,0.00013465,,,,
27946,10.1021/acsenergylett.6b00671,26386,3(b),33046,Sn1.03−yMgyTe(Cu2Te)0.05,undefined,,7.35e+25,,,,0.0047602,,,0.00013459,,,,
27946,10.1021/acsenergylett.6b00671,26386,3(b),33046,Sn1.03−yMgyTe(Cu2Te)0.05,undefined,,7.4e+25,,,,0.0047549,,,0.00013453,,,,
27946,10.1021/acsenergylett.6b00671,26386,3(b),33046,Sn1.03−yMgyTe(Cu2Te)0.05,undefined,,7.45e+25,,,,0.0047496,,,0.00013447,,,,
27946,10.1021/acsenergylett.6b00671,26386,3(b),33046,Sn1.03−yMgyTe(Cu2Te)0.05,undefined,,7.5e+25,,,,0.0047444,,,0.00013441,,,,
27946,10.1021/acsenergylett.6b00671,26386,3(b),33046,Sn1.03−yMgyTe(Cu2Te)0.05,undefined,,7.55e+25,,,,0.0047391,,,0.00013435,,,,
27946,10.1021/acsenergylett.6b00671,26386,3(b),33046,Sn1.03−yMgyTe(Cu2Te)0.05,undefined,,7.6e+25,,,,0.0047339,,,0.0001343,,,,
27946,10.1021/acsenergylett.6b00671,26386,3(b),33046,Sn1.03−yMgyTe(Cu2Te)0.05,undefined,,7.65e+25,,,,0.0047286,,,0.00013424,,,,
27946,10.1021/acsenergylett.6b00671,26386,3(b),33046,Sn1.03−yMgyTe(Cu2Te)0.05,undefined,,7.7e+25,,,,0.0047233,,,0.00013418,,,,
27946,10.1021/acsenergylett.6b00671,26386,3(b),33046,Sn1.03−yMgyTe(Cu2Te)0.05,undefined,,7.75e+25,,,,0.0047181,,,0.00013412,,,,
27946,10.1021/acsenergylett.6b00671,26386,3(b),33046,Sn1.03−yMgyTe(Cu2Te)0.05,undefined,,7.8e+25,,,,0.0047128,,,0.00013406,,,,
27946,10.1021/acsenergylett.6b00671,26386,3(b),33046,Sn1.03−yMgyTe(Cu2Te)0.05,undefined,,7.85e+25,,,,0.0047076,,,0.000134,,,,
27946,10.1021/acsenergylett.6b00671,26386,3(b),33046,Sn1.03−yMgyTe(Cu2Te)0.05,undefined,,7.9e+25,,,,0.0047023,,,0.00013394,,,,
27946,10.1021/acsenergylett.6b00671,26386,3(b),33046,Sn1.03−yMgyTe(Cu2Te)0.05,undefined,,7.95e+25,,,,0.0046971,,,0.00013389,,,,
27946,10.1021/acsenergylett.6b00671,26386,3(b),33046,Sn1.03−yMgyTe(Cu2Te)0.05,undefined,,8e+25,,,,0.0046918,,,0.00013383,,,,
27946,10.1021/acsenergylett.6b00671,26386,3(b),33046,Sn1.03−yMgyTe(Cu2Te)0.05,undefined,,8.05e+25,,,,0.0046865,,,0.00013377,,,,
27946,10.1021/acsenergylett.6b00671,26386,3(b),33046,Sn1.03−yMgyTe(Cu2Te)0.05,undefined,,8.1e+25,,,,0.0046813,,,0.00013371,,,,
27946,10.1021/acsenergylett.6b00671,26386,3(b),33046,Sn1.03−yMgyTe(Cu2Te)0.05,undefined,,8.15e+25,,,,0.004676,,,0.00013365,,,,
27946,10.1021/acsenergylett.6b00671,26386,3(b),33046,Sn1.03−yMgyTe(Cu2Te)0.05,undefined,,8.2e+25,,,,0.0046708,,,0.00013359,,,,
27946,10.1021/acsenergylett.6b00671,26386,3(b),33046,Sn1.03−yMgyTe(Cu2Te)0.05,undefined,,8.25e+25,,,,0.0046655,,,0.00013353,,,,
27946,10.1021/acsenergylett.6b00671,26386,3(b),33046,Sn1.03−yMgyTe(Cu2Te)0.05,undefined,,8.3e+25,,,,0.0046602,,,0.00013348,,,,
27946,10.1021/acsenergylett.6b00671,26386,3(b),33046,Sn1.03−yMgyTe(Cu2Te)0.05,undefined,,8.35e+25,,,,0.004655,,,0.00013342,,,,
27946,10.1021/acsenergylett.6b00671,26386,3(b),33046,Sn1.03−yMgyTe(Cu2Te)0.05,undefined,,8.4e+25,,,,0.0046497,,,0.00013336,,,,
27946,10.1021/acsenergylett.6b00671,26386,3(b),33046,Sn1.03−yMgyTe(Cu2Te)0.05,undefined,,8.45e+25,,,,0.0046445,,,0.0001333,,,,
27946,10.1021/acsenergylett.6b00671,26386,3(b),33046,Sn1.03−yMgyTe(Cu2Te)0.05,undefined,,8.5e+25,,,,0.0046392,,,0.00013324,,,,
27946,10.1021/acsenergylett.6b00671,26386,3(b),33046,Sn1.03−yMgyTe(Cu2Te)0.05,undefined,,8.55e+25,,,,0.004634,,,0.00013318,,,,
27946,10.1021/acsenergylett.6b00671,26386,3(b),33046,Sn1.03−yMgyTe(Cu2Te)0.05,undefined,,8.6e+25,,,,0.0046287,,,0.00013313,,,,
27946,10.1021/acsenergylett.6b00671,26386,3(b),33046,Sn1.03−yMgyTe(Cu2Te)0.05,undefined,,8.65e+25,,,,0.0046234,,,0.00013307,,,,
27946,10.1021/acsenergylett.6b00671,26386,3(b),33046,Sn1.03−yMgyTe(Cu2Te)0.05,undefined,,8.7e+25,,,,0.0046182,,,0.00013301,,,,
27946,10.1021/acsenergylett.6b00671,26386,3(b),33046,Sn1.03−yMgyTe(Cu2Te)0.05,undefined,,8.75e+25,,,,0.0046129,,,0.00013295,,,,
27946,10.1021/acsenergylett.6b00671,26386,3(b),33046,Sn1.03−yMgyTe(Cu2Te)0.05,undefined,,8.8e+25,,,,0.0046077,,,0.00013289,,,,
27946,10.1021/acsenergylett.6b00671,26386,3(b),33046,Sn1.03−yMgyTe(Cu2Te)0.05,undefined,,8.85e+25,,,,0.0046024,,,0.00013283,,,,
27946,10.1021/acsenergylett.6b00671,26386,3(b),33046,Sn1.03−yMgyTe(Cu2Te)0.05,undefined,,8.9e+25,,,,0.0045971,,,0.00013277,,,,
27946,10.1021/acsenergylett.6b00671,26386,3(b),33046,Sn1.03−yMgyTe(Cu2Te)0.05,undefined,,8.95e+25,,,,0.0045919,,,0.00013272,,,,
27946,10.1021/acsenergylett.6b00671,26386,3(b),33046,Sn1.03−yMgyTe(Cu2Te)0.05,undefined,,9e+25,,,,0.0045866,,,0.00013266,,,,
27946,10.1021/acsenergylett.6b00671,26386,3(b),33046,Sn1.03−yMgyTe(Cu2Te)0.05,undefined,,9.05e+25,,,,0.0045814,,,0.0001326,,,,
27946,10.1021/acsenergylett.6b00671,26386,3(b),33046,Sn1.03−yMgyTe(Cu2Te)0.05,undefined,,9.1e+25,,,,0.0045761,,,0.00013254,,,,
27946,10.1021/acsenergylett.6b00671,26386,3(b),33046,Sn1.03−yMgyTe(Cu2Te)0.05,undefined,,9.15e+25,,,,0.0045709,,,0.00013248,,,,
27946,10.1021/acsenergylett.6b00671,26386,3(b),33046,Sn1.03−yMgyTe(Cu2Te)0.05,undefined,,9.2e+25,,,,0.0045656,,,0.00013242,,,,
27946,10.1021/acsenergylett.6b00671,26386,3(b),33046,Sn1.03−yMgyTe(Cu2Te)0.05,undefined,,9.25e+25,,,,0.0045603,,,0.00013237,,,,
27946,10.1021/acsenergylett.6b00671,26386,3(b),33046,Sn1.03−yMgyTe(Cu2Te)0.05,undefined,,9.3e+25,,,,0.0045551,,,0.00013231,,,,
27946,10.1021/acsenergylett.6b00671,26386,3(b),33046,Sn1.03−yMgyTe(Cu2Te)0.05,undefined,,9.35e+25,,,,0.0045498,,,0.00013225,,,,
27946,10.1021/acsenergylett.6b00671,26386,3(b),33046,Sn1.03−yMgyTe(Cu2Te)0.05,undefined,,9.4e+25,,,,0.0045446,,,0.00013219,,,,
27946,10.1021/acsenergylett.6b00671,26386,3(b),33046,Sn1.03−yMgyTe(Cu2Te)0.05,undefined,,9.45e+25,,,,0.0045393,,,0.00013213,,,,
27946,10.1021/acsenergylett.6b00671,26386,3(b),33046,Sn1.03−yMgyTe(Cu2Te)0.05,undefined,,9.5e+25,,,,0.004534,,,0.00013207,,,,
27946,10.1021/acsenergylett.6b00671,26386,3(b),33046,Sn1.03−yMgyTe(Cu2Te)0.05,undefined,,9.55e+25,,,,0.0045288,,,0.00013201,,,,
27946,10.1021/acsenergylett.6b00671,26386,3(b),33046,Sn1.03−yMgyTe(Cu2Te)0.05,undefined,,9.6e+25,,,,0.0045235,,,0.00013196,,,,
27946,10.1021/acsenergylett.6b00671,26386,3(b),33046,Sn1.03−yMgyTe(Cu2Te)0.05,undefined,,9.65e+25,,,,0.0045183,,,0.0001319,,,,
27946,10.1021/acsenergylett.6b00671,26386,3(b),33046,Sn1.03−yMgyTe(Cu2Te)0.05,undefined,,9.7e+25,,,,0.004513,,,0.00013184,,,,
27946,10.1021/acsenergylett.6b00671,26386,3(b),33046,Sn1.03−yMgyTe(Cu2Te)0.05,undefined,,9.75e+25,,,,0.0045078,,,0.00013178,,,,
27946,10.1021/acsenergylett.6b00671,26386,3(b),33046,Sn1.03−yMgyTe(Cu2Te)0.05,undefined,,9.8e+25,,,,0.0045025,,,0.00013172,,,,
27946,10.1021/acsenergylett.6b00671,26386,3(b),33046,Sn1.03−yMgyTe(Cu2Te)0.05,undefined,,9.85e+25,,,,0.0044972,,,0.00013166,,,,
27946,10.1021/acsenergylett.6b00671,26386,3(b),33046,Sn1.03−yMgyTe(Cu2Te)0.05,undefined,,9.9e+25,,,,0.004492,,,0.00013161,,,,
27946,10.1021/acsenergylett.6b00671,26386,3(b),33046,Sn1.03−yMgyTe(Cu2Te)0.05,undefined,,9.95e+25,,,,0.0044867,,,0.00013155,,,,
27946,10.1021/acsenergylett.6b00671,26386,3(b),33046,Sn1.03−yMgyTe(Cu2Te)0.05,undefined,,1e+26,,,,0.0044815,,,0.00013149,,,,
27946,10.1021/acsenergylett.6b00671,26386,3(b),33046,Sn1.03−yMgyTe(Cu2Te)0.05,undefined,,1.005e+26,,,,0.0044762,,,0.00013143,,,,
27946,10.1021/acsenergylett.6b00671,26386,3(b),33046,Sn1.03−yMgyTe(Cu2Te)0.05,undefined,,1.01e+26,,,,0.0044709,,,0.00013137,,,,
27946,10.1021/acsenergylett.6b00671,26386,3(b),33046,Sn1.03−yMgyTe(Cu2Te)0.05,undefined,,1.015e+26,,,,0.0044657,,,0.00013131,,,,
27946,10.1021/acsenergylett.6b00671,26386,3(b),33046,Sn1.03−yMgyTe(Cu2Te)0.05,undefined,,1.02e+26,,,,0.0044604,,,0.00013125,,,,
27946,10.1021/acsenergylett.6b00671,26386,3(b),33046,Sn1.03−yMgyTe(Cu2Te)0.05,undefined,,1.025e+26,,,,0.0044552,,,0.0001312,,,,
27946,10.1021/acsenergylett.6b00671,26386,3(b),33046,Sn1.03−yMgyTe(Cu2Te)0.05,undefined,,1.03e+26,,,,0.0044499,,,0.00013114,,,,
27946,10.1021/acsenergylett.6b00671,26386,3(b),33046,Sn1.03−yMgyTe(Cu2Te)0.05,undefined,,1.035e+26,,,,0.0044447,,,0.00013108,,,,
27946,10.1021/acsenergylett.6b00671,26386,3(b),33046,Sn1.03−yMgyTe(Cu2Te)0.05,undefined,,1.04e+26,,,,0.0044394,,,0.00013102,,,,
27946,10.1021/acsenergylett.6b00671,26386,3(b),33046,Sn1.03−yMgyTe(Cu2Te)0.05,undefined,,1.045e+26,,,,0.0044341,,,0.00013096,,,,
27946,10.1021/acsenergylett.6b00671,26386,3(b),33046,Sn1.03−yMgyTe(Cu2Te)0.05,undefined,,1.05e+26,,,,0.0044289,,,0.0001309,,,,
27946,10.1021/acsenergylett.6b00671,26386,3(b),33046,Sn1.03−yMgyTe(Cu2Te)0.05,undefined,,1.055e+26,,,,0.0044236,,,0.00013084,,,,
27946,10.1021/acsenergylett.6b00671,26386,3(b),33046,Sn1.03−yMgyTe(Cu2Te)0.05,undefined,,1.06e+26,,,,0.0044184,,,0.00013079,,,,
27946,10.1021/acsenergylett.6b00671,26386,3(b),33046,Sn1.03−yMgyTe(Cu2Te)0.05,undefined,,1.065e+26,,,,0.0044131,,,0.00013073,,,,
27946,10.1021/acsenergylett.6b00671,26386,3(b),33046,Sn1.03−yMgyTe(Cu2Te)0.05,undefined,,1.07e+26,,,,0.0044078,,,0.00013067,,,,
27946,10.1021/acsenergylett.6b00671,26386,3(b),33046,Sn1.03−yMgyTe(Cu2Te)0.05,undefined,,1.075e+26,,,,0.0044026,,,0.00013061,,,,
27946,10.1021/acsenergylett.6b00671,26386,3(b),33046,Sn1.03−yMgyTe(Cu2Te)0.05,undefined,,1.08e+26,,,,0.0043973,,,0.00013055,,,,
27946,10.1021/acsenergylett.6b00671,26386,3(b),33046,Sn1.03−yMgyTe(Cu2Te)0.05,undefined,,1.085e+26,,,,0.0043921,,,0.00013049,,,,
27946,10.1021/acsenergylett.6b00671,26386,3(b),33046,Sn1.03−yMgyTe(Cu2Te)0.05,undefined,,1.09e+26,,,,0.0043868,,,0.00013044,,,,
27946,10.1021/acsenergylett.6b00671,26386,3(b),33046,Sn1.03−yMgyTe(Cu2Te)0.05,undefined,,1.095e+26,,,,0.0043816,,,0.00013038,,,,
27946,10.1021/acsenergylett.6b00671,26386,3(b),33046,Sn1.03−yMgyTe(Cu2Te)0.05,undefined,,1.1e+26,,,,0.0043763,,,0.00013032,,,,
27946,10.1021/acsenergylett.6b00671,26386,3(b),33046,Sn1.03−yMgyTe(Cu2Te)0.05,undefined,,1.105e+26,,,,0.004371,,,0.00013026,,,,
27946,10.1021/acsenergylett.6b00671,26386,3(b),33046,Sn1.03−yMgyTe(Cu2Te)0.05,undefined,,1.11e+26,,,,0.0043658,,,0.0001302,,,,
27946,10.1021/acsenergylett.6b00671,26386,3(b),33046,Sn1.03−yMgyTe(Cu2Te)0.05,undefined,,1.115e+26,,,,0.0043605,,,0.00013014,,,,
27946,10.1021/acsenergylett.6b00671,26386,3(b),33046,Sn1.03−yMgyTe(Cu2Te)0.05,undefined,,1.12e+26,,,,0.0043553,,,0.00013008,,,,
27946,10.1021/acsenergylett.6b00671,26386,3(b),33046,Sn1.03−yMgyTe(Cu2Te)0.05,undefined,,1.125e+26,,,,0.00435,,,0.00013003,,,,
27946,10.1021/acsenergylett.6b00671,26386,3(b),33046,Sn1.03−yMgyTe(Cu2Te)0.05,undefined,,1.13e+26,,,,0.0043447,,,0.00012997,,,,
27946,10.1021/acsenergylett.6b00671,26386,3(b),33046,Sn1.03−yMgyTe(Cu2Te)0.05,undefined,,1.135e+26,,,,0.0043395,,,0.00012991,,,,
27946,10.1021/acsenergylett.6b00671,26386,3(b),33046,Sn1.03−yMgyTe(Cu2Te)0.05,undefined,,1.14e+26,,,,0.0043342,,,0.00012985,,,,
27946,10.1021/acsenergylett.6b00671,26386,3(b),33046,Sn1.03−yMgyTe(Cu2Te)0.05,undefined,,1.145e+26,,,,0.004329,,,0.00012979,,,,
27946,10.1021/acsenergylett.6b00671,26386,3(b),33046,Sn1.03−yMgyTe(Cu2Te)0.05,undefined,,1.15e+26,,,,0.0043237,,,0.00012973,,,,
27946,10.1021/acsenergylett.6b00671,26386,3(b),33046,Sn1.03−yMgyTe(Cu2Te)0.05,undefined,,1.155e+26,,,,0.0043185,,,0.00012968,,,,
27946,10.1021/acsenergylett.6b00671,26386,3(b),33046,Sn1.03−yMgyTe(Cu2Te)0.05,undefined,,1.16e+26,,,,0.0043132,,,0.00012962,,,,
27946,10.1021/acsenergylett.6b00671,26386,3(b),33046,Sn1.03−yMgyTe(Cu2Te)0.05,undefined,,1.165e+26,,,,0.0043079,,,0.00012956,,,,
27946,10.1021/acsenergylett.6b00671,26386,3(b),33046,Sn1.03−yMgyTe(Cu2Te)0.05,undefined,,1.17e+26,,,,0.0043027,,,0.0001295,,,,
27946,10.1021/acsenergylett.6b00671,26386,3(b),33046,Sn1.03−yMgyTe(Cu2Te)0.05,undefined,,1.175e+26,,,,0.0042974,,,0.00012944,,,,
27946,10.1021/acsenergylett.6b00671,26386,3(b),33046,Sn1.03−yMgyTe(Cu2Te)0.05,undefined,,1.18e+26,,,,0.0042922,,,0.00012938,,,,
27946,10.1021/acsenergylett.6b00671,26386,3(b),33046,Sn1.03−yMgyTe(Cu2Te)0.05,undefined,,1.185e+26,,,,0.0042869,,,0.00012932,,,,
27946,10.1021/acsenergylett.6b00671,26386,3(b),33046,Sn1.03−yMgyTe(Cu2Te)0.05,undefined,,1.19e+26,,,,0.0042816,,,0.00012927,,,,
27946,10.1021/acsenergylett.6b00671,26386,3(b),33046,Sn1.03−yMgyTe(Cu2Te)0.05,undefined,,1.195e+26,,,,0.0042764,,,0.00012921,,,,
27946,10.1021/acsenergylett.6b00671,26386,3(b),33046,Sn1.03−yMgyTe(Cu2Te)0.05,undefined,,1.2e+26,,,,0.0042711,,,0.00012915,,,,
27946,10.1021/acsenergylett.6b00671,26386,3(b),33046,Sn1.03−yMgyTe(Cu2Te)0.05,undefined,,1.205e+26,,,,0.0042659,,,0.00012909,,,,
27946,10.1021/acsenergylett.6b00671,26386,3(b),33046,Sn1.03−yMgyTe(Cu2Te)0.05,undefined,,1.21e+26,,,,0.0042606,,,0.00012903,,,,
27946,10.1021/acsenergylett.6b00671,26386,3(b),33046,Sn1.03−yMgyTe(Cu2Te)0.05,undefined,,1.215e+26,,,,0.0042554,,,0.00012897,,,,
27946,10.1021/acsenergylett.6b00671,26386,3(b),33046,Sn1.03−yMgyTe(Cu2Te)0.05,undefined,,1.22e+26,,,,0.0042501,,,0.00012892,,,,
27946,10.1021/acsenergylett.6b00671,26386,3(b),33046,Sn1.03−yMgyTe(Cu2Te)0.05,undefined,,1.225e+26,,,,0.0042448,,,0.00012886,,,,
27946,10.1021/acsenergylett.6b00671,26386,3(b),33046,Sn1.03−yMgyTe(Cu2Te)0.05,undefined,,1.23e+26,,,,0.0042396,,,0.0001288,,,,
27946,10.1021/acsenergylett.6b00671,26386,3(b),33046,Sn1.03−yMgyTe(Cu2Te)0.05,undefined,,1.235e+26,,,,0.0042343,,,0.00012874,,,,
27946,10.1021/acsenergylett.6b00671,26386,3(b),33046,Sn1.03−yMgyTe(Cu2Te)0.05,undefined,,1.24e+26,,,,0.0042291,,,0.00012868,,,,
27946,10.1021/acsenergylett.6b00671,26386,3(b),33046,Sn1.03−yMgyTe(Cu2Te)0.05,undefined,,1.245e+26,,,,0.0042238,,,0.00012862,,,,
27946,10.1021/acsenergylett.6b00671,26386,3(b),33046,Sn1.03−yMgyTe(Cu2Te)0.05,undefined,,1.25e+26,,,,0.0042185,,,0.00012856,,,,
27946,10.1021/acsenergylett.6b00671,26386,3(b),33046,Sn1.03−yMgyTe(Cu2Te)0.05,undefined,,1.255e+26,,,,0.0042133,,,0.00012851,,,,
27946,10.1021/acsenergylett.6b00671,26386,3(b),33046,Sn1.03−yMgyTe(Cu2Te)0.05,undefined,,1.26e+26,,,,0.004208,,,0.00012845,,,,
27946,10.1021/acsenergylett.6b00671,26386,3(b),33046,Sn1.03−yMgyTe(Cu2Te)0.05,undefined,,1.265e+26,,,,0.0042028,,,0.00012839,,,,
27946,10.1021/acsenergylett.6b00671,26386,3(b),33046,Sn1.03−yMgyTe(Cu2Te)0.05,undefined,,1.27e+26,,,,0.0041975,,,0.00012833,,,,
27946,10.1021/acsenergylett.6b00671,26386,3(b),33046,Sn1.03−yMgyTe(Cu2Te)0.05,undefined,,1.275e+26,,,,0.0041923,,,0.00012827,,,,
27946,10.1021/acsenergylett.6b00671,26386,3(b),33046,Sn1.03−yMgyTe(Cu2Te)0.05,undefined,,1.28e+26,,,,0.004187,,,0.00012821,,,,
27946,10.1021/acsenergylett.6b00671,26386,3(b),33046,Sn1.03−yMgyTe(Cu2Te)0.05,undefined,,1.285e+26,,,,0.0041817,,,0.00012816,,,,
27946,10.1021/acsenergylett.6b00671,26386,3(b),33046,Sn1.03−yMgyTe(Cu2Te)0.05,undefined,,1.29e+26,,,,0.0041765,,,0.0001281,,,,
27946,10.1021/acsenergylett.6b00671,26386,3(b),33046,Sn1.03−yMgyTe(Cu2Te)0.05,undefined,,1.295e+26,,,,0.0041712,,,0.00012804,,,,
27946,10.1021/acsenergylett.6b00671,26386,3(b),33046,Sn1.03−yMgyTe(Cu2Te)0.05,undefined,,1.3e+26,,,,0.004166,,,0.00012798,,,,
27946,10.1021/acsenergylett.6b00671,26386,3(b),33046,Sn1.03−yMgyTe(Cu2Te)0.05,undefined,,1.305e+26,,,,0.0041607,,,0.00012792,,,,
27946,10.1021/acsenergylett.6b00671,26386,3(b),33046,Sn1.03−yMgyTe(Cu2Te)0.05,undefined,,1.31e+26,,,,0.0041554,,,0.00012786,,,,
27946,10.1021/acsenergylett.6b00671,26386,3(b),33046,Sn1.03−yMgyTe(Cu2Te)0.05,undefined,,1.315e+26,,,,0.0041502,,,0.0001278,,,,
27946,10.1021/acsenergylett.6b00671,26386,3(b),33046,Sn1.03−yMgyTe(Cu2Te)0.05,undefined,,1.32e+26,,,,0.0041449,,,0.00012775,,,,
27946,10.1021/acsenergylett.6b00671,26386,3(b),33046,Sn1.03−yMgyTe(Cu2Te)0.05,undefined,,1.325e+26,,,,0.0041397,,,0.00012769,,,,
27946,10.1021/acsenergylett.6b00671,26386,3(b),33046,Sn1.03−yMgyTe(Cu2Te)0.05,undefined,,1.33e+26,,,,0.0041344,,,0.00012763,,,,
27946,10.1021/acsenergylett.6b00671,26386,3(b),33046,Sn1.03−yMgyTe(Cu2Te)0.05,undefined,,1.335e+26,,,,0.0041292,,,0.00012757,,,,
27946,10.1021/acsenergylett.6b00671,26386,3(b),33046,Sn1.03−yMgyTe(Cu2Te)0.05,undefined,,1.34e+26,,,,0.0041239,,,0.00012751,,,,
27946,10.1021/acsenergylett.6b00671,26386,3(b),33046,Sn1.03−yMgyTe(Cu2Te)0.05,undefined,,1.345e+26,,,,0.0041186,,,0.00012745,,,,
27946,10.1021/acsenergylett.6b00671,26386,3(b),33046,Sn1.03−yMgyTe(Cu2Te)0.05,undefined,,1.35e+26,,,,0.0041134,,,0.00012739,,,,
27946,10.1021/acsenergylett.6b00671,26386,3(b),33046,Sn1.03−yMgyTe(Cu2Te)0.05,undefined,,1.355e+26,,,,0.0041081,,,0.00012734,,,,
27946,10.1021/acsenergylett.6b00671,26386,3(b),33046,Sn1.03−yMgyTe(Cu2Te)0.05,undefined,,1.36e+26,,,,0.0041029,,,0.00012728,,,,
27946,10.1021/acsenergylett.6b00671,26386,3(b),33046,Sn1.03−yMgyTe(Cu2Te)0.05,undefined,,1.365e+26,,,,0.0040976,,,0.00012722,,,,
27946,10.1021/acsenergylett.6b00671,26386,3(b),33046,Sn1.03−yMgyTe(Cu2Te)0.05,undefined,,1.37e+26,,,,0.0040923,,,0.00012716,,,,
27946,10.1021/acsenergylett.6b00671,26386,3(b),33046,Sn1.03−yMgyTe(Cu2Te)0.05,undefined,,1.375e+26,,,,0.0040871,,,0.0001271,,,,
27946,10.1021/acsenergylett.6b00671,26386,3(b),33046,Sn1.03−yMgyTe(Cu2Te)0.05,undefined,,1.38e+26,,,,0.0040818,,,0.00012704,,,,
27946,10.1021/acsenergylett.6b00671,26386,3(b),33046,Sn1.03−yMgyTe(Cu2Te)0.05,undefined,,1.385e+26,,,,0.0040766,,,0.00012699,,,,
27946,10.1021/acsenergylett.6b00671,26386,3(b),33046,Sn1.03−yMgyTe(Cu2Te)0.05,undefined,,1.39e+26,,,,0.0040713,,,0.00012693,,,,
27946,10.1021/acsenergylett.6b00671,26386,3(b),33046,Sn1.03−yMgyTe(Cu2Te)0.05,undefined,,1.395e+26,,,,0.0040661,,,0.00012687,,,,
27946,10.1021/acsenergylett.6b00671,26386,3(b),33046,Sn1.03−yMgyTe(Cu2Te)0.05,undefined,,1.4e+26,,,,0.0040608,,,0.00012681,,,,
27946,10.1021/acsenergylett.6b00671,26386,3(b),33046,Sn1.03−yMgyTe(Cu2Te)0.05,undefined,,1.405e+26,,,,0.0040555,,,0.00012675,,,,
27946,10.1021/acsenergylett.6b00671,26386,3(b),33046,Sn1.03−yMgyTe(Cu2Te)0.05,undefined,,1.41e+26,,,,0.0040503,,,0.00012669,,,,
27946,10.1021/acsenergylett.6b00671,26386,3(b),33046,Sn1.03−yMgyTe(Cu2Te)0.05,undefined,,1.415e+26,,,,0.004045,,,0.00012663,,,,
27946,10.1021/acsenergylett.6b00671,26387,3(c),33046,Sn1.03−yMgyTe(Cu2Te)0.05,undefined,,3.06e+26,,,,0.0042564,,,,,,,
27946,10.1021/acsenergylett.6b00671,26387,3(c),33046,Sn1.03−yMgyTe(Cu2Te)0.05,undefined,,3.065e+26,,,,0.0042397,,,,,,,