sid,DOI,figureid,fignum,sampleid,samplename,composition,Temperature,Carrier concentration,Electrical conductivity,Electrical resistivity,Hall coefficient,Hall movility,Lattice thermal conductivity,Power factor,Seebeck coefficient,Thermal conductivity,ZT,total thermal conductivity,Figure of merit Z
18650,10.1016/j.jmat.2015.09.001,26378,3(b),31991,Sn(1-x)MnxTe_ x=0.15,undefined,,6.88e+26,,,,0.00049123,,,0.00014904,,,,
18650,10.1016/j.jmat.2015.09.001,26378,3(b),31991,Sn(1-x)MnxTe_ x=0.15,undefined,,6.885e+26,,,,0.00049111,,,0.00014897,,,,
18650,10.1016/j.jmat.2015.09.001,26378,3(b),31991,Sn(1-x)MnxTe_ x=0.15,undefined,,6.89e+26,,,,0.00049099,,,0.0001489,,,,
18650,10.1016/j.jmat.2015.09.001,26378,3(b),31991,Sn(1-x)MnxTe_ x=0.15,undefined,,6.895e+26,,,,0.00049087,,,0.00014883,,,,
18650,10.1016/j.jmat.2015.09.001,26378,3(b),31991,Sn(1-x)MnxTe_ x=0.15,undefined,,6.9e+26,,,,0.00049074,,,0.00014877,,,,
18650,10.1016/j.jmat.2015.09.001,26378,3(b),31991,Sn(1-x)MnxTe_ x=0.15,undefined,,6.905e+26,,,,0.00049062,,,0.0001487,,,,
18650,10.1016/j.jmat.2015.09.001,26378,3(b),31991,Sn(1-x)MnxTe_ x=0.15,undefined,,6.91e+26,,,,0.0004905,,,0.00014863,,,,
18650,10.1016/j.jmat.2015.09.001,26378,3(b),31991,Sn(1-x)MnxTe_ x=0.15,undefined,,6.915e+26,,,,0.00049038,,,0.00014856,,,,
18650,10.1016/j.jmat.2015.09.001,26378,3(b),31991,Sn(1-x)MnxTe_ x=0.15,undefined,,6.92e+26,,,,0.00049026,,,0.00014849,,,,
18650,10.1016/j.jmat.2015.09.001,26378,3(b),31991,Sn(1-x)MnxTe_ x=0.15,undefined,,6.925e+26,,,,0.00049014,,,0.00014843,,,,
18650,10.1016/j.jmat.2015.09.001,26378,3(b),31991,Sn(1-x)MnxTe_ x=0.15,undefined,,6.93e+26,,,,0.00049002,,,0.00014836,,,,
18650,10.1016/j.jmat.2015.09.001,26378,3(b),31991,Sn(1-x)MnxTe_ x=0.15,undefined,,6.935e+26,,,,0.0004899,,,0.00014829,,,,
18650,10.1016/j.jmat.2015.09.001,26378,3(b),31991,Sn(1-x)MnxTe_ x=0.15,undefined,,6.94e+26,,,,0.00048977,,,0.00014822,,,,
18650,10.1016/j.jmat.2015.09.001,26378,3(b),31991,Sn(1-x)MnxTe_ x=0.15,undefined,,6.945e+26,,,,0.00048965,,,0.00014816,,,,
18650,10.1016/j.jmat.2015.09.001,26378,3(b),31991,Sn(1-x)MnxTe_ x=0.15,undefined,,6.95e+26,,,,0.00048953,,,0.00014809,,,,
18650,10.1016/j.jmat.2015.09.001,26378,3(b),31991,Sn(1-x)MnxTe_ x=0.15,undefined,,6.955e+26,,,,0.00048941,,,0.00014802,,,,
18650,10.1016/j.jmat.2015.09.001,26378,3(b),31991,Sn(1-x)MnxTe_ x=0.15,undefined,,6.96e+26,,,,0.00048929,,,0.00014795,,,,
18650,10.1016/j.jmat.2015.09.001,26378,3(b),31991,Sn(1-x)MnxTe_ x=0.15,undefined,,6.965e+26,,,,0.00048917,,,0.00014788,,,,
18650,10.1016/j.jmat.2015.09.001,26378,3(b),31991,Sn(1-x)MnxTe_ x=0.15,undefined,,6.97e+26,,,,0.00048905,,,0.00014782,,,,
18650,10.1016/j.jmat.2015.09.001,26378,3(b),31991,Sn(1-x)MnxTe_ x=0.15,undefined,,6.975e+26,,,,0.00048892,,,0.00014775,,,,
18650,10.1016/j.jmat.2015.09.001,26378,3(b),31991,Sn(1-x)MnxTe_ x=0.15,undefined,,6.98e+26,,,,0.0004888,,,0.00014768,,,,
18650,10.1016/j.jmat.2015.09.001,26378,3(b),31991,Sn(1-x)MnxTe_ x=0.15,undefined,,6.985e+26,,,,0.00048868,,,0.00014761,,,,
18650,10.1016/j.jmat.2015.09.001,26378,3(b),31991,Sn(1-x)MnxTe_ x=0.15,undefined,,6.99e+26,,,,0.00048856,,,0.00014755,,,,
18650,10.1016/j.jmat.2015.09.001,26378,3(b),31991,Sn(1-x)MnxTe_ x=0.15,undefined,,6.995e+26,,,,0.00048844,,,0.00014748,,,,
18650,10.1016/j.jmat.2015.09.001,26378,3(b),31991,Sn(1-x)MnxTe_ x=0.15,undefined,,7e+26,,,,0.00048832,,,0.00014741,,,,
18650,10.1016/j.jmat.2015.09.001,26378,3(b),31991,Sn(1-x)MnxTe_ x=0.15,undefined,,7.005e+26,,,,0.0004882,,,0.00014734,,,,
18650,10.1016/j.jmat.2015.09.001,26378,3(b),31991,Sn(1-x)MnxTe_ x=0.15,undefined,,7.01e+26,,,,0.00048808,,,0.00014727,,,,
18650,10.1016/j.jmat.2015.09.001,26378,3(b),31991,Sn(1-x)MnxTe_ x=0.15,undefined,,7.015e+26,,,,0.00048795,,,0.00014721,,,,
18650,10.1016/j.jmat.2015.09.001,26378,3(b),31991,Sn(1-x)MnxTe_ x=0.15,undefined,,7.02e+26,,,,0.00048783,,,0.00014714,,,,
18650,10.1016/j.jmat.2015.09.001,26378,3(b),31991,Sn(1-x)MnxTe_ x=0.15,undefined,,7.025e+26,,,,0.00048771,,,0.00014707,,,,
18650,10.1016/j.jmat.2015.09.001,26378,3(b),31991,Sn(1-x)MnxTe_ x=0.15,undefined,,7.03e+26,,,,0.00048759,,,0.000147,,,,
18650,10.1016/j.jmat.2015.09.001,26378,3(b),31991,Sn(1-x)MnxTe_ x=0.15,undefined,,7.035e+26,,,,0.00048747,,,0.00014694,,,,
18650,10.1016/j.jmat.2015.09.001,26378,3(b),31991,Sn(1-x)MnxTe_ x=0.15,undefined,,7.04e+26,,,,0.00048735,,,0.00014687,,,,
18650,10.1016/j.jmat.2015.09.001,26378,3(b),31991,Sn(1-x)MnxTe_ x=0.15,undefined,,7.045e+26,,,,0.00048723,,,0.0001468,,,,
18650,10.1016/j.jmat.2015.09.001,26378,3(b),31991,Sn(1-x)MnxTe_ x=0.15,undefined,,7.05e+26,,,,0.0004871,,,0.00014673,,,,
18650,10.1016/j.jmat.2015.09.001,26378,3(b),31991,Sn(1-x)MnxTe_ x=0.15,undefined,,7.055e+26,,,,0.00048698,,,0.00014666,,,,
18650,10.1016/j.jmat.2015.09.001,26378,3(b),31991,Sn(1-x)MnxTe_ x=0.15,undefined,,7.06e+26,,,,0.00048686,,,0.0001466,,,,
18650,10.1016/j.jmat.2015.09.001,26378,3(b),31991,Sn(1-x)MnxTe_ x=0.15,undefined,,7.065e+26,,,,0.00048674,,,0.00014653,,,,
18650,10.1016/j.jmat.2015.09.001,26378,3(b),31991,Sn(1-x)MnxTe_ x=0.15,undefined,,7.07e+26,,,,0.00048662,,,0.00014646,,,,
18650,10.1016/j.jmat.2015.09.001,26378,3(b),31991,Sn(1-x)MnxTe_ x=0.15,undefined,,7.075e+26,,,,0.0004865,,,0.00014639,,,,
18650,10.1016/j.jmat.2015.09.001,26378,3(b),31991,Sn(1-x)MnxTe_ x=0.15,undefined,,7.08e+26,,,,0.00048638,,,0.00014633,,,,
18650,10.1016/j.jmat.2015.09.001,26378,3(b),31991,Sn(1-x)MnxTe_ x=0.15,undefined,,7.085e+26,,,,0.00048626,,,0.00014626,,,,
18650,10.1016/j.jmat.2015.09.001,26378,3(b),31991,Sn(1-x)MnxTe_ x=0.15,undefined,,7.09e+26,,,,0.00048613,,,0.00014619,,,,
18650,10.1016/j.jmat.2015.09.001,26378,3(b),31991,Sn(1-x)MnxTe_ x=0.15,undefined,,7.095e+26,,,,0.00048601,,,0.00014612,,,,
18650,10.1016/j.jmat.2015.09.001,26378,3(b),31991,Sn(1-x)MnxTe_ x=0.15,undefined,,7.1e+26,,,,0.00048589,,,0.00014605,,,,
18650,10.1016/j.jmat.2015.09.001,26378,3(b),31991,Sn(1-x)MnxTe_ x=0.15,undefined,,7.105e+26,,,,0.00048577,,,0.00014599,,,,
18650,10.1016/j.jmat.2015.09.001,26378,3(b),31991,Sn(1-x)MnxTe_ x=0.15,undefined,,7.11e+26,,,,0.00048565,,,0.00014592,,,,
18650,10.1016/j.jmat.2015.09.001,26378,3(b),31991,Sn(1-x)MnxTe_ x=0.15,undefined,,7.115e+26,,,,0.00048553,,,0.00014585,,,,
18650,10.1016/j.jmat.2015.09.001,26378,3(b),31991,Sn(1-x)MnxTe_ x=0.15,undefined,,7.12e+26,,,,0.00048541,,,0.00014578,,,,
18650,10.1016/j.jmat.2015.09.001,26378,3(b),31991,Sn(1-x)MnxTe_ x=0.15,undefined,,7.125e+26,,,,0.00048529,,,0.00014572,,,,
18650,10.1016/j.jmat.2015.09.001,26378,3(b),31991,Sn(1-x)MnxTe_ x=0.15,undefined,,7.13e+26,,,,0.00048516,,,0.00014565,,,,
18650,10.1016/j.jmat.2015.09.001,26378,3(b),31991,Sn(1-x)MnxTe_ x=0.15,undefined,,7.135e+26,,,,0.00048504,,,0.00014558,,,,
18650,10.1016/j.jmat.2015.09.001,26378,3(b),31991,Sn(1-x)MnxTe_ x=0.15,undefined,,7.14e+26,,,,0.00048492,,,0.00014551,,,,
18650,10.1016/j.jmat.2015.09.001,26378,3(b),31991,Sn(1-x)MnxTe_ x=0.15,undefined,,7.145e+26,,,,0.0004848,,,0.00014545,,,,
18650,10.1016/j.jmat.2015.09.001,26378,3(b),31991,Sn(1-x)MnxTe_ x=0.15,undefined,,7.15e+26,,,,0.00048468,,,0.00014538,,,,
18650,10.1016/j.jmat.2015.09.001,26378,3(b),31991,Sn(1-x)MnxTe_ x=0.15,undefined,,7.155e+26,,,,0.00048456,,,0.00014531,,,,
18650,10.1016/j.jmat.2015.09.001,26378,3(b),31991,Sn(1-x)MnxTe_ x=0.15,undefined,,7.16e+26,,,,0.00048444,,,0.00014524,,,,
18650,10.1016/j.jmat.2015.09.001,26378,3(b),31991,Sn(1-x)MnxTe_ x=0.15,undefined,,7.165e+26,,,,0.00048431,,,0.00014517,,,,
18650,10.1016/j.jmat.2015.09.001,26378,3(b),31991,Sn(1-x)MnxTe_ x=0.15,undefined,,7.17e+26,,,,0.00048419,,,0.00014511,,,,
18650,10.1016/j.jmat.2015.09.001,26378,3(b),31991,Sn(1-x)MnxTe_ x=0.15,undefined,,7.175e+26,,,,0.00048407,,,0.00014504,,,,
18650,10.1016/j.jmat.2015.09.001,26378,3(b),31991,Sn(1-x)MnxTe_ x=0.15,undefined,,7.18e+26,,,,0.00048395,,,0.00014497,,,,
18650,10.1016/j.jmat.2015.09.001,26378,3(b),31991,Sn(1-x)MnxTe_ x=0.15,undefined,,7.185e+26,,,,0.00048383,,,0.0001449,,,,
18650,10.1016/j.jmat.2015.09.001,26378,3(b),31991,Sn(1-x)MnxTe_ x=0.15,undefined,,7.19e+26,,,,0.00048371,,,0.00014484,,,,
18650,10.1016/j.jmat.2015.09.001,26378,3(b),31991,Sn(1-x)MnxTe_ x=0.15,undefined,,7.195e+26,,,,0.00048359,,,0.00014477,,,,
18650,10.1016/j.jmat.2015.09.001,26378,3(b),31991,Sn(1-x)MnxTe_ x=0.15,undefined,,7.2e+26,,,,0.00048347,,,0.0001447,,,,
18650,10.1016/j.jmat.2015.09.001,26378,3(b),31991,Sn(1-x)MnxTe_ x=0.15,undefined,,7.205e+26,,,,0.00048334,,,0.00014463,,,,
18650,10.1016/j.jmat.2015.09.001,26378,3(b),31991,Sn(1-x)MnxTe_ x=0.15,undefined,,7.21e+26,,,,0.00048322,,,0.00014456,,,,
18650,10.1016/j.jmat.2015.09.001,26378,3(b),31991,Sn(1-x)MnxTe_ x=0.15,undefined,,7.215e+26,,,,0.0004831,,,0.0001445,,,,
18650,10.1016/j.jmat.2015.09.001,26378,3(b),31991,Sn(1-x)MnxTe_ x=0.15,undefined,,7.22e+26,,,,0.00048298,,,0.00014443,,,,
18650,10.1016/j.jmat.2015.09.001,26378,3(b),31991,Sn(1-x)MnxTe_ x=0.15,undefined,,7.225e+26,,,,0.00048286,,,0.00014436,,,,
18650,10.1016/j.jmat.2015.09.001,26378,3(b),31991,Sn(1-x)MnxTe_ x=0.15,undefined,,7.23e+26,,,,0.00048274,,,0.00014429,,,,
18650,10.1016/j.jmat.2015.09.001,26378,3(b),31991,Sn(1-x)MnxTe_ x=0.15,undefined,,7.235e+26,,,,0.00048262,,,0.00014423,,,,
18650,10.1016/j.jmat.2015.09.001,26378,3(b),31991,Sn(1-x)MnxTe_ x=0.15,undefined,,7.24e+26,,,,0.00048249,,,0.00014416,,,,
18650,10.1016/j.jmat.2015.09.001,26378,3(b),31991,Sn(1-x)MnxTe_ x=0.15,undefined,,7.245e+26,,,,0.00048237,,,0.00014409,,,,
18650,10.1016/j.jmat.2015.09.001,26378,3(b),31991,Sn(1-x)MnxTe_ x=0.15,undefined,,7.25e+26,,,,0.00048225,,,0.00014402,,,,
18650,10.1016/j.jmat.2015.09.001,26378,3(b),31991,Sn(1-x)MnxTe_ x=0.15,undefined,,7.255e+26,,,,0.00048213,,,0.00014395,,,,
18650,10.1016/j.jmat.2015.09.001,26378,3(b),31991,Sn(1-x)MnxTe_ x=0.15,undefined,,7.26e+26,,,,0.00048201,,,0.00014389,,,,
18650,10.1016/j.jmat.2015.09.001,26378,3(b),31991,Sn(1-x)MnxTe_ x=0.15,undefined,,7.265e+26,,,,0.00048189,,,0.00014382,,,,
18650,10.1016/j.jmat.2015.09.001,26380,4(d),31991,Sn(1-x)MnxTe_ x=0.15,undefined,,7.27e+26,,,,0.00048177,,,,,,,
18650,10.1016/j.jmat.2015.09.001,26380,4(d),31991,Sn(1-x)MnxTe_ x=0.15,undefined,,7.275e+26,,,,0.00048165,,,,,,,
18650,10.1016/j.jmat.2015.09.001,26380,4(d),31991,Sn(1-x)MnxTe_ x=0.15,undefined,,7.28e+26,,,,0.00048152,,,,,,,
18650,10.1016/j.jmat.2015.09.001,26380,4(d),31991,Sn(1-x)MnxTe_ x=0.15,undefined,,7.285e+26,,,,0.0004814,,,,,,,
18650,10.1016/j.jmat.2015.09.001,26380,4(d),31991,Sn(1-x)MnxTe_ x=0.15,undefined,,7.29e+26,,,,0.00048128,,,,,,,
18650,10.1016/j.jmat.2015.09.001,26380,4(d),31991,Sn(1-x)MnxTe_ x=0.15,undefined,,7.295e+26,,,,0.00048116,,,,,,,
18650,10.1016/j.jmat.2015.09.001,26380,4(d),31991,Sn(1-x)MnxTe_ x=0.15,undefined,,7.3e+26,,,,0.00048104,,,,,,,
18650,10.1016/j.jmat.2015.09.001,25679,Figure 5A,31999,Sn(1-x)MnxTe_ x=0.12,undefined,350,,162490,0.0000061543,,,1.2522,0.00065656,0.000063566,2.3551,0.048665,,0.0002787822
18650,10.1016/j.jmat.2015.09.001,25679,Figure 5A,31999,Sn(1-x)MnxTe_ x=0.12,undefined,400,,129050,0.000007749,,,1.2011,0.00074429,0.000075944,2.2558,0.12671,,0.000329945
18650,10.1016/j.jmat.2015.09.001,25679,Figure 5A,31999,Sn(1-x)MnxTe_ x=0.12,undefined,450,,107020,0.0000093437,,,1.1499,0.00083484,0.000088322,2.1565,0.20476,,0.0003871273
18650,10.1016/j.jmat.2015.09.001,25679,Figure 5A,31999,Sn(1-x)MnxTe_ x=0.12,undefined,500,,91424,0.000010938,,,1.0988,0.00092708,0.0001007,2.0572,0.28281,,0.0004506514
18650,10.1016/j.jmat.2015.09.001,25679,Figure 5A,31999,Sn(1-x)MnxTe_ x=0.12,undefined,550,,79789,0.000012533,,,1.0477,0.0010203,0.00011308,1.9579,0.36086,,0.0005211196
18650,10.1016/j.jmat.2015.09.001,25679,Figure 5A,31999,Sn(1-x)MnxTe_ x=0.12,undefined,600,,70781,0.000014128,,,0.99657,0.0011141,0.00012546,1.8586,0.43891,,0.0005994297
18650,10.1016/j.jmat.2015.09.001,25679,Figure 5A,31999,Sn(1-x)MnxTe_ x=0.12,undefined,650,,63601,0.000015723,,,0.94545,0.0012082,0.00013783,1.7593,0.51696,,0.0006867504
18650,10.1016/j.jmat.2015.09.001,25679,Figure 5A,31999,Sn(1-x)MnxTe_ x=0.12,undefined,700,,57747,0.000017317,,,0.89433,0.0013029,0.00015021,1.6599,0.59501,,0.0007849268
18650,10.1016/j.jmat.2015.09.001,25679,Figure 5A,31999,Sn(1-x)MnxTe_ x=0.12,undefined,750,,52876,0.000018912,,,0.8432,0.0013978,0.00016259,1.5606,0.67306,,0.0008956811
18650,10.1016/j.jmat.2015.09.001,25679,Figure 5A,31999,Sn(1-x)MnxTe_ x=0.12,undefined,800,,48764,0.000020507,,,0.79208,0.0014929,0.00017497,1.4613,0.75111,,0.0010216246
18650,10.1016/j.jmat.2015.09.001,25679,Figure 5A,31999,Sn(1-x)MnxTe_ x=0.12,undefined,850,,45245,0.000022102,,,0.74096,0.0015881,0.00018735,1.362,0.9911,,0.0011660059
18650,10.1016/j.jmat.2015.09.001,25682,Figure 6B,31999,Sn(1-x)MnxTe_ x=0.12,undefined,900,,,,,,,,,1.2627,,,
18650,10.1016/j.jmat.2015.09.001,25683,Figure 7A,31999,Sn(1-x)MnxTe_ x=0.12,undefined,300,,,,,,,,,,-0.029385,,
18650,10.1016/j.jmat.2015.09.001,25679,Figure 5A,32000,Sn(1-x)MnxTe_ x=0.15 (nH = 4.6e20 cm^-3),undefined,350,,39502,0.000025315,,,1.4295,0.00078067,0.00014058,2.2852,0.059549,,0.00034162
18650,10.1016/j.jmat.2015.09.001,25679,Figure 5A,32000,Sn(1-x)MnxTe_ x=0.15 (nH = 4.6e20 cm^-3),undefined,400,,36156,0.000027658,,,1.3655,0.00083568,0.00015203,2.1929,0.14711,,0.0003810844
18650,10.1016/j.jmat.2015.09.001,25679,Figure 5A,32000,Sn(1-x)MnxTe_ x=0.15 (nH = 4.6e20 cm^-3),undefined,450,,33332,0.000030001,,,1.3014,0.00089082,0.00016348,2.1005,0.23468,,0.000424099
18650,10.1016/j.jmat.2015.09.001,25679,Figure 5A,32000,Sn(1-x)MnxTe_ x=0.15 (nH = 4.6e20 cm^-3),undefined,500,,30918,0.000032344,,,1.2374,0.00094621,0.00017494,2.0082,0.32224,,0.0004711732
18650,10.1016/j.jmat.2015.09.001,25679,Figure 5A,32000,Sn(1-x)MnxTe_ x=0.15 (nH = 4.6e20 cm^-3),undefined,550,,28829,0.000034687,,,1.1733,0.0010016,0.00018639,1.9159,0.4098,,0.000522783
18650,10.1016/j.jmat.2015.09.001,25679,Figure 5A,32000,Sn(1-x)MnxTe_ x=0.15 (nH = 4.6e20 cm^-3),undefined,600,,27005,0.00003703,,,1.1093,0.001057,0.00019784,1.8235,0.49737,,0.0005796545
18650,10.1016/j.jmat.2015.09.001,25679,Figure 5A,32000,Sn(1-x)MnxTe_ x=0.15 (nH = 4.6e20 cm^-3),undefined,650,,25397,0.000039374,,,1.0452,0.0011124,0.00020929,1.7312,0.58493,,0.0006425601
18650,10.1016/j.jmat.2015.09.001,25679,Figure 5A,32000,Sn(1-x)MnxTe_ x=0.15 (nH = 4.6e20 cm^-3),undefined,700,,23971,0.000041717,,,0.98118,0.001168,0.00022074,1.6389,0.6725,,0.0007126731
18650,10.1016/j.jmat.2015.09.001,25679,Figure 5A,32000,Sn(1-x)MnxTe_ x=0.15 (nH = 4.6e20 cm^-3),undefined,750,,22696,0.00004406,,,0.91713,0.0012236,0.00023219,1.5465,0.76006,,0.0007912059
18650,10.1016/j.jmat.2015.09.001,25679,Figure 5A,32000,Sn(1-x)MnxTe_ x=0.15 (nH = 4.6e20 cm^-3),undefined,800,,21550,0.000046403,,,0.85309,0.0012792,0.00024364,1.4542,0.84762,,0.0008796589
18650,10.1016/j.jmat.2015.09.001,25679,Figure 5A,32000,Sn(1-x)MnxTe_ x=0.15 (nH = 4.6e20 cm^-3),undefined,850,,20515,0.000048746,,,0.78904,0.001335,0.0002551,1.3619,0.93519,,0.0009802482
18650,10.1016/j.jmat.2015.09.001,25681,Figure 6A,32000,Sn(1-x)MnxTe_ x=0.15 (nH = 4.6e20 cm^-3),undefined,300,,,,,,1.4936,,,,-0.028015,,
18650,10.1016/j.jmat.2015.09.001,25682,Figure 6B,32000,Sn(1-x)MnxTe_ x=0.15 (nH = 4.6e20 cm^-3),undefined,900,,,,,,,,,1.2696,,,
18650,10.1016/j.jmat.2015.09.001,25679,Figure 5A,32001,Sn(1-x)MnxTe_ x=0.15 (nH = 5.1e19 cm^-3),undefined,350,,36411,0.000027464,,,1.4365,0.00071406,0.00014004,1.8074,0.051096,,0.0003950758
18650,10.1016/j.jmat.2015.09.001,25679,Figure 5A,32001,Sn(1-x)MnxTe_ x=0.15 (nH = 5.1e19 cm^-3),undefined,400,,33676,0.000029695,,,1.3757,0.00078956,0.00015312,1.7394,0.14084,,0.0004539266
18650,10.1016/j.jmat.2015.09.001,25679,Figure 5A,32001,Sn(1-x)MnxTe_ x=0.15 (nH = 5.1e19 cm^-3),undefined,450,,31323,0.000031925,,,1.315,0.00086522,0.0001662,1.6714,0.23058,,0.0005176618
18650,10.1016/j.jmat.2015.09.001,25679,Figure 5A,32001,Sn(1-x)MnxTe_ x=0.15 (nH = 5.1e19 cm^-3),undefined,500,,29277,0.000034156,,,1.2542,0.000941,0.00017928,1.6034,0.32032,,0.0005868779
18650,10.1016/j.jmat.2015.09.001,25679,Figure 5A,32001,Sn(1-x)MnxTe_ x=0.15 (nH = 5.1e19 cm^-3),undefined,550,,27482,0.000036387,,,1.1935,0.0010169,0.00019236,1.5354,0.41006,,0.000662303
18650,10.1016/j.jmat.2015.09.001,25679,Figure 5A,32001,Sn(1-x)MnxTe_ x=0.15 (nH = 5.1e19 cm^-3),undefined,600,,25895,0.000038617,,,1.1327,0.001093,0.00020545,1.4674,0.49981,,0.0007448548
18650,10.1016/j.jmat.2015.09.001,25679,Figure 5A,32001,Sn(1-x)MnxTe_ x=0.15 (nH = 5.1e19 cm^-3),undefined,650,,24481,0.000040848,,,1.072,0.0011691,0.00021853,1.3994,0.58955,,0.0008354295
18650,10.1016/j.jmat.2015.09.001,25679,Figure 5A,32001,Sn(1-x)MnxTe_ x=0.15 (nH = 5.1e19 cm^-3),undefined,700,,23213,0.000043079,,,1.0112,0.0012452,0.00023161,1.3314,0.67929,,0.0009352561
18650,10.1016/j.jmat.2015.09.001,25679,Figure 5A,32001,Sn(1-x)MnxTe_ x=0.15 (nH = 5.1e19 cm^-3),undefined,750,,22070,0.00004531,,,0.95046,0.0013214,0.00024469,1.2634,0.76903,,0.0010459079
18650,10.1016/j.jmat.2015.09.001,25679,Figure 5A,32001,Sn(1-x)MnxTe_ x=0.15 (nH = 5.1e19 cm^-3),undefined,800,,21035,0.00004754,,,0.88971,0.0013977,0.00025777,1.1954,0.85878,,0.0011692321
18650,10.1016/j.jmat.2015.09.001,25679,Figure 5A,32001,Sn(1-x)MnxTe_ x=0.15 (nH = 5.1e19 cm^-3),undefined,850,,20092,0.000049771,,,0.82896,0.0014739,0.00027085,1.1274,0.94852,,0.0013073443
18650,10.1016/j.jmat.2015.09.001,25680,Figure 5B,32001,Sn(1-x)MnxTe_ x=0.15 (nH = 5.1e19 cm^-3),undefined,300,,,,,,,,0.00012696,,,,
18650,10.1016/j.jmat.2015.09.001,25682,Figure 6B,32001,Sn(1-x)MnxTe_ x=0.15 (nH = 5.1e19 cm^-3),undefined,900,,,,,,,,,1.0594,,,
18650,10.1016/j.jmat.2015.09.001,25679,Figure 5A,32002,Sn(1-x)MnxTe_ x=0.15 (nH = 3.6e19 cm^-3),undefined,350,,134060,0.0000074593,,,1.5279,0.00078529,0.000076536,1.734,0.067061,,0.0004528777
18650,10.1016/j.jmat.2015.09.001,25679,Figure 5A,32002,Sn(1-x)MnxTe_ x=0.15 (nH = 3.6e19 cm^-3),undefined,400,,109870,0.0000091016,,,1.46,0.00087453,0.000089217,1.6748,0.16871,,0.0005221698
18650,10.1016/j.jmat.2015.09.001,25679,Figure 5A,32002,Sn(1-x)MnxTe_ x=0.15 (nH = 3.6e19 cm^-3),undefined,450,,93075,0.000010744,,,1.3922,0.00096645,0.0001019,1.6156,0.27036,,0.0005981988
18650,10.1016/j.jmat.2015.09.001,25679,Figure 5A,32002,Sn(1-x)MnxTe_ x=0.15 (nH = 3.6e19 cm^-3),undefined,500,,80736,0.000012386,,,1.3243,0.0010599,0.00011458,1.5564,0.372,,0.0006809946
18650,10.1016/j.jmat.2015.09.001,25679,Figure 5A,32002,Sn(1-x)MnxTe_ x=0.15 (nH = 3.6e19 cm^-3),undefined,550,,71286,0.000014028,,,1.2565,0.0011545,0.00012726,1.4973,0.47365,,0.0007710546
18650,10.1016/j.jmat.2015.09.001,25679,Figure 5A,32002,Sn(1-x)MnxTe_ x=0.15 (nH = 3.6e19 cm^-3),undefined,600,,63812,0.000015671,,,1.1886,0.0012496,0.00013994,1.4381,0.5753,,0.0008689243
18650,10.1016/j.jmat.2015.09.001,25679,Figure 5A,32002,Sn(1-x)MnxTe_ x=0.15 (nH = 3.6e19 cm^-3),undefined,650,,57760,0.000017313,,,1.1208,0.0013454,0.00015262,1.3789,0.67695,,0.0009757053
18650,10.1016/j.jmat.2015.09.001,25679,Figure 5A,32002,Sn(1-x)MnxTe_ x=0.15 (nH = 3.6e19 cm^-3),undefined,700,,52757,0.000018955,,,1.0529,0.0014415,0.0001653,1.3197,0.77859,,0.0010922937
18650,10.1016/j.jmat.2015.09.001,25679,Figure 5A,32002,Sn(1-x)MnxTe_ x=0.15 (nH = 3.6e19 cm^-3),undefined,750,,48548,0.000020598,,,0.9851,0.0015378,0.00017798,1.2605,0.88024,,0.0012199921
18650,10.1016/j.jmat.2015.09.001,25679,Figure 5A,32002,Sn(1-x)MnxTe_ x=0.15 (nH = 3.6e19 cm^-3),undefined,800,,44964,0.00002224,,,0.91726,0.0016345,0.00019066,1.2013,0.98189,,0.0013606093
18650,10.1016/j.jmat.2015.09.001,25679,Figure 5A,32002,Sn(1-x)MnxTe_ x=0.15 (nH = 3.6e19 cm^-3),undefined,850,,41873,0.000023882,,,0.84941,0.0017313,0.00020334,1.1421,1.0835,,0.0015158918
18650,10.1016/j.jmat.2015.09.001,25682,Figure 6B,32002,Sn(1-x)MnxTe_ x=0.15 (nH = 3.6e19 cm^-3),undefined,900,,,,,,,,,1.0829,,,
18650,10.1016/j.jmat.2015.09.001,25683,Figure 7A,32002,Sn(1-x)MnxTe_ x=0.15 (nH = 3.6e19 cm^-3),undefined,300,,,,,,,,,,-0.034587,,
27936,10.1021/acsami.7b08770,25512,4(a),31764,Sn1−xNaxS_ x=0,undefined,350,8.159e+23,191.26,0.0052286,,,0.81473,0.000038115,0.00044641,0.85354,0.012373,,0.0000446552