sid,DOI,figureid,fignum,sampleid,samplename,composition,Temperature,Carrier concentration,Electrical conductivity,Electrical resistivity,Hall coefficient,Hall movility,Lattice thermal conductivity,Power factor,Seebeck coefficient,Thermal conductivity,ZT,total thermal conductivity,Figure of merit Z
5919,10.1002/aelm.201600019,26381,5(a),33044,(SnTe)1−x(Cu2Te)x,undefined,,2.735e+26,,,,0.014608,,,0.000012972,,,,
5919,10.1002/aelm.201600019,26381,5(a),33044,(SnTe)1−x(Cu2Te)x,undefined,,2.74e+26,,,,0.01453,,,0.00001298,,,,
5919,10.1002/aelm.201600019,26381,5(a),33044,(SnTe)1−x(Cu2Te)x,undefined,,2.745e+26,,,,0.014452,,,0.000012988,,,,
5919,10.1002/aelm.201600019,26381,5(a),33044,(SnTe)1−x(Cu2Te)x,undefined,,2.75e+26,,,,0.014374,,,0.000012996,,,,
5919,10.1002/aelm.201600019,26381,5(a),33044,(SnTe)1−x(Cu2Te)x,undefined,,2.755e+26,,,,0.014297,,,0.000013004,,,,
5919,10.1002/aelm.201600019,26381,5(a),33044,(SnTe)1−x(Cu2Te)x,undefined,,2.76e+26,,,,0.014219,,,0.000013012,,,,
5919,10.1002/aelm.201600019,26381,5(a),33044,(SnTe)1−x(Cu2Te)x,undefined,,2.765e+26,,,,0.014141,,,0.000013021,,,,
5919,10.1002/aelm.201600019,26381,5(a),33044,(SnTe)1−x(Cu2Te)x,undefined,,2.77e+26,,,,0.014063,,,0.000013029,,,,
5919,10.1002/aelm.201600019,26381,5(a),33044,(SnTe)1−x(Cu2Te)x,undefined,,2.775e+26,,,,0.013985,,,0.000013037,,,,
5919,10.1002/aelm.201600019,26381,5(a),33044,(SnTe)1−x(Cu2Te)x,undefined,,2.78e+26,,,,0.013907,,,0.000013045,,,,
5919,10.1002/aelm.201600019,26381,5(a),33044,(SnTe)1−x(Cu2Te)x,undefined,,2.785e+26,,,,0.013829,,,0.000013053,,,,
5919,10.1002/aelm.201600019,26381,5(a),33044,(SnTe)1−x(Cu2Te)x,undefined,,2.79e+26,,,,0.013751,,,0.000013061,,,,
5919,10.1002/aelm.201600019,26381,5(a),33044,(SnTe)1−x(Cu2Te)x,undefined,,2.795e+26,,,,0.013673,,,0.00001307,,,,
5919,10.1002/aelm.201600019,26381,5(a),33044,(SnTe)1−x(Cu2Te)x,undefined,,2.8e+26,,,,0.013595,,,0.000013078,,,,
5919,10.1002/aelm.201600019,26381,5(a),33044,(SnTe)1−x(Cu2Te)x,undefined,,2.805e+26,,,,0.013517,,,0.000013086,,,,
5919,10.1002/aelm.201600019,26381,5(a),33044,(SnTe)1−x(Cu2Te)x,undefined,,2.81e+26,,,,0.013439,,,0.000013094,,,,
5919,10.1002/aelm.201600019,26381,5(a),33044,(SnTe)1−x(Cu2Te)x,undefined,,2.815e+26,,,,0.013361,,,0.000013102,,,,
5919,10.1002/aelm.201600019,26381,5(a),33044,(SnTe)1−x(Cu2Te)x,undefined,,2.82e+26,,,,0.013283,,,0.00001311,,,,
5919,10.1002/aelm.201600019,26381,5(a),33044,(SnTe)1−x(Cu2Te)x,undefined,,2.825e+26,,,,0.013205,,,0.000013118,,,,
5919,10.1002/aelm.201600019,26381,5(a),33044,(SnTe)1−x(Cu2Te)x,undefined,,2.83e+26,,,,0.013128,,,0.000013127,,,,
5919,10.1002/aelm.201600019,26381,5(a),33044,(SnTe)1−x(Cu2Te)x,undefined,,2.835e+26,,,,0.01305,,,0.000013135,,,,
5919,10.1002/aelm.201600019,26381,5(a),33044,(SnTe)1−x(Cu2Te)x,undefined,,2.84e+26,,,,0.012972,,,0.000013143,,,,
5919,10.1002/aelm.201600019,26381,5(a),33044,(SnTe)1−x(Cu2Te)x,undefined,,2.845e+26,,,,0.012894,,,0.000013151,,,,
5919,10.1002/aelm.201600019,26381,5(a),33044,(SnTe)1−x(Cu2Te)x,undefined,,2.85e+26,,,,0.012816,,,0.000013159,,,,
5919,10.1002/aelm.201600019,26381,5(a),33044,(SnTe)1−x(Cu2Te)x,undefined,,2.855e+26,,,,0.012738,,,0.000013167,,,,
5919,10.1002/aelm.201600019,26381,5(a),33044,(SnTe)1−x(Cu2Te)x,undefined,,2.86e+26,,,,0.01266,,,0.000013176,,,,
5919,10.1002/aelm.201600019,26381,5(a),33044,(SnTe)1−x(Cu2Te)x,undefined,,2.865e+26,,,,0.012582,,,0.000013184,,,,
5919,10.1002/aelm.201600019,26381,5(a),33044,(SnTe)1−x(Cu2Te)x,undefined,,2.87e+26,,,,0.012504,,,0.000013192,,,,
5919,10.1002/aelm.201600019,26381,5(a),33044,(SnTe)1−x(Cu2Te)x,undefined,,2.875e+26,,,,0.012426,,,0.0000132,,,,
5919,10.1002/aelm.201600019,26381,5(a),33044,(SnTe)1−x(Cu2Te)x,undefined,,2.88e+26,,,,0.012348,,,0.000013208,,,,
5919,10.1002/aelm.201600019,26381,5(a),33044,(SnTe)1−x(Cu2Te)x,undefined,,2.885e+26,,,,0.01227,,,0.000013216,,,,
5919,10.1002/aelm.201600019,26381,5(a),33044,(SnTe)1−x(Cu2Te)x,undefined,,2.89e+26,,,,0.012192,,,0.000013224,,,,
5919,10.1002/aelm.201600019,26381,5(a),33044,(SnTe)1−x(Cu2Te)x,undefined,,2.895e+26,,,,0.012114,,,0.000013233,,,,
5919,10.1002/aelm.201600019,26381,5(a),33044,(SnTe)1−x(Cu2Te)x,undefined,,2.9e+26,,,,0.012036,,,0.000013241,,,,
5919,10.1002/aelm.201600019,26381,5(a),33044,(SnTe)1−x(Cu2Te)x,undefined,,2.905e+26,,,,0.011958,,,0.000013249,,,,
5919,10.1002/aelm.201600019,26381,5(a),33044,(SnTe)1−x(Cu2Te)x,undefined,,2.91e+26,,,,0.011881,,,0.000013257,,,,
5919,10.1002/aelm.201600019,26381,5(a),33044,(SnTe)1−x(Cu2Te)x,undefined,,2.915e+26,,,,0.011803,,,0.000013265,,,,
5919,10.1002/aelm.201600019,26381,5(a),33044,(SnTe)1−x(Cu2Te)x,undefined,,2.92e+26,,,,0.011725,,,0.000013273,,,,
5919,10.1002/aelm.201600019,26381,5(a),33044,(SnTe)1−x(Cu2Te)x,undefined,,2.925e+26,,,,0.011647,,,0.000013282,,,,
5919,10.1002/aelm.201600019,26381,5(a),33044,(SnTe)1−x(Cu2Te)x,undefined,,2.93e+26,,,,0.011569,,,0.00001329,,,,
5919,10.1002/aelm.201600019,26381,5(a),33044,(SnTe)1−x(Cu2Te)x,undefined,,2.935e+26,,,,0.011491,,,0.000013298,,,,
5919,10.1002/aelm.201600019,26381,5(a),33044,(SnTe)1−x(Cu2Te)x,undefined,,2.94e+26,,,,0.011413,,,0.000013306,,,,
5919,10.1002/aelm.201600019,26381,5(a),33044,(SnTe)1−x(Cu2Te)x,undefined,,2.945e+26,,,,0.011335,,,0.000013314,,,,
5919,10.1002/aelm.201600019,26381,5(a),33044,(SnTe)1−x(Cu2Te)x,undefined,,2.95e+26,,,,0.011257,,,0.000013322,,,,
5919,10.1002/aelm.201600019,26381,5(a),33044,(SnTe)1−x(Cu2Te)x,undefined,,2.955e+26,,,,0.011179,,,0.000013331,,,,
5919,10.1002/aelm.201600019,26381,5(a),33044,(SnTe)1−x(Cu2Te)x,undefined,,2.96e+26,,,,0.011101,,,0.000013339,,,,
5919,10.1002/aelm.201600019,26381,5(a),33044,(SnTe)1−x(Cu2Te)x,undefined,,2.965e+26,,,,0.011023,,,0.000013347,,,,
5919,10.1002/aelm.201600019,26381,5(a),33044,(SnTe)1−x(Cu2Te)x,undefined,,2.97e+26,,,,0.010945,,,0.000013355,,,,
5919,10.1002/aelm.201600019,26381,5(a),33044,(SnTe)1−x(Cu2Te)x,undefined,,2.975e+26,,,,0.010867,,,0.000013363,,,,
5919,10.1002/aelm.201600019,26381,5(a),33044,(SnTe)1−x(Cu2Te)x,undefined,,2.98e+26,,,,0.010789,,,0.000013371,,,,
5919,10.1002/aelm.201600019,26381,5(a),33044,(SnTe)1−x(Cu2Te)x,undefined,,2.985e+26,,,,0.010711,,,0.000013379,,,,
5919,10.1002/aelm.201600019,26381,5(a),33044,(SnTe)1−x(Cu2Te)x,undefined,,2.99e+26,,,,0.010634,,,0.000013388,,,,
5919,10.1002/aelm.201600019,26381,5(a),33044,(SnTe)1−x(Cu2Te)x,undefined,,2.995e+26,,,,0.010556,,,0.000013396,,,,
5919,10.1002/aelm.201600019,26381,5(a),33044,(SnTe)1−x(Cu2Te)x,undefined,,3e+26,,,,0.010478,,,0.000013404,,,,
5919,10.1002/aelm.201600019,26381,5(a),33044,(SnTe)1−x(Cu2Te)x,undefined,,3.005e+26,,,,0.0104,,,0.000013412,,,,
5919,10.1002/aelm.201600019,26381,5(a),33044,(SnTe)1−x(Cu2Te)x,undefined,,3.01e+26,,,,0.010322,,,0.00001342,,,,
5919,10.1002/aelm.201600019,26381,5(a),33044,(SnTe)1−x(Cu2Te)x,undefined,,3.015e+26,,,,0.010244,,,0.000013428,,,,
5919,10.1002/aelm.201600019,26381,5(a),33044,(SnTe)1−x(Cu2Te)x,undefined,,3.02e+26,,,,0.010166,,,0.000013437,,,,
5919,10.1002/aelm.201600019,26381,5(a),33044,(SnTe)1−x(Cu2Te)x,undefined,,3.025e+26,,,,0.010088,,,0.000013445,,,,
5919,10.1002/aelm.201600019,26381,5(a),33044,(SnTe)1−x(Cu2Te)x,undefined,,3.03e+26,,,,0.01001,,,0.000013453,,,,
5919,10.1002/aelm.201600019,26381,5(a),33044,(SnTe)1−x(Cu2Te)x,undefined,,3.035e+26,,,,0.0099321,,,0.000013461,,,,
5919,10.1002/aelm.201600019,26381,5(a),33044,(SnTe)1−x(Cu2Te)x,undefined,,3.04e+26,,,,0.0098542,,,0.000013469,,,,
5919,10.1002/aelm.201600019,26381,5(a),33044,(SnTe)1−x(Cu2Te)x,undefined,,3.045e+26,,,,0.0097762,,,0.000013477,,,,
5919,10.1002/aelm.201600019,26381,5(a),33044,(SnTe)1−x(Cu2Te)x,undefined,,3.05e+26,,,,0.0096983,,,0.000013485,,,,
5919,10.1002/aelm.201600019,26381,5(a),33044,(SnTe)1−x(Cu2Te)x,undefined,,3.055e+26,,,,0.0096204,,,0.000013494,,,,
5919,10.1002/aelm.201600019,26381,5(a),33044,(SnTe)1−x(Cu2Te)x,undefined,,3.06e+26,,,,0.0095424,,,0.000013502,,,,
5919,10.1002/aelm.201600019,26381,5(a),33044,(SnTe)1−x(Cu2Te)x,undefined,,3.065e+26,,,,0.0094645,,,0.00001351,,,,
5919,10.1002/aelm.201600019,26381,5(a),33044,(SnTe)1−x(Cu2Te)x,undefined,,3.07e+26,,,,0.0093866,,,0.000013518,,,,
5919,10.1002/aelm.201600019,26381,5(a),33044,(SnTe)1−x(Cu2Te)x,undefined,,3.075e+26,,,,0.0093086,,,0.000013526,,,,
5919,10.1002/aelm.201600019,26381,5(a),33044,(SnTe)1−x(Cu2Te)x,undefined,,3.08e+26,,,,,,,0.000013534,,,,
5919,10.1002/aelm.201600019,26381,5(a),33044,(SnTe)1−x(Cu2Te)x,undefined,,3.085e+26,,,,,,,0.000013543,,,,
5919,10.1002/aelm.201600019,26381,5(a),33044,(SnTe)1−x(Cu2Te)x,undefined,,3.09e+26,,,,,,,0.000013551,,,,
5919,10.1002/aelm.201600019,26381,5(a),33044,(SnTe)1−x(Cu2Te)x,undefined,,3.095e+26,,,,,,,0.000013559,,,,
5919,10.1002/aelm.201600019,26381,5(a),33044,(SnTe)1−x(Cu2Te)x,undefined,,3.1e+26,,,,,,,0.000013567,,,,
5919,10.1002/aelm.201600019,26381,5(a),33044,(SnTe)1−x(Cu2Te)x,undefined,,3.105e+26,,,,,,,0.000013575,,,,
5919,10.1002/aelm.201600019,26381,5(a),33044,(SnTe)1−x(Cu2Te)x,undefined,,3.11e+26,,,,,,,0.000013583,,,,
5919,10.1002/aelm.201600019,26381,5(a),33044,(SnTe)1−x(Cu2Te)x,undefined,,3.115e+26,,,,,,,0.000013591,,,,
5919,10.1002/aelm.201600019,26381,5(a),33044,(SnTe)1−x(Cu2Te)x,undefined,,3.12e+26,,,,,,,0.0000136,,,,
5919,10.1002/aelm.201600019,26381,5(a),33044,(SnTe)1−x(Cu2Te)x,undefined,,3.125e+26,,,,,,,0.000013608,,,,
5919,10.1002/aelm.201600019,26381,5(a),33044,(SnTe)1−x(Cu2Te)x,undefined,,3.13e+26,,,,,,,0.000013616,,,,
5919,10.1002/aelm.201600019,26381,5(a),33044,(SnTe)1−x(Cu2Te)x,undefined,,3.135e+26,,,,,,,0.000013624,,,,
5919,10.1002/aelm.201600019,26382,5(b),33044,(SnTe)1−x(Cu2Te)x,undefined,,4.25e+25,,,,0.019367,,,0.000091035,,,,
5919,10.1002/aelm.201600019,26382,5(b),33044,(SnTe)1−x(Cu2Te)x,undefined,,4.3e+25,,,,0.019289,,,0.000090968,,,,
5919,10.1002/aelm.201600019,26382,5(b),33044,(SnTe)1−x(Cu2Te)x,undefined,,4.35e+25,,,,0.019211,,,0.000090902,,,,
5919,10.1002/aelm.201600019,26382,5(b),33044,(SnTe)1−x(Cu2Te)x,undefined,,4.4e+25,,,,0.019133,,,0.000090835,,,,
5919,10.1002/aelm.201600019,26382,5(b),33044,(SnTe)1−x(Cu2Te)x,undefined,,4.45e+25,,,,0.019055,,,0.000090769,,,,
5919,10.1002/aelm.201600019,26382,5(b),33044,(SnTe)1−x(Cu2Te)x,undefined,,4.5e+25,,,,0.018976,,,0.000090702,,,,
5919,10.1002/aelm.201600019,26382,5(b),33044,(SnTe)1−x(Cu2Te)x,undefined,,4.55e+25,,,,0.018898,,,0.000090636,,,,
5919,10.1002/aelm.201600019,26382,5(b),33044,(SnTe)1−x(Cu2Te)x,undefined,,4.6e+25,,,,0.01882,,,0.00009057,,,,
5919,10.1002/aelm.201600019,26382,5(b),33044,(SnTe)1−x(Cu2Te)x,undefined,,4.65e+25,,,,0.018742,,,0.000090503,,,,
5919,10.1002/aelm.201600019,26382,5(b),33044,(SnTe)1−x(Cu2Te)x,undefined,,4.7e+25,,,,0.018664,,,0.000090437,,,,
5919,10.1002/aelm.201600019,26382,5(b),33044,(SnTe)1−x(Cu2Te)x,undefined,,4.75e+25,,,,0.018586,,,0.00009037,,,,
5919,10.1002/aelm.201600019,26382,5(b),33044,(SnTe)1−x(Cu2Te)x,undefined,,4.8e+25,,,,0.018508,,,0.000090304,,,,
5919,10.1002/aelm.201600019,26382,5(b),33044,(SnTe)1−x(Cu2Te)x,undefined,,4.85e+25,,,,0.01843,,,0.000090237,,,,
5919,10.1002/aelm.201600019,26382,5(b),33044,(SnTe)1−x(Cu2Te)x,undefined,,4.9e+25,,,,0.018352,,,0.000090171,,,,
5919,10.1002/aelm.201600019,26382,5(b),33044,(SnTe)1−x(Cu2Te)x,undefined,,4.95e+25,,,,0.018274,,,0.000090104,,,,
5919,10.1002/aelm.201600019,26382,5(b),33044,(SnTe)1−x(Cu2Te)x,undefined,,5e+25,,,,0.018196,,,0.000090038,,,,
5919,10.1002/aelm.201600019,26382,5(b),33044,(SnTe)1−x(Cu2Te)x,undefined,,5.05e+25,,,,0.018118,,,0.000089971,,,,
5919,10.1002/aelm.201600019,26382,5(b),33044,(SnTe)1−x(Cu2Te)x,undefined,,5.1e+25,,,,0.018039,,,0.000089905,,,,
5919,10.1002/aelm.201600019,26382,5(b),33044,(SnTe)1−x(Cu2Te)x,undefined,,5.15e+25,,,,0.017961,,,0.000089838,,,,
5919,10.1002/aelm.201600019,26382,5(b),33044,(SnTe)1−x(Cu2Te)x,undefined,,5.2e+25,,,,0.017883,,,0.000089772,,,,
5919,10.1002/aelm.201600019,26382,5(b),33044,(SnTe)1−x(Cu2Te)x,undefined,,5.25e+25,,,,0.017805,,,0.000089705,,,,
5919,10.1002/aelm.201600019,26382,5(b),33044,(SnTe)1−x(Cu2Te)x,undefined,,5.3e+25,,,,0.017727,,,0.000089639,,,,
5919,10.1002/aelm.201600019,26382,5(b),33044,(SnTe)1−x(Cu2Te)x,undefined,,5.35e+25,,,,0.017649,,,0.000089572,,,,
5919,10.1002/aelm.201600019,26382,5(b),33044,(SnTe)1−x(Cu2Te)x,undefined,,5.4e+25,,,,0.017571,,,0.000089506,,,,
5919,10.1002/aelm.201600019,26382,5(b),33044,(SnTe)1−x(Cu2Te)x,undefined,,5.45e+25,,,,0.017493,,,0.000089439,,,,
5919,10.1002/aelm.201600019,26382,5(b),33044,(SnTe)1−x(Cu2Te)x,undefined,,5.5e+25,,,,0.017415,,,0.000089373,,,,
5919,10.1002/aelm.201600019,26382,5(b),33044,(SnTe)1−x(Cu2Te)x,undefined,,5.55e+25,,,,0.017337,,,0.000089306,,,,
5919,10.1002/aelm.201600019,26382,5(b),33044,(SnTe)1−x(Cu2Te)x,undefined,,5.6e+25,,,,0.017259,,,0.00008924,,,,
5919,10.1002/aelm.201600019,26382,5(b),33044,(SnTe)1−x(Cu2Te)x,undefined,,5.65e+25,,,,0.017181,,,0.000089173,,,,
5919,10.1002/aelm.201600019,26382,5(b),33044,(SnTe)1−x(Cu2Te)x,undefined,,5.7e+25,,,,0.017102,,,0.000089107,,,,
5919,10.1002/aelm.201600019,26382,5(b),33044,(SnTe)1−x(Cu2Te)x,undefined,,5.75e+25,,,,0.017024,,,0.00008904,,,,
5919,10.1002/aelm.201600019,26382,5(b),33044,(SnTe)1−x(Cu2Te)x,undefined,,5.8e+25,,,,0.016946,,,0.000088974,,,,
5919,10.1002/aelm.201600019,26382,5(b),33044,(SnTe)1−x(Cu2Te)x,undefined,,5.85e+25,,,,0.016868,,,0.000088907,,,,
5919,10.1002/aelm.201600019,26382,5(b),33044,(SnTe)1−x(Cu2Te)x,undefined,,5.9e+25,,,,0.01679,,,0.000088841,,,,
5919,10.1002/aelm.201600019,26382,5(b),33044,(SnTe)1−x(Cu2Te)x,undefined,,5.95e+25,,,,0.016712,,,0.000088774,,,,
5919,10.1002/aelm.201600019,26382,5(b),33044,(SnTe)1−x(Cu2Te)x,undefined,,6e+25,,,,0.016634,,,0.000088708,,,,
5919,10.1002/aelm.201600019,26382,5(b),33044,(SnTe)1−x(Cu2Te)x,undefined,,6.05e+25,,,,0.016556,,,0.000088642,,,,
5919,10.1002/aelm.201600019,26382,5(b),33044,(SnTe)1−x(Cu2Te)x,undefined,,6.1e+25,,,,0.016478,,,0.000088575,,,,
5919,10.1002/aelm.201600019,26382,5(b),33044,(SnTe)1−x(Cu2Te)x,undefined,,6.15e+25,,,,0.0164,,,0.000088509,,,,
5919,10.1002/aelm.201600019,26382,5(b),33044,(SnTe)1−x(Cu2Te)x,undefined,,6.2e+25,,,,0.016322,,,0.000088442,,,,
5919,10.1002/aelm.201600019,26382,5(b),33044,(SnTe)1−x(Cu2Te)x,undefined,,6.25e+25,,,,0.016244,,,0.000088376,,,,
5919,10.1002/aelm.201600019,26382,5(b),33044,(SnTe)1−x(Cu2Te)x,undefined,,6.3e+25,,,,0.016166,,,0.000088309,,,,
5919,10.1002/aelm.201600019,26382,5(b),33044,(SnTe)1−x(Cu2Te)x,undefined,,6.35e+25,,,,0.016087,,,0.000088243,,,,
5919,10.1002/aelm.201600019,26382,5(b),33044,(SnTe)1−x(Cu2Te)x,undefined,,6.4e+25,,,,0.016009,,,0.000088176,,,,
5919,10.1002/aelm.201600019,26382,5(b),33044,(SnTe)1−x(Cu2Te)x,undefined,,6.45e+25,,,,0.015931,,,0.00008811,,,,
5919,10.1002/aelm.201600019,26382,5(b),33044,(SnTe)1−x(Cu2Te)x,undefined,,6.5e+25,,,,0.015853,,,0.000088043,,,,
5919,10.1002/aelm.201600019,26382,5(b),33044,(SnTe)1−x(Cu2Te)x,undefined,,6.55e+25,,,,0.015775,,,0.000087977,,,,
5919,10.1002/aelm.201600019,26382,5(b),33044,(SnTe)1−x(Cu2Te)x,undefined,,6.6e+25,,,,0.015697,,,0.00008791,,,,
5919,10.1002/aelm.201600019,26382,5(b),33044,(SnTe)1−x(Cu2Te)x,undefined,,6.65e+25,,,,0.015619,,,0.000087844,,,,
5919,10.1002/aelm.201600019,26382,5(b),33044,(SnTe)1−x(Cu2Te)x,undefined,,6.7e+25,,,,0.015541,,,0.000087777,,,,
5919,10.1002/aelm.201600019,26382,5(b),33044,(SnTe)1−x(Cu2Te)x,undefined,,6.75e+25,,,,0.015463,,,0.000087711,,,,
5919,10.1002/aelm.201600019,26382,5(b),33044,(SnTe)1−x(Cu2Te)x,undefined,,6.8e+25,,,,0.015385,,,0.000087644,,,,
5919,10.1002/aelm.201600019,26382,5(b),33044,(SnTe)1−x(Cu2Te)x,undefined,,6.85e+25,,,,0.015307,,,0.000087578,,,,
5919,10.1002/aelm.201600019,26382,5(b),33044,(SnTe)1−x(Cu2Te)x,undefined,,6.9e+25,,,,0.015229,,,0.000087511,,,,
5919,10.1002/aelm.201600019,26382,5(b),33044,(SnTe)1−x(Cu2Te)x,undefined,,6.95e+25,,,,0.01515,,,0.000087445,,,,
5919,10.1002/aelm.201600019,26382,5(b),33044,(SnTe)1−x(Cu2Te)x,undefined,,7e+25,,,,0.015072,,,0.000087378,,,,
5919,10.1002/aelm.201600019,26382,5(b),33044,(SnTe)1−x(Cu2Te)x,undefined,,7.05e+25,,,,0.014994,,,0.000087312,,,,
5919,10.1002/aelm.201600019,26382,5(b),33044,(SnTe)1−x(Cu2Te)x,undefined,,7.1e+25,,,,0.014916,,,0.000087245,,,,
5919,10.1002/aelm.201600019,26382,5(b),33044,(SnTe)1−x(Cu2Te)x,undefined,,7.15e+25,,,,0.014838,,,0.000087179,,,,
5919,10.1002/aelm.201600019,26382,5(b),33044,(SnTe)1−x(Cu2Te)x,undefined,,7.2e+25,,,,0.01476,,,0.000087112,,,,
5919,10.1002/aelm.201600019,26382,5(b),33044,(SnTe)1−x(Cu2Te)x,undefined,,7.25e+25,,,,0.014682,,,0.000087046,,,,
5919,10.1002/aelm.201600019,26382,5(b),33044,(SnTe)1−x(Cu2Te)x,undefined,,7.3e+25,,,,0.014604,,,0.000086979,,,,
5919,10.1002/aelm.201600019,26382,5(b),33044,(SnTe)1−x(Cu2Te)x,undefined,,7.35e+25,,,,0.014526,,,0.000086913,,,,
5919,10.1002/aelm.201600019,26382,5(b),33044,(SnTe)1−x(Cu2Te)x,undefined,,7.4e+25,,,,0.014448,,,0.000086847,,,,
5919,10.1002/aelm.201600019,26382,5(b),33044,(SnTe)1−x(Cu2Te)x,undefined,,7.45e+25,,,,0.01437,,,0.00008678,,,,
5919,10.1002/aelm.201600019,26382,5(b),33044,(SnTe)1−x(Cu2Te)x,undefined,,7.5e+25,,,,0.014292,,,0.000086714,,,,
5919,10.1002/aelm.201600019,26382,5(b),33044,(SnTe)1−x(Cu2Te)x,undefined,,7.55e+25,,,,0.014214,,,0.000086647,,,,
5919,10.1002/aelm.201600019,26382,5(b),33044,(SnTe)1−x(Cu2Te)x,undefined,,7.6e+25,,,,0.014135,,,0.000086581,,,,
5919,10.1002/aelm.201600019,26382,5(b),33044,(SnTe)1−x(Cu2Te)x,undefined,,7.65e+25,,,,0.014057,,,0.000086514,,,,
5919,10.1002/aelm.201600019,26382,5(b),33044,(SnTe)1−x(Cu2Te)x,undefined,,7.7e+25,,,,0.013979,,,0.000086448,,,,
5919,10.1002/aelm.201600019,26382,5(b),33044,(SnTe)1−x(Cu2Te)x,undefined,,7.75e+25,,,,0.013901,,,0.000086381,,,,
5919,10.1002/aelm.201600019,26382,5(b),33044,(SnTe)1−x(Cu2Te)x,undefined,,7.8e+25,,,,0.013823,,,0.000086315,,,,
5919,10.1002/aelm.201600019,26382,5(b),33044,(SnTe)1−x(Cu2Te)x,undefined,,7.85e+25,,,,0.013745,,,0.000086248,,,,
5919,10.1002/aelm.201600019,26382,5(b),33044,(SnTe)1−x(Cu2Te)x,undefined,,7.9e+25,,,,0.013667,,,0.000086182,,,,
5919,10.1002/aelm.201600019,26382,5(b),33044,(SnTe)1−x(Cu2Te)x,undefined,,7.95e+25,,,,0.013589,,,0.000086115,,,,
5919,10.1002/aelm.201600019,26382,5(b),33044,(SnTe)1−x(Cu2Te)x,undefined,,8e+25,,,,0.013511,,,0.000086049,,,,
5919,10.1002/aelm.201600019,26382,5(b),33044,(SnTe)1−x(Cu2Te)x,undefined,,8.05e+25,,,,0.013433,,,0.000085982,,,,
5919,10.1002/aelm.201600019,26382,5(b),33044,(SnTe)1−x(Cu2Te)x,undefined,,8.1e+25,,,,0.013355,,,0.000085916,,,,
5919,10.1002/aelm.201600019,26382,5(b),33044,(SnTe)1−x(Cu2Te)x,undefined,,8.15e+25,,,,0.013277,,,0.000085849,,,,
5919,10.1002/aelm.201600019,26382,5(b),33044,(SnTe)1−x(Cu2Te)x,undefined,,8.2e+25,,,,0.013198,,,0.000085783,,,,
5919,10.1002/aelm.201600019,26382,5(b),33044,(SnTe)1−x(Cu2Te)x,undefined,,8.25e+25,,,,0.01312,,,0.000085716,,,,
5919,10.1002/aelm.201600019,26382,5(b),33044,(SnTe)1−x(Cu2Te)x,undefined,,8.3e+25,,,,0.013042,,,0.00008565,,,,
5919,10.1002/aelm.201600019,26382,5(b),33044,(SnTe)1−x(Cu2Te)x,undefined,,8.35e+25,,,,0.012964,,,0.000085583,,,,
5919,10.1002/aelm.201600019,26382,5(b),33044,(SnTe)1−x(Cu2Te)x,undefined,,8.4e+25,,,,0.012886,,,0.000085517,,,,
5919,10.1002/aelm.201600019,26382,5(b),33044,(SnTe)1−x(Cu2Te)x,undefined,,8.45e+25,,,,0.012808,,,0.00008545,,,,
5919,10.1002/aelm.201600019,26382,5(b),33044,(SnTe)1−x(Cu2Te)x,undefined,,8.5e+25,,,,0.01273,,,0.000085384,,,,
5919,10.1002/aelm.201600019,26382,5(b),33044,(SnTe)1−x(Cu2Te)x,undefined,,8.55e+25,,,,0.012652,,,0.000085317,,,,
5919,10.1002/aelm.201600019,26382,5(b),33044,(SnTe)1−x(Cu2Te)x,undefined,,8.6e+25,,,,0.012574,,,0.000085251,,,,
5919,10.1002/aelm.201600019,26382,5(b),33044,(SnTe)1−x(Cu2Te)x,undefined,,8.65e+25,,,,0.012496,,,0.000085184,,,,
5919,10.1002/aelm.201600019,26382,5(b),33044,(SnTe)1−x(Cu2Te)x,undefined,,8.7e+25,,,,0.012418,,,0.000085118,,,,
5919,10.1002/aelm.201600019,26382,5(b),33044,(SnTe)1−x(Cu2Te)x,undefined,,8.75e+25,,,,0.01234,,,0.000085051,,,,
5919,10.1002/aelm.201600019,26382,5(b),33044,(SnTe)1−x(Cu2Te)x,undefined,,8.8e+25,,,,0.012261,,,0.000084985,,,,
5919,10.1002/aelm.201600019,26382,5(b),33044,(SnTe)1−x(Cu2Te)x,undefined,,8.85e+25,,,,0.012183,,,0.000084919,,,,
5919,10.1002/aelm.201600019,26382,5(b),33044,(SnTe)1−x(Cu2Te)x,undefined,,8.9e+25,,,,0.012105,,,0.000084852,,,,