sid,DOI,figureid,fignum,sampleid,samplename,composition,Temperature,Carrier concentration,Electrical conductivity,Electrical resistivity,Hall coefficient,Hall movility,Lattice thermal conductivity,Power factor,Seebeck coefficient,Thermal conductivity,ZT,total thermal conductivity,Figure of merit Z
18650,10.1016/j.jmat.2015.09.001,26377,4(a),31991,Sn(1-x)MnxTe_ x=0.15,undefined,,4.465e+26,,,,0.00054983,,,0.00018176,,,,
18650,10.1016/j.jmat.2015.09.001,26377,4(a),31991,Sn(1-x)MnxTe_ x=0.15,undefined,,4.47e+26,,,,0.00054971,,,0.0001817,,,,
18650,10.1016/j.jmat.2015.09.001,26377,4(a),31991,Sn(1-x)MnxTe_ x=0.15,undefined,,4.475e+26,,,,0.00054958,,,0.00018163,,,,
18650,10.1016/j.jmat.2015.09.001,26377,4(a),31991,Sn(1-x)MnxTe_ x=0.15,undefined,,4.48e+26,,,,0.00054946,,,0.00018156,,,,
18650,10.1016/j.jmat.2015.09.001,26377,4(a),31991,Sn(1-x)MnxTe_ x=0.15,undefined,,4.485e+26,,,,0.00054934,,,0.00018149,,,,
18650,10.1016/j.jmat.2015.09.001,26377,4(a),31991,Sn(1-x)MnxTe_ x=0.15,undefined,,4.49e+26,,,,0.00054922,,,0.00018142,,,,
18650,10.1016/j.jmat.2015.09.001,26377,4(a),31991,Sn(1-x)MnxTe_ x=0.15,undefined,,4.495e+26,,,,0.0005491,,,0.00018136,,,,
18650,10.1016/j.jmat.2015.09.001,26377,4(a),31991,Sn(1-x)MnxTe_ x=0.15,undefined,,4.5e+26,,,,0.00054898,,,0.00018129,,,,
18650,10.1016/j.jmat.2015.09.001,26377,4(a),31991,Sn(1-x)MnxTe_ x=0.15,undefined,,4.505e+26,,,,0.00054886,,,0.00018122,,,,
18650,10.1016/j.jmat.2015.09.001,26377,4(a),31991,Sn(1-x)MnxTe_ x=0.15,undefined,,4.51e+26,,,,0.00054874,,,0.00018115,,,,
18650,10.1016/j.jmat.2015.09.001,26377,4(a),31991,Sn(1-x)MnxTe_ x=0.15,undefined,,4.515e+26,,,,0.00054861,,,0.00018109,,,,
18650,10.1016/j.jmat.2015.09.001,26377,4(a),31991,Sn(1-x)MnxTe_ x=0.15,undefined,,4.52e+26,,,,0.00054849,,,0.00018102,,,,
18650,10.1016/j.jmat.2015.09.001,26377,4(a),31991,Sn(1-x)MnxTe_ x=0.15,undefined,,4.525e+26,,,,0.00054837,,,0.00018095,,,,
18650,10.1016/j.jmat.2015.09.001,26377,4(a),31991,Sn(1-x)MnxTe_ x=0.15,undefined,,4.53e+26,,,,0.00054825,,,0.00018088,,,,
18650,10.1016/j.jmat.2015.09.001,26377,4(a),31991,Sn(1-x)MnxTe_ x=0.15,undefined,,4.535e+26,,,,0.00054813,,,0.00018081,,,,
18650,10.1016/j.jmat.2015.09.001,26377,4(a),31991,Sn(1-x)MnxTe_ x=0.15,undefined,,4.54e+26,,,,0.00054801,,,0.00018075,,,,
18650,10.1016/j.jmat.2015.09.001,26377,4(a),31991,Sn(1-x)MnxTe_ x=0.15,undefined,,4.545e+26,,,,0.00054789,,,0.00018068,,,,
18650,10.1016/j.jmat.2015.09.001,26377,4(a),31991,Sn(1-x)MnxTe_ x=0.15,undefined,,4.55e+26,,,,0.00054776,,,0.00018061,,,,
18650,10.1016/j.jmat.2015.09.001,26377,4(a),31991,Sn(1-x)MnxTe_ x=0.15,undefined,,4.555e+26,,,,0.00054764,,,0.00018054,,,,
18650,10.1016/j.jmat.2015.09.001,26378,3(b),31991,Sn(1-x)MnxTe_ x=0.15,undefined,,4.56e+26,,,,0.00054752,,,0.00018048,,,,
18650,10.1016/j.jmat.2015.09.001,26378,3(b),31991,Sn(1-x)MnxTe_ x=0.15,undefined,,4.565e+26,,,,0.0005474,,,0.00018041,,,,
18650,10.1016/j.jmat.2015.09.001,26378,3(b),31991,Sn(1-x)MnxTe_ x=0.15,undefined,,4.57e+26,,,,0.00054728,,,0.00018034,,,,
18650,10.1016/j.jmat.2015.09.001,26378,3(b),31991,Sn(1-x)MnxTe_ x=0.15,undefined,,4.575e+26,,,,0.00054716,,,0.00018027,,,,
18650,10.1016/j.jmat.2015.09.001,26378,3(b),31991,Sn(1-x)MnxTe_ x=0.15,undefined,,4.58e+26,,,,0.00054704,,,0.00018021,,,,
18650,10.1016/j.jmat.2015.09.001,26378,3(b),31991,Sn(1-x)MnxTe_ x=0.15,undefined,,4.585e+26,,,,0.00054692,,,0.00018014,,,,
18650,10.1016/j.jmat.2015.09.001,26378,3(b),31991,Sn(1-x)MnxTe_ x=0.15,undefined,,4.59e+26,,,,0.00054679,,,0.00018007,,,,
18650,10.1016/j.jmat.2015.09.001,26378,3(b),31991,Sn(1-x)MnxTe_ x=0.15,undefined,,4.595e+26,,,,0.00054667,,,0.00018,,,,
18650,10.1016/j.jmat.2015.09.001,26378,3(b),31991,Sn(1-x)MnxTe_ x=0.15,undefined,,4.6e+26,,,,0.00054655,,,0.00017993,,,,
18650,10.1016/j.jmat.2015.09.001,26378,3(b),31991,Sn(1-x)MnxTe_ x=0.15,undefined,,4.605e+26,,,,0.00054643,,,0.00017987,,,,
18650,10.1016/j.jmat.2015.09.001,26378,3(b),31991,Sn(1-x)MnxTe_ x=0.15,undefined,,4.61e+26,,,,0.00054631,,,0.0001798,,,,
18650,10.1016/j.jmat.2015.09.001,26378,3(b),31991,Sn(1-x)MnxTe_ x=0.15,undefined,,4.615e+26,,,,0.00054619,,,0.00017973,,,,
18650,10.1016/j.jmat.2015.09.001,26378,3(b),31991,Sn(1-x)MnxTe_ x=0.15,undefined,,4.62e+26,,,,0.00054607,,,0.00017966,,,,
18650,10.1016/j.jmat.2015.09.001,26378,3(b),31991,Sn(1-x)MnxTe_ x=0.15,undefined,,4.625e+26,,,,0.00054595,,,0.0001796,,,,
18650,10.1016/j.jmat.2015.09.001,26378,3(b),31991,Sn(1-x)MnxTe_ x=0.15,undefined,,4.63e+26,,,,0.00054582,,,0.00017953,,,,
18650,10.1016/j.jmat.2015.09.001,26378,3(b),31991,Sn(1-x)MnxTe_ x=0.15,undefined,,4.635e+26,,,,0.0005457,,,0.00017946,,,,
18650,10.1016/j.jmat.2015.09.001,26378,3(b),31991,Sn(1-x)MnxTe_ x=0.15,undefined,,4.64e+26,,,,0.00054558,,,0.00017939,,,,
18650,10.1016/j.jmat.2015.09.001,26378,3(b),31991,Sn(1-x)MnxTe_ x=0.15,undefined,,4.645e+26,,,,0.00054546,,,0.00017932,,,,
18650,10.1016/j.jmat.2015.09.001,26378,3(b),31991,Sn(1-x)MnxTe_ x=0.15,undefined,,4.65e+26,,,,0.00054534,,,0.00017926,,,,
18650,10.1016/j.jmat.2015.09.001,26378,3(b),31991,Sn(1-x)MnxTe_ x=0.15,undefined,,4.655e+26,,,,0.00054522,,,0.00017919,,,,
18650,10.1016/j.jmat.2015.09.001,26378,3(b),31991,Sn(1-x)MnxTe_ x=0.15,undefined,,4.66e+26,,,,0.0005451,,,0.00017912,,,,
18650,10.1016/j.jmat.2015.09.001,26378,3(b),31991,Sn(1-x)MnxTe_ x=0.15,undefined,,4.665e+26,,,,0.00054497,,,0.00017905,,,,
18650,10.1016/j.jmat.2015.09.001,26378,3(b),31991,Sn(1-x)MnxTe_ x=0.15,undefined,,4.67e+26,,,,0.00054485,,,0.00017899,,,,
18650,10.1016/j.jmat.2015.09.001,26378,3(b),31991,Sn(1-x)MnxTe_ x=0.15,undefined,,4.675e+26,,,,0.00054473,,,0.00017892,,,,
18650,10.1016/j.jmat.2015.09.001,26378,3(b),31991,Sn(1-x)MnxTe_ x=0.15,undefined,,4.68e+26,,,,0.00054461,,,0.00017885,,,,
18650,10.1016/j.jmat.2015.09.001,26378,3(b),31991,Sn(1-x)MnxTe_ x=0.15,undefined,,4.685e+26,,,,0.00054449,,,0.00017878,,,,
18650,10.1016/j.jmat.2015.09.001,26378,3(b),31991,Sn(1-x)MnxTe_ x=0.15,undefined,,4.69e+26,,,,0.00054437,,,0.00017871,,,,
18650,10.1016/j.jmat.2015.09.001,26378,3(b),31991,Sn(1-x)MnxTe_ x=0.15,undefined,,4.695e+26,,,,0.00054425,,,0.00017865,,,,
18650,10.1016/j.jmat.2015.09.001,26378,3(b),31991,Sn(1-x)MnxTe_ x=0.15,undefined,,4.7e+26,,,,0.00054413,,,0.00017858,,,,
18650,10.1016/j.jmat.2015.09.001,26378,3(b),31991,Sn(1-x)MnxTe_ x=0.15,undefined,,4.705e+26,,,,0.000544,,,0.00017851,,,,
18650,10.1016/j.jmat.2015.09.001,26378,3(b),31991,Sn(1-x)MnxTe_ x=0.15,undefined,,4.71e+26,,,,0.00054388,,,0.00017844,,,,
18650,10.1016/j.jmat.2015.09.001,26378,3(b),31991,Sn(1-x)MnxTe_ x=0.15,undefined,,4.715e+26,,,,0.00054376,,,0.00017838,,,,
18650,10.1016/j.jmat.2015.09.001,26378,3(b),31991,Sn(1-x)MnxTe_ x=0.15,undefined,,4.72e+26,,,,0.00054364,,,0.00017831,,,,
18650,10.1016/j.jmat.2015.09.001,26378,3(b),31991,Sn(1-x)MnxTe_ x=0.15,undefined,,4.725e+26,,,,0.00054352,,,0.00017824,,,,
18650,10.1016/j.jmat.2015.09.001,26378,3(b),31991,Sn(1-x)MnxTe_ x=0.15,undefined,,4.73e+26,,,,0.0005434,,,0.00017817,,,,
18650,10.1016/j.jmat.2015.09.001,26378,3(b),31991,Sn(1-x)MnxTe_ x=0.15,undefined,,4.735e+26,,,,0.00054328,,,0.0001781,,,,
18650,10.1016/j.jmat.2015.09.001,26378,3(b),31991,Sn(1-x)MnxTe_ x=0.15,undefined,,4.74e+26,,,,0.00054315,,,0.00017804,,,,
18650,10.1016/j.jmat.2015.09.001,26378,3(b),31991,Sn(1-x)MnxTe_ x=0.15,undefined,,4.745e+26,,,,0.00054303,,,0.00017797,,,,
18650,10.1016/j.jmat.2015.09.001,26378,3(b),31991,Sn(1-x)MnxTe_ x=0.15,undefined,,4.75e+26,,,,0.00054291,,,0.0001779,,,,
18650,10.1016/j.jmat.2015.09.001,26378,3(b),31991,Sn(1-x)MnxTe_ x=0.15,undefined,,4.755e+26,,,,0.00054279,,,0.00017783,,,,
18650,10.1016/j.jmat.2015.09.001,26378,3(b),31991,Sn(1-x)MnxTe_ x=0.15,undefined,,4.76e+26,,,,0.00054267,,,0.00017777,,,,
18650,10.1016/j.jmat.2015.09.001,26378,3(b),31991,Sn(1-x)MnxTe_ x=0.15,undefined,,4.765e+26,,,,0.00054255,,,0.0001777,,,,
18650,10.1016/j.jmat.2015.09.001,26378,3(b),31991,Sn(1-x)MnxTe_ x=0.15,undefined,,4.77e+26,,,,0.00054243,,,0.00017763,,,,
18650,10.1016/j.jmat.2015.09.001,26378,3(b),31991,Sn(1-x)MnxTe_ x=0.15,undefined,,4.775e+26,,,,0.00054231,,,0.00017756,,,,
18650,10.1016/j.jmat.2015.09.001,26378,3(b),31991,Sn(1-x)MnxTe_ x=0.15,undefined,,4.78e+26,,,,0.00054218,,,0.00017749,,,,
18650,10.1016/j.jmat.2015.09.001,26378,3(b),31991,Sn(1-x)MnxTe_ x=0.15,undefined,,4.785e+26,,,,0.00054206,,,0.00017743,,,,
18650,10.1016/j.jmat.2015.09.001,26378,3(b),31991,Sn(1-x)MnxTe_ x=0.15,undefined,,4.79e+26,,,,0.00054194,,,0.00017736,,,,
18650,10.1016/j.jmat.2015.09.001,26378,3(b),31991,Sn(1-x)MnxTe_ x=0.15,undefined,,4.795e+26,,,,0.00054182,,,0.00017729,,,,
18650,10.1016/j.jmat.2015.09.001,26378,3(b),31991,Sn(1-x)MnxTe_ x=0.15,undefined,,4.8e+26,,,,0.0005417,,,0.00017722,,,,
18650,10.1016/j.jmat.2015.09.001,26378,3(b),31991,Sn(1-x)MnxTe_ x=0.15,undefined,,4.805e+26,,,,0.00054158,,,0.00017716,,,,
18650,10.1016/j.jmat.2015.09.001,26378,3(b),31991,Sn(1-x)MnxTe_ x=0.15,undefined,,4.81e+26,,,,0.00054146,,,0.00017709,,,,
18650,10.1016/j.jmat.2015.09.001,26378,3(b),31991,Sn(1-x)MnxTe_ x=0.15,undefined,,4.815e+26,,,,0.00054133,,,0.00017702,,,,
18650,10.1016/j.jmat.2015.09.001,26378,3(b),31991,Sn(1-x)MnxTe_ x=0.15,undefined,,4.82e+26,,,,0.00054121,,,0.00017695,,,,
18650,10.1016/j.jmat.2015.09.001,26378,3(b),31991,Sn(1-x)MnxTe_ x=0.15,undefined,,4.825e+26,,,,0.00054109,,,0.00017688,,,,
18650,10.1016/j.jmat.2015.09.001,26378,3(b),31991,Sn(1-x)MnxTe_ x=0.15,undefined,,4.83e+26,,,,0.00054097,,,0.00017682,,,,
18650,10.1016/j.jmat.2015.09.001,26378,3(b),31991,Sn(1-x)MnxTe_ x=0.15,undefined,,4.835e+26,,,,0.00054085,,,0.00017675,,,,
18650,10.1016/j.jmat.2015.09.001,26378,3(b),31991,Sn(1-x)MnxTe_ x=0.15,undefined,,4.84e+26,,,,0.00054073,,,0.00017668,,,,
18650,10.1016/j.jmat.2015.09.001,26378,3(b),31991,Sn(1-x)MnxTe_ x=0.15,undefined,,4.845e+26,,,,0.00054061,,,0.00017661,,,,
18650,10.1016/j.jmat.2015.09.001,26378,3(b),31991,Sn(1-x)MnxTe_ x=0.15,undefined,,4.85e+26,,,,0.00054049,,,0.00017655,,,,
18650,10.1016/j.jmat.2015.09.001,26378,3(b),31991,Sn(1-x)MnxTe_ x=0.15,undefined,,4.855e+26,,,,0.00054036,,,0.00017648,,,,
18650,10.1016/j.jmat.2015.09.001,26378,3(b),31991,Sn(1-x)MnxTe_ x=0.15,undefined,,4.86e+26,,,,0.00054024,,,0.00017641,,,,
18650,10.1016/j.jmat.2015.09.001,26378,3(b),31991,Sn(1-x)MnxTe_ x=0.15,undefined,,4.865e+26,,,,0.00054012,,,0.00017634,,,,
18650,10.1016/j.jmat.2015.09.001,26378,3(b),31991,Sn(1-x)MnxTe_ x=0.15,undefined,,4.87e+26,,,,0.00054,,,0.00017628,,,,
18650,10.1016/j.jmat.2015.09.001,26378,3(b),31991,Sn(1-x)MnxTe_ x=0.15,undefined,,4.875e+26,,,,0.00053988,,,0.00017621,,,,
18650,10.1016/j.jmat.2015.09.001,26378,3(b),31991,Sn(1-x)MnxTe_ x=0.15,undefined,,4.88e+26,,,,0.00053976,,,0.00017614,,,,
18650,10.1016/j.jmat.2015.09.001,26378,3(b),31991,Sn(1-x)MnxTe_ x=0.15,undefined,,4.885e+26,,,,0.00053964,,,0.00017607,,,,
18650,10.1016/j.jmat.2015.09.001,26378,3(b),31991,Sn(1-x)MnxTe_ x=0.15,undefined,,4.89e+26,,,,0.00053952,,,0.000176,,,,
18650,10.1016/j.jmat.2015.09.001,26378,3(b),31991,Sn(1-x)MnxTe_ x=0.15,undefined,,4.895e+26,,,,0.00053939,,,0.00017594,,,,
18650,10.1016/j.jmat.2015.09.001,26378,3(b),31991,Sn(1-x)MnxTe_ x=0.15,undefined,,4.9e+26,,,,0.00053927,,,0.00017587,,,,
18650,10.1016/j.jmat.2015.09.001,26378,3(b),31991,Sn(1-x)MnxTe_ x=0.15,undefined,,4.905e+26,,,,0.00053915,,,0.0001758,,,,
18650,10.1016/j.jmat.2015.09.001,26378,3(b),31991,Sn(1-x)MnxTe_ x=0.15,undefined,,4.91e+26,,,,0.00053903,,,0.00017573,,,,
18650,10.1016/j.jmat.2015.09.001,26378,3(b),31991,Sn(1-x)MnxTe_ x=0.15,undefined,,4.915e+26,,,,0.00053891,,,0.00017567,,,,
18650,10.1016/j.jmat.2015.09.001,26378,3(b),31991,Sn(1-x)MnxTe_ x=0.15,undefined,,4.92e+26,,,,0.00053879,,,0.0001756,,,,
18650,10.1016/j.jmat.2015.09.001,26378,3(b),31991,Sn(1-x)MnxTe_ x=0.15,undefined,,4.925e+26,,,,0.00053867,,,0.00017553,,,,
18650,10.1016/j.jmat.2015.09.001,26378,3(b),31991,Sn(1-x)MnxTe_ x=0.15,undefined,,4.93e+26,,,,0.00053854,,,0.00017546,,,,
18650,10.1016/j.jmat.2015.09.001,26378,3(b),31991,Sn(1-x)MnxTe_ x=0.15,undefined,,4.935e+26,,,,0.00053842,,,0.00017539,,,,
18650,10.1016/j.jmat.2015.09.001,26378,3(b),31991,Sn(1-x)MnxTe_ x=0.15,undefined,,4.94e+26,,,,0.0005383,,,0.00017533,,,,
18650,10.1016/j.jmat.2015.09.001,26378,3(b),31991,Sn(1-x)MnxTe_ x=0.15,undefined,,4.945e+26,,,,0.00053818,,,0.00017526,,,,
18650,10.1016/j.jmat.2015.09.001,26378,3(b),31991,Sn(1-x)MnxTe_ x=0.15,undefined,,4.95e+26,,,,0.00053806,,,0.00017519,,,,
18650,10.1016/j.jmat.2015.09.001,26378,3(b),31991,Sn(1-x)MnxTe_ x=0.15,undefined,,4.955e+26,,,,0.00053794,,,0.00017512,,,,
18650,10.1016/j.jmat.2015.09.001,26378,3(b),31991,Sn(1-x)MnxTe_ x=0.15,undefined,,4.96e+26,,,,0.00053782,,,0.00017506,,,,
18650,10.1016/j.jmat.2015.09.001,26378,3(b),31991,Sn(1-x)MnxTe_ x=0.15,undefined,,4.965e+26,,,,0.0005377,,,0.00017499,,,,
18650,10.1016/j.jmat.2015.09.001,26378,3(b),31991,Sn(1-x)MnxTe_ x=0.15,undefined,,4.97e+26,,,,0.00053757,,,0.00017492,,,,
18650,10.1016/j.jmat.2015.09.001,26378,3(b),31991,Sn(1-x)MnxTe_ x=0.15,undefined,,4.975e+26,,,,0.00053745,,,0.00017485,,,,
18650,10.1016/j.jmat.2015.09.001,26378,3(b),31991,Sn(1-x)MnxTe_ x=0.15,undefined,,4.98e+26,,,,0.00053733,,,0.00017478,,,,
18650,10.1016/j.jmat.2015.09.001,26378,3(b),31991,Sn(1-x)MnxTe_ x=0.15,undefined,,4.985e+26,,,,0.00053721,,,0.00017472,,,,
18650,10.1016/j.jmat.2015.09.001,26378,3(b),31991,Sn(1-x)MnxTe_ x=0.15,undefined,,4.99e+26,,,,0.00053709,,,0.00017465,,,,
18650,10.1016/j.jmat.2015.09.001,26378,3(b),31991,Sn(1-x)MnxTe_ x=0.15,undefined,,4.995e+26,,,,0.00053697,,,0.00017458,,,,
18650,10.1016/j.jmat.2015.09.001,26378,3(b),31991,Sn(1-x)MnxTe_ x=0.15,undefined,,5e+26,,,,0.00053685,,,0.00017451,,,,
18650,10.1016/j.jmat.2015.09.001,26378,3(b),31991,Sn(1-x)MnxTe_ x=0.15,undefined,,5.005e+26,,,,0.00053672,,,0.00017445,,,,
18650,10.1016/j.jmat.2015.09.001,26378,3(b),31991,Sn(1-x)MnxTe_ x=0.15,undefined,,5.01e+26,,,,0.0005366,,,0.00017438,,,,
18650,10.1016/j.jmat.2015.09.001,26378,3(b),31991,Sn(1-x)MnxTe_ x=0.15,undefined,,5.015e+26,,,,0.00053648,,,0.00017431,,,,
18650,10.1016/j.jmat.2015.09.001,26378,3(b),31991,Sn(1-x)MnxTe_ x=0.15,undefined,,5.02e+26,,,,0.00053636,,,0.00017424,,,,
18650,10.1016/j.jmat.2015.09.001,26378,3(b),31991,Sn(1-x)MnxTe_ x=0.15,undefined,,5.025e+26,,,,0.00053624,,,0.00017417,,,,
18650,10.1016/j.jmat.2015.09.001,26378,3(b),31991,Sn(1-x)MnxTe_ x=0.15,undefined,,5.03e+26,,,,0.00053612,,,0.00017411,,,,
18650,10.1016/j.jmat.2015.09.001,26378,3(b),31991,Sn(1-x)MnxTe_ x=0.15,undefined,,5.035e+26,,,,0.000536,,,0.00017404,,,,
18650,10.1016/j.jmat.2015.09.001,26378,3(b),31991,Sn(1-x)MnxTe_ x=0.15,undefined,,5.04e+26,,,,0.00053588,,,0.00017397,,,,
18650,10.1016/j.jmat.2015.09.001,26378,3(b),31991,Sn(1-x)MnxTe_ x=0.15,undefined,,5.045e+26,,,,0.00053575,,,0.0001739,,,,
18650,10.1016/j.jmat.2015.09.001,26378,3(b),31991,Sn(1-x)MnxTe_ x=0.15,undefined,,5.05e+26,,,,0.00053563,,,0.00017384,,,,
18650,10.1016/j.jmat.2015.09.001,26378,3(b),31991,Sn(1-x)MnxTe_ x=0.15,undefined,,5.055e+26,,,,0.00053551,,,0.00017377,,,,
18650,10.1016/j.jmat.2015.09.001,26378,3(b),31991,Sn(1-x)MnxTe_ x=0.15,undefined,,5.06e+26,,,,0.00053539,,,0.0001737,,,,
18650,10.1016/j.jmat.2015.09.001,26378,3(b),31991,Sn(1-x)MnxTe_ x=0.15,undefined,,5.065e+26,,,,0.00053527,,,0.00017363,,,,
18650,10.1016/j.jmat.2015.09.001,26378,3(b),31991,Sn(1-x)MnxTe_ x=0.15,undefined,,5.07e+26,,,,0.00053515,,,0.00017356,,,,
18650,10.1016/j.jmat.2015.09.001,26378,3(b),31991,Sn(1-x)MnxTe_ x=0.15,undefined,,5.075e+26,,,,0.00053503,,,0.0001735,,,,
18650,10.1016/j.jmat.2015.09.001,26378,3(b),31991,Sn(1-x)MnxTe_ x=0.15,undefined,,5.08e+26,,,,0.00053491,,,0.00017343,,,,
18650,10.1016/j.jmat.2015.09.001,26378,3(b),31991,Sn(1-x)MnxTe_ x=0.15,undefined,,5.085e+26,,,,0.00053478,,,0.00017336,,,,
18650,10.1016/j.jmat.2015.09.001,26378,3(b),31991,Sn(1-x)MnxTe_ x=0.15,undefined,,5.09e+26,,,,0.00053466,,,0.00017329,,,,
18650,10.1016/j.jmat.2015.09.001,26378,3(b),31991,Sn(1-x)MnxTe_ x=0.15,undefined,,5.095e+26,,,,0.00053454,,,0.00017323,,,,
18650,10.1016/j.jmat.2015.09.001,26378,3(b),31991,Sn(1-x)MnxTe_ x=0.15,undefined,,5.1e+26,,,,0.00053442,,,0.00017316,,,,
18650,10.1016/j.jmat.2015.09.001,26378,3(b),31991,Sn(1-x)MnxTe_ x=0.15,undefined,,5.105e+26,,,,0.0005343,,,0.00017309,,,,
18650,10.1016/j.jmat.2015.09.001,26378,3(b),31991,Sn(1-x)MnxTe_ x=0.15,undefined,,5.11e+26,,,,0.00053418,,,0.00017302,,,,
18650,10.1016/j.jmat.2015.09.001,26378,3(b),31991,Sn(1-x)MnxTe_ x=0.15,undefined,,5.115e+26,,,,0.00053406,,,0.00017295,,,,
18650,10.1016/j.jmat.2015.09.001,26378,3(b),31991,Sn(1-x)MnxTe_ x=0.15,undefined,,5.12e+26,,,,0.00053393,,,0.00017289,,,,
18650,10.1016/j.jmat.2015.09.001,26378,3(b),31991,Sn(1-x)MnxTe_ x=0.15,undefined,,5.125e+26,,,,0.00053381,,,0.00017282,,,,
18650,10.1016/j.jmat.2015.09.001,26378,3(b),31991,Sn(1-x)MnxTe_ x=0.15,undefined,,5.13e+26,,,,0.00053369,,,0.00017275,,,,
18650,10.1016/j.jmat.2015.09.001,26378,3(b),31991,Sn(1-x)MnxTe_ x=0.15,undefined,,5.135e+26,,,,0.00053357,,,0.00017268,,,,
18650,10.1016/j.jmat.2015.09.001,26378,3(b),31991,Sn(1-x)MnxTe_ x=0.15,undefined,,5.14e+26,,,,0.00053345,,,0.00017262,,,,
18650,10.1016/j.jmat.2015.09.001,26378,3(b),31991,Sn(1-x)MnxTe_ x=0.15,undefined,,5.145e+26,,,,0.00053333,,,0.00017255,,,,
18650,10.1016/j.jmat.2015.09.001,26378,3(b),31991,Sn(1-x)MnxTe_ x=0.15,undefined,,5.15e+26,,,,0.00053321,,,0.00017248,,,,
18650,10.1016/j.jmat.2015.09.001,26378,3(b),31991,Sn(1-x)MnxTe_ x=0.15,undefined,,5.155e+26,,,,0.00053309,,,0.00017241,,,,
18650,10.1016/j.jmat.2015.09.001,26378,3(b),31991,Sn(1-x)MnxTe_ x=0.15,undefined,,5.16e+26,,,,0.00053296,,,0.00017235,,,,
18650,10.1016/j.jmat.2015.09.001,26378,3(b),31991,Sn(1-x)MnxTe_ x=0.15,undefined,,5.165e+26,,,,0.00053284,,,0.00017228,,,,
18650,10.1016/j.jmat.2015.09.001,26378,3(b),31991,Sn(1-x)MnxTe_ x=0.15,undefined,,5.17e+26,,,,0.00053272,,,0.00017221,,,,
18650,10.1016/j.jmat.2015.09.001,26378,3(b),31991,Sn(1-x)MnxTe_ x=0.15,undefined,,5.175e+26,,,,0.0005326,,,0.00017214,,,,
18650,10.1016/j.jmat.2015.09.001,26378,3(b),31991,Sn(1-x)MnxTe_ x=0.15,undefined,,5.18e+26,,,,0.00053248,,,0.00017207,,,,
18650,10.1016/j.jmat.2015.09.001,26378,3(b),31991,Sn(1-x)MnxTe_ x=0.15,undefined,,5.185e+26,,,,0.00053236,,,0.00017201,,,,
18650,10.1016/j.jmat.2015.09.001,26378,3(b),31991,Sn(1-x)MnxTe_ x=0.15,undefined,,5.19e+26,,,,0.00053224,,,0.00017194,,,,
18650,10.1016/j.jmat.2015.09.001,26378,3(b),31991,Sn(1-x)MnxTe_ x=0.15,undefined,,5.195e+26,,,,0.00053211,,,0.00017187,,,,
18650,10.1016/j.jmat.2015.09.001,26378,3(b),31991,Sn(1-x)MnxTe_ x=0.15,undefined,,5.2e+26,,,,0.00053199,,,0.0001718,,,,
18650,10.1016/j.jmat.2015.09.001,26378,3(b),31991,Sn(1-x)MnxTe_ x=0.15,undefined,,5.205e+26,,,,0.00053187,,,0.00017174,,,,
18650,10.1016/j.jmat.2015.09.001,26378,3(b),31991,Sn(1-x)MnxTe_ x=0.15,undefined,,5.21e+26,,,,0.00053175,,,0.00017167,,,,
18650,10.1016/j.jmat.2015.09.001,26378,3(b),31991,Sn(1-x)MnxTe_ x=0.15,undefined,,5.215e+26,,,,0.00053163,,,0.0001716,,,,
18650,10.1016/j.jmat.2015.09.001,26378,3(b),31991,Sn(1-x)MnxTe_ x=0.15,undefined,,5.22e+26,,,,0.00053151,,,0.00017153,,,,
18650,10.1016/j.jmat.2015.09.001,26378,3(b),31991,Sn(1-x)MnxTe_ x=0.15,undefined,,5.225e+26,,,,0.00053139,,,0.00017146,,,,
18650,10.1016/j.jmat.2015.09.001,26378,3(b),31991,Sn(1-x)MnxTe_ x=0.15,undefined,,5.23e+26,,,,0.00053127,,,0.0001714,,,,
18650,10.1016/j.jmat.2015.09.001,26378,3(b),31991,Sn(1-x)MnxTe_ x=0.15,undefined,,5.235e+26,,,,0.00053114,,,0.00017133,,,,
18650,10.1016/j.jmat.2015.09.001,26378,3(b),31991,Sn(1-x)MnxTe_ x=0.15,undefined,,5.24e+26,,,,0.00053102,,,0.00017126,,,,
18650,10.1016/j.jmat.2015.09.001,26378,3(b),31991,Sn(1-x)MnxTe_ x=0.15,undefined,,5.245e+26,,,,0.0005309,,,0.00017119,,,,
18650,10.1016/j.jmat.2015.09.001,26378,3(b),31991,Sn(1-x)MnxTe_ x=0.15,undefined,,5.25e+26,,,,0.00053078,,,0.00017113,,,,
18650,10.1016/j.jmat.2015.09.001,26378,3(b),31991,Sn(1-x)MnxTe_ x=0.15,undefined,,5.255e+26,,,,0.00053066,,,0.00017106,,,,
18650,10.1016/j.jmat.2015.09.001,26378,3(b),31991,Sn(1-x)MnxTe_ x=0.15,undefined,,5.26e+26,,,,0.00053054,,,0.00017099,,,,
18650,10.1016/j.jmat.2015.09.001,26378,3(b),31991,Sn(1-x)MnxTe_ x=0.15,undefined,,5.265e+26,,,,0.00053042,,,0.00017092,,,,