sid,DOI,figureid,fignum,sampleid,samplename,composition,Temperature,Carrier concentration,Electrical conductivity,Electrical resistivity,Hall coefficient,Hall movility,Lattice thermal conductivity,Power factor,Seebeck coefficient,Thermal conductivity,ZT,total thermal conductivity,Figure of merit Z
18650,10.1016/j.jmat.2015.09.001,26377,4(a),31991,Sn(1-x)MnxTe_ x=0.15,undefined,,4.4e+25,,,,0.0068444,,,0.00008856,,,,
18650,10.1016/j.jmat.2015.09.001,26377,4(a),31991,Sn(1-x)MnxTe_ x=0.15,undefined,,4.45e+25,,,,0.006839,,,0.000088507,,,,
18650,10.1016/j.jmat.2015.09.001,26377,4(a),31991,Sn(1-x)MnxTe_ x=0.15,undefined,,4.5e+25,,,,0.0068336,,,0.000088454,,,,
18650,10.1016/j.jmat.2015.09.001,26377,4(a),31991,Sn(1-x)MnxTe_ x=0.15,undefined,,4.55e+25,,,,0.0068282,,,0.000088401,,,,
18650,10.1016/j.jmat.2015.09.001,26377,4(a),31991,Sn(1-x)MnxTe_ x=0.15,undefined,,4.6e+25,,,,0.0068228,,,0.000088347,,,,
18650,10.1016/j.jmat.2015.09.001,26377,4(a),31991,Sn(1-x)MnxTe_ x=0.15,undefined,,4.65e+25,,,,0.0068174,,,0.000088294,,,,
18650,10.1016/j.jmat.2015.09.001,26377,4(a),31991,Sn(1-x)MnxTe_ x=0.15,undefined,,4.7e+25,,,,0.006812,,,0.000088241,,,,
18650,10.1016/j.jmat.2015.09.001,26377,4(a),31991,Sn(1-x)MnxTe_ x=0.15,undefined,,4.75e+25,,,,0.0068066,,,0.000088188,,,,
18650,10.1016/j.jmat.2015.09.001,26377,4(a),31991,Sn(1-x)MnxTe_ x=0.15,undefined,,4.8e+25,,,,0.0068013,,,0.000088134,,,,
18650,10.1016/j.jmat.2015.09.001,26377,4(a),31991,Sn(1-x)MnxTe_ x=0.15,undefined,,4.85e+25,,,,0.0067959,,,0.000088081,,,,
18650,10.1016/j.jmat.2015.09.001,26377,4(a),31991,Sn(1-x)MnxTe_ x=0.15,undefined,,4.9e+25,,,,0.0067905,,,0.000088028,,,,
18650,10.1016/j.jmat.2015.09.001,26377,4(a),31991,Sn(1-x)MnxTe_ x=0.15,undefined,,4.95e+25,,,,0.0067851,,,0.000087975,,,,
18650,10.1016/j.jmat.2015.09.001,26377,4(a),31991,Sn(1-x)MnxTe_ x=0.15,undefined,,5e+25,,,,0.0067797,,,0.000087921,,,,
18650,10.1016/j.jmat.2015.09.001,26377,4(a),31991,Sn(1-x)MnxTe_ x=0.15,undefined,,5.05e+25,,,,0.0067743,,,0.000087868,,,,
18650,10.1016/j.jmat.2015.09.001,26377,4(a),31991,Sn(1-x)MnxTe_ x=0.15,undefined,,5.1e+25,,,,0.0067689,,,0.000087815,,,,
18650,10.1016/j.jmat.2015.09.001,26377,4(a),31991,Sn(1-x)MnxTe_ x=0.15,undefined,,5.15e+25,,,,0.0067635,,,0.000087762,,,,
18650,10.1016/j.jmat.2015.09.001,26377,4(a),31991,Sn(1-x)MnxTe_ x=0.15,undefined,,5.2e+25,,,,0.0067582,,,0.000087708,,,,
18650,10.1016/j.jmat.2015.09.001,26377,4(a),31991,Sn(1-x)MnxTe_ x=0.15,undefined,,5.25e+25,,,,0.0067528,,,0.000087655,,,,
18650,10.1016/j.jmat.2015.09.001,26377,4(a),31991,Sn(1-x)MnxTe_ x=0.15,undefined,,5.3e+25,,,,0.0067474,,,0.000087602,,,,
18650,10.1016/j.jmat.2015.09.001,26377,4(a),31991,Sn(1-x)MnxTe_ x=0.15,undefined,,5.35e+25,,,,0.006742,,,0.000087549,,,,
18650,10.1016/j.jmat.2015.09.001,26377,4(a),31991,Sn(1-x)MnxTe_ x=0.15,undefined,,5.4e+25,,,,0.0067366,,,0.000087495,,,,
18650,10.1016/j.jmat.2015.09.001,26377,4(a),31991,Sn(1-x)MnxTe_ x=0.15,undefined,,5.45e+25,,,,0.0067312,,,0.000087442,,,,
18650,10.1016/j.jmat.2015.09.001,26377,4(a),31991,Sn(1-x)MnxTe_ x=0.15,undefined,,5.5e+25,,,,0.0067258,,,0.000087389,,,,
18650,10.1016/j.jmat.2015.09.001,26377,4(a),31991,Sn(1-x)MnxTe_ x=0.15,undefined,,5.55e+25,,,,0.0067204,,,0.000087336,,,,
18650,10.1016/j.jmat.2015.09.001,26377,4(a),31991,Sn(1-x)MnxTe_ x=0.15,undefined,,5.6e+25,,,,0.0067151,,,0.000087282,,,,
18650,10.1016/j.jmat.2015.09.001,26377,4(a),31991,Sn(1-x)MnxTe_ x=0.15,undefined,,5.65e+25,,,,0.0067097,,,0.000087229,,,,
18650,10.1016/j.jmat.2015.09.001,26377,4(a),31991,Sn(1-x)MnxTe_ x=0.15,undefined,,5.7e+25,,,,0.0067043,,,0.000087176,,,,
18650,10.1016/j.jmat.2015.09.001,26377,4(a),31991,Sn(1-x)MnxTe_ x=0.15,undefined,,5.75e+25,,,,0.0066989,,,0.000087123,,,,
18650,10.1016/j.jmat.2015.09.001,26377,4(a),31991,Sn(1-x)MnxTe_ x=0.15,undefined,,5.8e+25,,,,0.0066935,,,0.000087069,,,,
18650,10.1016/j.jmat.2015.09.001,26377,4(a),31991,Sn(1-x)MnxTe_ x=0.15,undefined,,5.85e+25,,,,0.0066881,,,0.000087016,,,,
18650,10.1016/j.jmat.2015.09.001,26377,4(a),31991,Sn(1-x)MnxTe_ x=0.15,undefined,,5.9e+25,,,,0.0066827,,,0.000086963,,,,
18650,10.1016/j.jmat.2015.09.001,26377,4(a),31991,Sn(1-x)MnxTe_ x=0.15,undefined,,5.95e+25,,,,0.0066773,,,0.00008691,,,,
18650,10.1016/j.jmat.2015.09.001,26377,4(a),31991,Sn(1-x)MnxTe_ x=0.15,undefined,,6e+25,,,,0.006672,,,0.000086856,,,,
18650,10.1016/j.jmat.2015.09.001,26377,4(a),31991,Sn(1-x)MnxTe_ x=0.15,undefined,,6.05e+25,,,,0.0066666,,,0.000086803,,,,
18650,10.1016/j.jmat.2015.09.001,26377,4(a),31991,Sn(1-x)MnxTe_ x=0.15,undefined,,6.1e+25,,,,0.0066612,,,0.00008675,,,,
18650,10.1016/j.jmat.2015.09.001,26377,4(a),31991,Sn(1-x)MnxTe_ x=0.15,undefined,,6.15e+25,,,,0.0066558,,,0.000086697,,,,
18650,10.1016/j.jmat.2015.09.001,26377,4(a),31991,Sn(1-x)MnxTe_ x=0.15,undefined,,6.2e+25,,,,0.0066504,,,0.000086643,,,,
18650,10.1016/j.jmat.2015.09.001,26377,4(a),31991,Sn(1-x)MnxTe_ x=0.15,undefined,,6.25e+25,,,,0.006645,,,0.00008659,,,,
18650,10.1016/j.jmat.2015.09.001,26377,4(a),31991,Sn(1-x)MnxTe_ x=0.15,undefined,,6.3e+25,,,,0.0066396,,,0.000086537,,,,
18650,10.1016/j.jmat.2015.09.001,26377,4(a),31991,Sn(1-x)MnxTe_ x=0.15,undefined,,6.35e+25,,,,0.0066342,,,0.000086484,,,,
18650,10.1016/j.jmat.2015.09.001,26377,4(a),31991,Sn(1-x)MnxTe_ x=0.15,undefined,,6.4e+25,,,,0.0066289,,,0.00008643,,,,
18650,10.1016/j.jmat.2015.09.001,26377,4(a),31991,Sn(1-x)MnxTe_ x=0.15,undefined,,6.45e+25,,,,0.0066235,,,0.000086377,,,,
18650,10.1016/j.jmat.2015.09.001,26377,4(a),31991,Sn(1-x)MnxTe_ x=0.15,undefined,,6.5e+25,,,,0.0066181,,,0.000086324,,,,
18650,10.1016/j.jmat.2015.09.001,26377,4(a),31991,Sn(1-x)MnxTe_ x=0.15,undefined,,6.55e+25,,,,0.0066127,,,0.000086271,,,,
18650,10.1016/j.jmat.2015.09.001,26377,4(a),31991,Sn(1-x)MnxTe_ x=0.15,undefined,,6.6e+25,,,,0.0066073,,,0.000086217,,,,
18650,10.1016/j.jmat.2015.09.001,26377,4(a),31991,Sn(1-x)MnxTe_ x=0.15,undefined,,6.65e+25,,,,0.0066019,,,0.000086164,,,,
18650,10.1016/j.jmat.2015.09.001,26377,4(a),31991,Sn(1-x)MnxTe_ x=0.15,undefined,,6.7e+25,,,,0.0065965,,,0.000086111,,,,
18650,10.1016/j.jmat.2015.09.001,26377,4(a),31991,Sn(1-x)MnxTe_ x=0.15,undefined,,6.75e+25,,,,0.0065911,,,0.000086058,,,,
18650,10.1016/j.jmat.2015.09.001,26377,4(a),31991,Sn(1-x)MnxTe_ x=0.15,undefined,,6.8e+25,,,,0.0065858,,,0.000086004,,,,
18650,10.1016/j.jmat.2015.09.001,26377,4(a),31991,Sn(1-x)MnxTe_ x=0.15,undefined,,6.85e+25,,,,0.0065804,,,0.000085951,,,,
18650,10.1016/j.jmat.2015.09.001,26377,4(a),31991,Sn(1-x)MnxTe_ x=0.15,undefined,,6.9e+25,,,,0.006575,,,0.000085898,,,,
18650,10.1016/j.jmat.2015.09.001,26377,4(a),31991,Sn(1-x)MnxTe_ x=0.15,undefined,,6.95e+25,,,,0.0065696,,,0.000085845,,,,
18650,10.1016/j.jmat.2015.09.001,26377,4(a),31991,Sn(1-x)MnxTe_ x=0.15,undefined,,7e+25,,,,0.0065642,,,0.000085791,,,,
18650,10.1016/j.jmat.2015.09.001,26377,4(a),31991,Sn(1-x)MnxTe_ x=0.15,undefined,,7.05e+25,,,,0.0065588,,,0.000085738,,,,
18650,10.1016/j.jmat.2015.09.001,26377,4(a),31991,Sn(1-x)MnxTe_ x=0.15,undefined,,7.1e+25,,,,0.0065534,,,0.000085685,,,,
18650,10.1016/j.jmat.2015.09.001,26377,4(a),31991,Sn(1-x)MnxTe_ x=0.15,undefined,,7.15e+25,,,,0.006548,,,0.000085632,,,,
18650,10.1016/j.jmat.2015.09.001,26377,4(a),31991,Sn(1-x)MnxTe_ x=0.15,undefined,,7.2e+25,,,,0.0065427,,,0.000085578,,,,
18650,10.1016/j.jmat.2015.09.001,26377,4(a),31991,Sn(1-x)MnxTe_ x=0.15,undefined,,7.25e+25,,,,0.0065373,,,0.000085525,,,,
18650,10.1016/j.jmat.2015.09.001,26377,4(a),31991,Sn(1-x)MnxTe_ x=0.15,undefined,,7.3e+25,,,,0.0065319,,,0.000085472,,,,
18650,10.1016/j.jmat.2015.09.001,26377,4(a),31991,Sn(1-x)MnxTe_ x=0.15,undefined,,7.35e+25,,,,0.0065265,,,0.000085419,,,,
18650,10.1016/j.jmat.2015.09.001,26377,4(a),31991,Sn(1-x)MnxTe_ x=0.15,undefined,,7.4e+25,,,,0.0065211,,,0.000085365,,,,
18650,10.1016/j.jmat.2015.09.001,26377,4(a),31991,Sn(1-x)MnxTe_ x=0.15,undefined,,7.45e+25,,,,0.0065157,,,0.000085312,,,,
18650,10.1016/j.jmat.2015.09.001,26377,4(a),31991,Sn(1-x)MnxTe_ x=0.15,undefined,,7.5e+25,,,,0.0065103,,,0.000085259,,,,
18650,10.1016/j.jmat.2015.09.001,26377,4(a),31991,Sn(1-x)MnxTe_ x=0.15,undefined,,7.55e+25,,,,0.0065049,,,0.000085206,,,,
18650,10.1016/j.jmat.2015.09.001,26377,4(a),31991,Sn(1-x)MnxTe_ x=0.15,undefined,,7.6e+25,,,,0.0064996,,,0.000085152,,,,
18650,10.1016/j.jmat.2015.09.001,26377,4(a),31991,Sn(1-x)MnxTe_ x=0.15,undefined,,7.65e+25,,,,0.0064942,,,0.000085099,,,,
18650,10.1016/j.jmat.2015.09.001,26377,4(a),31991,Sn(1-x)MnxTe_ x=0.15,undefined,,7.7e+25,,,,0.0064888,,,0.000085046,,,,
18650,10.1016/j.jmat.2015.09.001,26377,4(a),31991,Sn(1-x)MnxTe_ x=0.15,undefined,,7.75e+25,,,,0.0064834,,,0.000084993,,,,
18650,10.1016/j.jmat.2015.09.001,26377,4(a),31991,Sn(1-x)MnxTe_ x=0.15,undefined,,7.8e+25,,,,0.006478,,,0.000084939,,,,
18650,10.1016/j.jmat.2015.09.001,26377,4(a),31991,Sn(1-x)MnxTe_ x=0.15,undefined,,7.85e+25,,,,0.0064726,,,0.000084886,,,,
18650,10.1016/j.jmat.2015.09.001,26377,4(a),31991,Sn(1-x)MnxTe_ x=0.15,undefined,,7.9e+25,,,,0.0064672,,,0.000084833,,,,
18650,10.1016/j.jmat.2015.09.001,26377,4(a),31991,Sn(1-x)MnxTe_ x=0.15,undefined,,7.95e+25,,,,0.0064618,,,0.000084779,,,,
18650,10.1016/j.jmat.2015.09.001,26377,4(a),31991,Sn(1-x)MnxTe_ x=0.15,undefined,,8e+25,,,,0.0064565,,,0.000084726,,,,
18650,10.1016/j.jmat.2015.09.001,26377,4(a),31991,Sn(1-x)MnxTe_ x=0.15,undefined,,8.05e+25,,,,0.0064511,,,0.000084673,,,,
18650,10.1016/j.jmat.2015.09.001,26377,4(a),31991,Sn(1-x)MnxTe_ x=0.15,undefined,,8.1e+25,,,,0.0064457,,,0.00008462,,,,
18650,10.1016/j.jmat.2015.09.001,26377,4(a),31991,Sn(1-x)MnxTe_ x=0.15,undefined,,8.15e+25,,,,0.0064403,,,0.000084566,,,,
18650,10.1016/j.jmat.2015.09.001,26377,4(a),31991,Sn(1-x)MnxTe_ x=0.15,undefined,,8.2e+25,,,,0.0064349,,,0.000084513,,,,
18650,10.1016/j.jmat.2015.09.001,26377,4(a),31991,Sn(1-x)MnxTe_ x=0.15,undefined,,8.25e+25,,,,0.0064295,,,0.00008446,,,,
18650,10.1016/j.jmat.2015.09.001,26377,4(a),31991,Sn(1-x)MnxTe_ x=0.15,undefined,,8.3e+25,,,,0.0064241,,,0.000084407,,,,
18650,10.1016/j.jmat.2015.09.001,26377,4(a),31991,Sn(1-x)MnxTe_ x=0.15,undefined,,8.35e+25,,,,0.0064187,,,0.000084353,,,,
18650,10.1016/j.jmat.2015.09.001,26377,4(a),31991,Sn(1-x)MnxTe_ x=0.15,undefined,,8.4e+25,,,,0.0064134,,,0.0000843,,,,
18650,10.1016/j.jmat.2015.09.001,26377,4(a),31991,Sn(1-x)MnxTe_ x=0.15,undefined,,8.45e+25,,,,0.006408,,,0.000084247,,,,
18650,10.1016/j.jmat.2015.09.001,26377,4(a),31991,Sn(1-x)MnxTe_ x=0.15,undefined,,8.5e+25,,,,0.0064026,,,0.000084194,,,,
18650,10.1016/j.jmat.2015.09.001,26377,4(a),31991,Sn(1-x)MnxTe_ x=0.15,undefined,,8.55e+25,,,,0.0063972,,,0.00008414,,,,
18650,10.1016/j.jmat.2015.09.001,26377,4(a),31991,Sn(1-x)MnxTe_ x=0.15,undefined,,8.6e+25,,,,0.0063918,,,0.000084087,,,,
18650,10.1016/j.jmat.2015.09.001,26377,4(a),31991,Sn(1-x)MnxTe_ x=0.15,undefined,,8.65e+25,,,,0.0063864,,,0.000084034,,,,
18650,10.1016/j.jmat.2015.09.001,26377,4(a),31991,Sn(1-x)MnxTe_ x=0.15,undefined,,8.7e+25,,,,0.006381,,,0.000083981,,,,
18650,10.1016/j.jmat.2015.09.001,26377,4(a),31991,Sn(1-x)MnxTe_ x=0.15,undefined,,8.75e+25,,,,0.0063756,,,0.000083927,,,,
18650,10.1016/j.jmat.2015.09.001,26377,4(a),31991,Sn(1-x)MnxTe_ x=0.15,undefined,,8.8e+25,,,,0.0063703,,,0.000083874,,,,
18650,10.1016/j.jmat.2015.09.001,26377,4(a),31991,Sn(1-x)MnxTe_ x=0.15,undefined,,8.85e+25,,,,0.0063649,,,0.000083821,,,,
18650,10.1016/j.jmat.2015.09.001,26377,4(a),31991,Sn(1-x)MnxTe_ x=0.15,undefined,,8.9e+25,,,,0.0063595,,,0.000083768,,,,
18650,10.1016/j.jmat.2015.09.001,26377,4(a),31991,Sn(1-x)MnxTe_ x=0.15,undefined,,8.95e+25,,,,0.0063541,,,0.000083714,,,,
18650,10.1016/j.jmat.2015.09.001,26377,4(a),31991,Sn(1-x)MnxTe_ x=0.15,undefined,,9e+25,,,,0.0063487,,,0.000083661,,,,
18650,10.1016/j.jmat.2015.09.001,26377,4(a),31991,Sn(1-x)MnxTe_ x=0.15,undefined,,9.05e+25,,,,0.0063433,,,0.000083608,,,,
18650,10.1016/j.jmat.2015.09.001,26377,4(a),31991,Sn(1-x)MnxTe_ x=0.15,undefined,,9.1e+25,,,,0.0063379,,,0.000083555,,,,
18650,10.1016/j.jmat.2015.09.001,26377,4(a),31991,Sn(1-x)MnxTe_ x=0.15,undefined,,9.15e+25,,,,0.0063325,,,0.000083501,,,,
18650,10.1016/j.jmat.2015.09.001,26377,4(a),31991,Sn(1-x)MnxTe_ x=0.15,undefined,,9.2e+25,,,,0.0063272,,,0.000083448,,,,
18650,10.1016/j.jmat.2015.09.001,26377,4(a),31991,Sn(1-x)MnxTe_ x=0.15,undefined,,9.25e+25,,,,0.0063218,,,0.000083395,,,,
18650,10.1016/j.jmat.2015.09.001,26377,4(a),31991,Sn(1-x)MnxTe_ x=0.15,undefined,,9.3e+25,,,,0.0063164,,,0.000083342,,,,
18650,10.1016/j.jmat.2015.09.001,26377,4(a),31991,Sn(1-x)MnxTe_ x=0.15,undefined,,9.35e+25,,,,0.006311,,,0.000083288,,,,
18650,10.1016/j.jmat.2015.09.001,26377,4(a),31991,Sn(1-x)MnxTe_ x=0.15,undefined,,9.4e+25,,,,0.0063056,,,0.000083235,,,,
18650,10.1016/j.jmat.2015.09.001,26377,4(a),31991,Sn(1-x)MnxTe_ x=0.15,undefined,,9.45e+25,,,,0.0063002,,,0.000083182,,,,
18650,10.1016/j.jmat.2015.09.001,26377,4(a),31991,Sn(1-x)MnxTe_ x=0.15,undefined,,9.5e+25,,,,0.0062948,,,0.000083129,,,,
18650,10.1016/j.jmat.2015.09.001,26377,4(a),31991,Sn(1-x)MnxTe_ x=0.15,undefined,,9.55e+25,,,,0.0062894,,,0.000083075,,,,
18650,10.1016/j.jmat.2015.09.001,26377,4(a),31991,Sn(1-x)MnxTe_ x=0.15,undefined,,9.6e+25,,,,0.0062841,,,0.000083022,,,,
18650,10.1016/j.jmat.2015.09.001,26377,4(a),31991,Sn(1-x)MnxTe_ x=0.15,undefined,,9.65e+25,,,,0.0062787,,,0.000082969,,,,
18650,10.1016/j.jmat.2015.09.001,26377,4(a),31991,Sn(1-x)MnxTe_ x=0.15,undefined,,9.7e+25,,,,0.0062733,,,0.000082916,,,,
18650,10.1016/j.jmat.2015.09.001,26377,4(a),31991,Sn(1-x)MnxTe_ x=0.15,undefined,,9.75e+25,,,,0.0062679,,,0.000082862,,,,
18650,10.1016/j.jmat.2015.09.001,26377,4(a),31991,Sn(1-x)MnxTe_ x=0.15,undefined,,9.8e+25,,,,0.0062625,,,0.000082809,,,,
18650,10.1016/j.jmat.2015.09.001,26377,4(a),31991,Sn(1-x)MnxTe_ x=0.15,undefined,,9.85e+25,,,,0.0062571,,,0.000082756,,,,
18650,10.1016/j.jmat.2015.09.001,26377,4(a),31991,Sn(1-x)MnxTe_ x=0.15,undefined,,9.9e+25,,,,0.0062517,,,0.000082703,,,,
18650,10.1016/j.jmat.2015.09.001,26377,4(a),31991,Sn(1-x)MnxTe_ x=0.15,undefined,,9.95e+25,,,,0.0062463,,,0.000082649,,,,
18650,10.1016/j.jmat.2015.09.001,26377,4(a),31991,Sn(1-x)MnxTe_ x=0.15,undefined,,1e+26,,,,0.006241,,,0.000082596,,,,
18650,10.1016/j.jmat.2015.09.001,26377,4(a),31991,Sn(1-x)MnxTe_ x=0.15,undefined,,1.005e+26,,,,0.0062356,,,0.000082543,,,,
18650,10.1016/j.jmat.2015.09.001,26377,4(a),31991,Sn(1-x)MnxTe_ x=0.15,undefined,,1.01e+26,,,,0.0062302,,,0.00008249,,,,
18650,10.1016/j.jmat.2015.09.001,26377,4(a),31991,Sn(1-x)MnxTe_ x=0.15,undefined,,1.015e+26,,,,0.0062248,,,0.000082436,,,,
18650,10.1016/j.jmat.2015.09.001,26377,4(a),31991,Sn(1-x)MnxTe_ x=0.15,undefined,,1.02e+26,,,,0.0062194,,,0.000082383,,,,
18650,10.1016/j.jmat.2015.09.001,26377,4(a),31991,Sn(1-x)MnxTe_ x=0.15,undefined,,1.025e+26,,,,0.006214,,,0.00008233,,,,
18650,10.1016/j.jmat.2015.09.001,26377,4(a),31991,Sn(1-x)MnxTe_ x=0.15,undefined,,1.03e+26,,,,0.0062086,,,0.000082277,,,,
18650,10.1016/j.jmat.2015.09.001,26377,4(a),31991,Sn(1-x)MnxTe_ x=0.15,undefined,,1.035e+26,,,,0.0062032,,,0.000082223,,,,
18650,10.1016/j.jmat.2015.09.001,26377,4(a),31991,Sn(1-x)MnxTe_ x=0.15,undefined,,1.04e+26,,,,0.0061979,,,0.00008217,,,,
18650,10.1016/j.jmat.2015.09.001,26377,4(a),31991,Sn(1-x)MnxTe_ x=0.15,undefined,,1.045e+26,,,,0.0061925,,,0.000082117,,,,
18650,10.1016/j.jmat.2015.09.001,26377,4(a),31991,Sn(1-x)MnxTe_ x=0.15,undefined,,1.05e+26,,,,0.0061871,,,0.000082064,,,,
18650,10.1016/j.jmat.2015.09.001,26377,4(a),31991,Sn(1-x)MnxTe_ x=0.15,undefined,,1.055e+26,,,,0.0061817,,,0.00008201,,,,
18650,10.1016/j.jmat.2015.09.001,26377,4(a),31991,Sn(1-x)MnxTe_ x=0.15,undefined,,1.06e+26,,,,0.0061763,,,0.000081957,,,,
18650,10.1016/j.jmat.2015.09.001,26377,4(a),31991,Sn(1-x)MnxTe_ x=0.15,undefined,,1.065e+26,,,,0.0061709,,,0.000081904,,,,
18650,10.1016/j.jmat.2015.09.001,26377,4(a),31991,Sn(1-x)MnxTe_ x=0.15,undefined,,1.07e+26,,,,0.0061655,,,0.000081851,,,,
18650,10.1016/j.jmat.2015.09.001,26377,4(a),31991,Sn(1-x)MnxTe_ x=0.15,undefined,,1.075e+26,,,,0.0061601,,,0.000081797,,,,
18650,10.1016/j.jmat.2015.09.001,26377,4(a),31991,Sn(1-x)MnxTe_ x=0.15,undefined,,1.08e+26,,,,0.0061548,,,0.000081744,,,,
18650,10.1016/j.jmat.2015.09.001,26377,4(a),31991,Sn(1-x)MnxTe_ x=0.15,undefined,,1.085e+26,,,,0.0061494,,,0.000081691,,,,
18650,10.1016/j.jmat.2015.09.001,26377,4(a),31991,Sn(1-x)MnxTe_ x=0.15,undefined,,1.09e+26,,,,0.006144,,,0.000081638,,,,
18650,10.1016/j.jmat.2015.09.001,26377,4(a),31991,Sn(1-x)MnxTe_ x=0.15,undefined,,1.095e+26,,,,0.0061386,,,0.000081584,,,,
18650,10.1016/j.jmat.2015.09.001,26377,4(a),31991,Sn(1-x)MnxTe_ x=0.15,undefined,,1.1e+26,,,,0.0061332,,,0.000081531,,,,
18650,10.1016/j.jmat.2015.09.001,26377,4(a),31991,Sn(1-x)MnxTe_ x=0.15,undefined,,1.105e+26,,,,0.0061278,,,0.000081478,,,,
18650,10.1016/j.jmat.2015.09.001,26377,4(a),31991,Sn(1-x)MnxTe_ x=0.15,undefined,,1.11e+26,,,,0.0061224,,,0.000081425,,,,
18650,10.1016/j.jmat.2015.09.001,26377,4(a),31991,Sn(1-x)MnxTe_ x=0.15,undefined,,1.115e+26,,,,0.006117,,,0.000081371,,,,
18650,10.1016/j.jmat.2015.09.001,26377,4(a),31991,Sn(1-x)MnxTe_ x=0.15,undefined,,1.12e+26,,,,0.0061117,,,0.000081318,,,,
18650,10.1016/j.jmat.2015.09.001,26377,4(a),31991,Sn(1-x)MnxTe_ x=0.15,undefined,,1.125e+26,,,,0.0061063,,,0.000081265,,,,
18650,10.1016/j.jmat.2015.09.001,26377,4(a),31991,Sn(1-x)MnxTe_ x=0.15,undefined,,1.13e+26,,,,0.0061009,,,0.000081212,,,,
18650,10.1016/j.jmat.2015.09.001,26377,4(a),31991,Sn(1-x)MnxTe_ x=0.15,undefined,,1.135e+26,,,,0.0060955,,,0.000081158,,,,
18650,10.1016/j.jmat.2015.09.001,26377,4(a),31991,Sn(1-x)MnxTe_ x=0.15,undefined,,1.14e+26,,,,0.0060901,,,0.000081105,,,,
18650,10.1016/j.jmat.2015.09.001,26377,4(a),31991,Sn(1-x)MnxTe_ x=0.15,undefined,,1.145e+26,,,,0.00063038,,,0.000081052,,,,
18650,10.1016/j.jmat.2015.09.001,26377,4(a),31991,Sn(1-x)MnxTe_ x=0.15,undefined,,1.15e+26,,,,0.00063026,,,0.000080999,,,,
18650,10.1016/j.jmat.2015.09.001,26377,4(a),31991,Sn(1-x)MnxTe_ x=0.15,undefined,,1.155e+26,,,,0.00063014,,,0.000080945,,,,
18650,10.1016/j.jmat.2015.09.001,26377,4(a),31991,Sn(1-x)MnxTe_ x=0.15,undefined,,1.16e+26,,,,0.00063002,,,0.000080892,,,,
18650,10.1016/j.jmat.2015.09.001,26377,4(a),31991,Sn(1-x)MnxTe_ x=0.15,undefined,,1.165e+26,,,,0.0006299,,,0.000080839,,,,
18650,10.1016/j.jmat.2015.09.001,26377,4(a),31991,Sn(1-x)MnxTe_ x=0.15,undefined,,1.17e+26,,,,0.00062978,,,0.000080786,,,,
18650,10.1016/j.jmat.2015.09.001,26377,4(a),31991,Sn(1-x)MnxTe_ x=0.15,undefined,,1.175e+26,,,,0.00062966,,,0.000080732,,,,
18650,10.1016/j.jmat.2015.09.001,26377,4(a),31991,Sn(1-x)MnxTe_ x=0.15,undefined,,1.18e+26,,,,0.00062953,,,0.000080679,,,,
18650,10.1016/j.jmat.2015.09.001,26377,4(a),31991,Sn(1-x)MnxTe_ x=0.15,undefined,,1.185e+26,,,,0.00062941,,,0.000080626,,,,
18650,10.1016/j.jmat.2015.09.001,26377,4(a),31991,Sn(1-x)MnxTe_ x=0.15,undefined,,1.19e+26,,,,0.00062929,,,0.000080573,,,,
18650,10.1016/j.jmat.2015.09.001,26377,4(a),31991,Sn(1-x)MnxTe_ x=0.15,undefined,,1.195e+26,,,,0.00062917,,,0.000080519,,,,
18650,10.1016/j.jmat.2015.09.001,26377,4(a),31991,Sn(1-x)MnxTe_ x=0.15,undefined,,1.2e+26,,,,0.00062905,,,0.000080466,,,,
18650,10.1016/j.jmat.2015.09.001,26377,4(a),31991,Sn(1-x)MnxTe_ x=0.15,undefined,,1.205e+26,,,,0.00062893,,,0.000080413,,,,
18650,10.1016/j.jmat.2015.09.001,26377,4(a),31991,Sn(1-x)MnxTe_ x=0.15,undefined,,1.21e+26,,,,0.00062881,,,0.00008036,,,,
18650,10.1016/j.jmat.2015.09.001,26377,4(a),31991,Sn(1-x)MnxTe_ x=0.15,undefined,,1.215e+26,,,,0.00062869,,,0.000080306,,,,
18650,10.1016/j.jmat.2015.09.001,26377,4(a),31991,Sn(1-x)MnxTe_ x=0.15,undefined,,1.22e+26,,,,0.00062856,,,0.000080253,,,,
18650,10.1016/j.jmat.2015.09.001,26377,4(a),31991,Sn(1-x)MnxTe_ x=0.15,undefined,,1.225e+26,,,,0.00062844,,,0.0000802,,,,
18650,10.1016/j.jmat.2015.09.001,26377,4(a),31991,Sn(1-x)MnxTe_ x=0.15,undefined,,1.23e+26,,,,0.00062832,,,0.000080147,,,,
18650,10.1016/j.jmat.2015.09.001,26377,4(a),31991,Sn(1-x)MnxTe_ x=0.15,undefined,,1.235e+26,,,,0.0006282,,,0.000080093,,,,
18650,10.1016/j.jmat.2015.09.001,26377,4(a),31991,Sn(1-x)MnxTe_ x=0.15,undefined,,1.24e+26,,,,0.00062808,,,0.00008004,,,,