sid,DOI,figureid,fignum,sampleid,samplename,composition,Temperature,Carrier concentration,Electrical conductivity,Electrical resistivity,Hall coefficient,Hall movility,Lattice thermal conductivity,Power factor,Seebeck coefficient,Thermal conductivity,ZT,total thermal conductivity,Figure of merit Z
5919,10.1002/aelm.201600019,26381,5(a),33044,(SnTe)1−x(Cu2Te)x,undefined,,1.865e+26,,,,0.028169,,,0.000011553,,,,
5919,10.1002/aelm.201600019,26381,5(a),33044,(SnTe)1−x(Cu2Te)x,undefined,,1.87e+26,,,,0.028091,,,0.000011561,,,,
5919,10.1002/aelm.201600019,26381,5(a),33044,(SnTe)1−x(Cu2Te)x,undefined,,1.875e+26,,,,0.028013,,,0.000011569,,,,
5919,10.1002/aelm.201600019,26381,5(a),33044,(SnTe)1−x(Cu2Te)x,undefined,,1.88e+26,,,,0.027935,,,0.000011577,,,,
5919,10.1002/aelm.201600019,26381,5(a),33044,(SnTe)1−x(Cu2Te)x,undefined,,1.885e+26,,,,0.027858,,,0.000011585,,,,
5919,10.1002/aelm.201600019,26381,5(a),33044,(SnTe)1−x(Cu2Te)x,undefined,,1.89e+26,,,,0.02778,,,0.000011593,,,,
5919,10.1002/aelm.201600019,26381,5(a),33044,(SnTe)1−x(Cu2Te)x,undefined,,1.895e+26,,,,0.027702,,,0.000011602,,,,
5919,10.1002/aelm.201600019,26381,5(a),33044,(SnTe)1−x(Cu2Te)x,undefined,,1.9e+26,,,,0.027624,,,0.00001161,,,,
5919,10.1002/aelm.201600019,26381,5(a),33044,(SnTe)1−x(Cu2Te)x,undefined,,1.905e+26,,,,0.027546,,,0.000011618,,,,
5919,10.1002/aelm.201600019,26381,5(a),33044,(SnTe)1−x(Cu2Te)x,undefined,,1.91e+26,,,,0.027468,,,0.000011626,,,,
5919,10.1002/aelm.201600019,26381,5(a),33044,(SnTe)1−x(Cu2Te)x,undefined,,1.915e+26,,,,0.02739,,,0.000011634,,,,
5919,10.1002/aelm.201600019,26381,5(a),33044,(SnTe)1−x(Cu2Te)x,undefined,,1.92e+26,,,,0.027312,,,0.000011642,,,,
5919,10.1002/aelm.201600019,26381,5(a),33044,(SnTe)1−x(Cu2Te)x,undefined,,1.925e+26,,,,0.027234,,,0.00001165,,,,
5919,10.1002/aelm.201600019,26381,5(a),33044,(SnTe)1−x(Cu2Te)x,undefined,,1.93e+26,,,,0.027156,,,0.000011659,,,,
5919,10.1002/aelm.201600019,26381,5(a),33044,(SnTe)1−x(Cu2Te)x,undefined,,1.935e+26,,,,0.027078,,,0.000011667,,,,
5919,10.1002/aelm.201600019,26381,5(a),33044,(SnTe)1−x(Cu2Te)x,undefined,,1.94e+26,,,,0.027,,,0.000011675,,,,
5919,10.1002/aelm.201600019,26381,5(a),33044,(SnTe)1−x(Cu2Te)x,undefined,,1.945e+26,,,,0.026922,,,0.000011683,,,,
5919,10.1002/aelm.201600019,26381,5(a),33044,(SnTe)1−x(Cu2Te)x,undefined,,1.95e+26,,,,0.026844,,,0.000011691,,,,
5919,10.1002/aelm.201600019,26381,5(a),33044,(SnTe)1−x(Cu2Te)x,undefined,,1.955e+26,,,,0.026766,,,0.000011699,,,,
5919,10.1002/aelm.201600019,26381,5(a),33044,(SnTe)1−x(Cu2Te)x,undefined,,1.96e+26,,,,0.026688,,,0.000011708,,,,
5919,10.1002/aelm.201600019,26381,5(a),33044,(SnTe)1−x(Cu2Te)x,undefined,,1.965e+26,,,,0.026611,,,0.000011716,,,,
5919,10.1002/aelm.201600019,26381,5(a),33044,(SnTe)1−x(Cu2Te)x,undefined,,1.97e+26,,,,0.026533,,,0.000011724,,,,
5919,10.1002/aelm.201600019,26381,5(a),33044,(SnTe)1−x(Cu2Te)x,undefined,,1.975e+26,,,,0.026455,,,0.000011732,,,,
5919,10.1002/aelm.201600019,26381,5(a),33044,(SnTe)1−x(Cu2Te)x,undefined,,1.98e+26,,,,0.026377,,,0.00001174,,,,
5919,10.1002/aelm.201600019,26381,5(a),33044,(SnTe)1−x(Cu2Te)x,undefined,,1.985e+26,,,,0.026299,,,0.000011748,,,,
5919,10.1002/aelm.201600019,26381,5(a),33044,(SnTe)1−x(Cu2Te)x,undefined,,1.99e+26,,,,0.026221,,,0.000011756,,,,
5919,10.1002/aelm.201600019,26381,5(a),33044,(SnTe)1−x(Cu2Te)x,undefined,,1.995e+26,,,,0.026143,,,0.000011765,,,,
5919,10.1002/aelm.201600019,26381,5(a),33044,(SnTe)1−x(Cu2Te)x,undefined,,2e+26,,,,0.026065,,,0.000011773,,,,
5919,10.1002/aelm.201600019,26381,5(a),33044,(SnTe)1−x(Cu2Te)x,undefined,,2.005e+26,,,,0.025987,,,0.000011781,,,,
5919,10.1002/aelm.201600019,26381,5(a),33044,(SnTe)1−x(Cu2Te)x,undefined,,2.01e+26,,,,0.025909,,,0.000011789,,,,
5919,10.1002/aelm.201600019,26381,5(a),33044,(SnTe)1−x(Cu2Te)x,undefined,,2.015e+26,,,,0.025831,,,0.000011797,,,,
5919,10.1002/aelm.201600019,26381,5(a),33044,(SnTe)1−x(Cu2Te)x,undefined,,2.02e+26,,,,0.025753,,,0.000011805,,,,
5919,10.1002/aelm.201600019,26381,5(a),33044,(SnTe)1−x(Cu2Te)x,undefined,,2.025e+26,,,,0.025675,,,0.000011814,,,,
5919,10.1002/aelm.201600019,26381,5(a),33044,(SnTe)1−x(Cu2Te)x,undefined,,2.03e+26,,,,0.025597,,,0.000011822,,,,
5919,10.1002/aelm.201600019,26381,5(a),33044,(SnTe)1−x(Cu2Te)x,undefined,,2.035e+26,,,,0.025519,,,0.00001183,,,,
5919,10.1002/aelm.201600019,26381,5(a),33044,(SnTe)1−x(Cu2Te)x,undefined,,2.04e+26,,,,0.025441,,,0.000011838,,,,
5919,10.1002/aelm.201600019,26381,5(a),33044,(SnTe)1−x(Cu2Te)x,undefined,,2.045e+26,,,,0.025364,,,0.000011846,,,,
5919,10.1002/aelm.201600019,26381,5(a),33044,(SnTe)1−x(Cu2Te)x,undefined,,2.05e+26,,,,0.025286,,,0.000011854,,,,
5919,10.1002/aelm.201600019,26381,5(a),33044,(SnTe)1−x(Cu2Te)x,undefined,,2.055e+26,,,,0.025208,,,0.000011862,,,,
5919,10.1002/aelm.201600019,26381,5(a),33044,(SnTe)1−x(Cu2Te)x,undefined,,2.06e+26,,,,0.02513,,,0.000011871,,,,
5919,10.1002/aelm.201600019,26381,5(a),33044,(SnTe)1−x(Cu2Te)x,undefined,,2.065e+26,,,,0.025052,,,0.000011879,,,,
5919,10.1002/aelm.201600019,26381,5(a),33044,(SnTe)1−x(Cu2Te)x,undefined,,2.07e+26,,,,0.024974,,,0.000011887,,,,
5919,10.1002/aelm.201600019,26381,5(a),33044,(SnTe)1−x(Cu2Te)x,undefined,,2.075e+26,,,,0.024896,,,0.000011895,,,,
5919,10.1002/aelm.201600019,26381,5(a),33044,(SnTe)1−x(Cu2Te)x,undefined,,2.08e+26,,,,0.024818,,,0.000011903,,,,
5919,10.1002/aelm.201600019,26381,5(a),33044,(SnTe)1−x(Cu2Te)x,undefined,,2.085e+26,,,,0.02474,,,0.000011911,,,,
5919,10.1002/aelm.201600019,26381,5(a),33044,(SnTe)1−x(Cu2Te)x,undefined,,2.09e+26,,,,0.024662,,,0.00001192,,,,
5919,10.1002/aelm.201600019,26381,5(a),33044,(SnTe)1−x(Cu2Te)x,undefined,,2.095e+26,,,,0.024584,,,0.000011928,,,,
5919,10.1002/aelm.201600019,26381,5(a),33044,(SnTe)1−x(Cu2Te)x,undefined,,2.1e+26,,,,0.024506,,,0.000011936,,,,
5919,10.1002/aelm.201600019,26381,5(a),33044,(SnTe)1−x(Cu2Te)x,undefined,,2.105e+26,,,,0.024428,,,0.000011944,,,,
5919,10.1002/aelm.201600019,26381,5(a),33044,(SnTe)1−x(Cu2Te)x,undefined,,2.11e+26,,,,0.02435,,,0.000011952,,,,
5919,10.1002/aelm.201600019,26381,5(a),33044,(SnTe)1−x(Cu2Te)x,undefined,,2.115e+26,,,,0.024272,,,0.00001196,,,,
5919,10.1002/aelm.201600019,26381,5(a),33044,(SnTe)1−x(Cu2Te)x,undefined,,2.12e+26,,,,0.024194,,,0.000011969,,,,
5919,10.1002/aelm.201600019,26381,5(a),33044,(SnTe)1−x(Cu2Te)x,undefined,,2.125e+26,,,,0.024117,,,0.000011977,,,,
5919,10.1002/aelm.201600019,26381,5(a),33044,(SnTe)1−x(Cu2Te)x,undefined,,2.13e+26,,,,0.024039,,,0.000011985,,,,
5919,10.1002/aelm.201600019,26381,5(a),33044,(SnTe)1−x(Cu2Te)x,undefined,,2.135e+26,,,,0.023961,,,0.000011993,,,,
5919,10.1002/aelm.201600019,26381,5(a),33044,(SnTe)1−x(Cu2Te)x,undefined,,2.14e+26,,,,0.023883,,,0.000012001,,,,
5919,10.1002/aelm.201600019,26381,5(a),33044,(SnTe)1−x(Cu2Te)x,undefined,,2.145e+26,,,,0.023805,,,0.000012009,,,,
5919,10.1002/aelm.201600019,26381,5(a),33044,(SnTe)1−x(Cu2Te)x,undefined,,2.15e+26,,,,0.023727,,,0.000012017,,,,
5919,10.1002/aelm.201600019,26381,5(a),33044,(SnTe)1−x(Cu2Te)x,undefined,,2.155e+26,,,,0.023649,,,0.000012026,,,,
5919,10.1002/aelm.201600019,26381,5(a),33044,(SnTe)1−x(Cu2Te)x,undefined,,2.16e+26,,,,0.023571,,,0.000012034,,,,
5919,10.1002/aelm.201600019,26381,5(a),33044,(SnTe)1−x(Cu2Te)x,undefined,,2.165e+26,,,,0.023493,,,0.000012042,,,,
5919,10.1002/aelm.201600019,26381,5(a),33044,(SnTe)1−x(Cu2Te)x,undefined,,2.17e+26,,,,0.023415,,,0.00001205,,,,
5919,10.1002/aelm.201600019,26381,5(a),33044,(SnTe)1−x(Cu2Te)x,undefined,,2.175e+26,,,,0.023337,,,0.000012058,,,,
5919,10.1002/aelm.201600019,26381,5(a),33044,(SnTe)1−x(Cu2Te)x,undefined,,2.18e+26,,,,0.023259,,,0.000012066,,,,
5919,10.1002/aelm.201600019,26381,5(a),33044,(SnTe)1−x(Cu2Te)x,undefined,,2.185e+26,,,,0.023181,,,0.000012075,,,,
5919,10.1002/aelm.201600019,26381,5(a),33044,(SnTe)1−x(Cu2Te)x,undefined,,2.19e+26,,,,0.023103,,,0.000012083,,,,
5919,10.1002/aelm.201600019,26381,5(a),33044,(SnTe)1−x(Cu2Te)x,undefined,,2.195e+26,,,,0.023025,,,0.000012091,,,,
5919,10.1002/aelm.201600019,26381,5(a),33044,(SnTe)1−x(Cu2Te)x,undefined,,2.2e+26,,,,0.022948,,,0.000012099,,,,
5919,10.1002/aelm.201600019,26381,5(a),33044,(SnTe)1−x(Cu2Te)x,undefined,,2.205e+26,,,,0.02287,,,0.000012107,,,,
5919,10.1002/aelm.201600019,26381,5(a),33044,(SnTe)1−x(Cu2Te)x,undefined,,2.21e+26,,,,0.022792,,,0.000012115,,,,
5919,10.1002/aelm.201600019,26381,5(a),33044,(SnTe)1−x(Cu2Te)x,undefined,,2.215e+26,,,,0.022714,,,0.000012123,,,,
5919,10.1002/aelm.201600019,26381,5(a),33044,(SnTe)1−x(Cu2Te)x,undefined,,2.22e+26,,,,0.022636,,,0.000012132,,,,
5919,10.1002/aelm.201600019,26381,5(a),33044,(SnTe)1−x(Cu2Te)x,undefined,,2.225e+26,,,,0.022558,,,0.00001214,,,,
5919,10.1002/aelm.201600019,26381,5(a),33044,(SnTe)1−x(Cu2Te)x,undefined,,2.23e+26,,,,0.02248,,,0.000012148,,,,
5919,10.1002/aelm.201600019,26381,5(a),33044,(SnTe)1−x(Cu2Te)x,undefined,,2.235e+26,,,,0.022402,,,0.000012156,,,,
5919,10.1002/aelm.201600019,26381,5(a),33044,(SnTe)1−x(Cu2Te)x,undefined,,2.24e+26,,,,0.022324,,,0.000012164,,,,
5919,10.1002/aelm.201600019,26381,5(a),33044,(SnTe)1−x(Cu2Te)x,undefined,,2.245e+26,,,,0.022246,,,0.000012172,,,,
5919,10.1002/aelm.201600019,26381,5(a),33044,(SnTe)1−x(Cu2Te)x,undefined,,2.25e+26,,,,0.022168,,,0.000012181,,,,
5919,10.1002/aelm.201600019,26381,5(a),33044,(SnTe)1−x(Cu2Te)x,undefined,,2.255e+26,,,,0.02209,,,0.000012189,,,,
5919,10.1002/aelm.201600019,26381,5(a),33044,(SnTe)1−x(Cu2Te)x,undefined,,2.26e+26,,,,0.022012,,,0.000012197,,,,
5919,10.1002/aelm.201600019,26381,5(a),33044,(SnTe)1−x(Cu2Te)x,undefined,,2.265e+26,,,,0.021934,,,0.000012205,,,,
5919,10.1002/aelm.201600019,26381,5(a),33044,(SnTe)1−x(Cu2Te)x,undefined,,2.27e+26,,,,0.021856,,,0.000012213,,,,
5919,10.1002/aelm.201600019,26381,5(a),33044,(SnTe)1−x(Cu2Te)x,undefined,,2.275e+26,,,,0.021778,,,0.000012221,,,,
5919,10.1002/aelm.201600019,26381,5(a),33044,(SnTe)1−x(Cu2Te)x,undefined,,2.28e+26,,,,0.021701,,,0.000012229,,,,
5919,10.1002/aelm.201600019,26381,5(a),33044,(SnTe)1−x(Cu2Te)x,undefined,,2.285e+26,,,,0.021623,,,0.000012238,,,,
5919,10.1002/aelm.201600019,26381,5(a),33044,(SnTe)1−x(Cu2Te)x,undefined,,2.29e+26,,,,0.021545,,,0.000012246,,,,
5919,10.1002/aelm.201600019,26381,5(a),33044,(SnTe)1−x(Cu2Te)x,undefined,,2.295e+26,,,,0.021467,,,0.000012254,,,,
5919,10.1002/aelm.201600019,26381,5(a),33044,(SnTe)1−x(Cu2Te)x,undefined,,2.3e+26,,,,0.021389,,,0.000012262,,,,
5919,10.1002/aelm.201600019,26381,5(a),33044,(SnTe)1−x(Cu2Te)x,undefined,,2.305e+26,,,,0.021311,,,0.00001227,,,,
5919,10.1002/aelm.201600019,26381,5(a),33044,(SnTe)1−x(Cu2Te)x,undefined,,2.31e+26,,,,0.021233,,,0.000012278,,,,
5919,10.1002/aelm.201600019,26381,5(a),33044,(SnTe)1−x(Cu2Te)x,undefined,,2.315e+26,,,,0.021155,,,0.000012287,,,,
5919,10.1002/aelm.201600019,26381,5(a),33044,(SnTe)1−x(Cu2Te)x,undefined,,2.32e+26,,,,0.021077,,,0.000012295,,,,
5919,10.1002/aelm.201600019,26381,5(a),33044,(SnTe)1−x(Cu2Te)x,undefined,,2.325e+26,,,,0.020999,,,0.000012303,,,,
5919,10.1002/aelm.201600019,26381,5(a),33044,(SnTe)1−x(Cu2Te)x,undefined,,2.33e+26,,,,0.020921,,,0.000012311,,,,
5919,10.1002/aelm.201600019,26381,5(a),33044,(SnTe)1−x(Cu2Te)x,undefined,,2.335e+26,,,,0.020843,,,0.000012319,,,,
5919,10.1002/aelm.201600019,26381,5(a),33044,(SnTe)1−x(Cu2Te)x,undefined,,2.34e+26,,,,0.020765,,,0.000012327,,,,
5919,10.1002/aelm.201600019,26381,5(a),33044,(SnTe)1−x(Cu2Te)x,undefined,,2.345e+26,,,,0.020687,,,0.000012336,,,,
5919,10.1002/aelm.201600019,26381,5(a),33044,(SnTe)1−x(Cu2Te)x,undefined,,2.35e+26,,,,0.020609,,,0.000012344,,,,
5919,10.1002/aelm.201600019,26381,5(a),33044,(SnTe)1−x(Cu2Te)x,undefined,,2.355e+26,,,,0.020531,,,0.000012352,,,,
5919,10.1002/aelm.201600019,26381,5(a),33044,(SnTe)1−x(Cu2Te)x,undefined,,2.36e+26,,,,0.020454,,,0.00001236,,,,
5919,10.1002/aelm.201600019,26381,5(a),33044,(SnTe)1−x(Cu2Te)x,undefined,,2.365e+26,,,,0.020376,,,0.000012368,,,,
5919,10.1002/aelm.201600019,26381,5(a),33044,(SnTe)1−x(Cu2Te)x,undefined,,2.37e+26,,,,0.020298,,,0.000012376,,,,
5919,10.1002/aelm.201600019,26381,5(a),33044,(SnTe)1−x(Cu2Te)x,undefined,,2.375e+26,,,,0.02022,,,0.000012384,,,,
5919,10.1002/aelm.201600019,26381,5(a),33044,(SnTe)1−x(Cu2Te)x,undefined,,2.38e+26,,,,0.020142,,,0.000012393,,,,
5919,10.1002/aelm.201600019,26381,5(a),33044,(SnTe)1−x(Cu2Te)x,undefined,,2.385e+26,,,,0.020064,,,0.000012401,,,,
5919,10.1002/aelm.201600019,26381,5(a),33044,(SnTe)1−x(Cu2Te)x,undefined,,2.39e+26,,,,0.019986,,,0.000012409,,,,
5919,10.1002/aelm.201600019,26381,5(a),33044,(SnTe)1−x(Cu2Te)x,undefined,,2.395e+26,,,,0.019908,,,0.000012417,,,,
5919,10.1002/aelm.201600019,26381,5(a),33044,(SnTe)1−x(Cu2Te)x,undefined,,2.4e+26,,,,0.01983,,,0.000012425,,,,
5919,10.1002/aelm.201600019,26381,5(a),33044,(SnTe)1−x(Cu2Te)x,undefined,,2.405e+26,,,,0.019752,,,0.000012433,,,,
5919,10.1002/aelm.201600019,26381,5(a),33044,(SnTe)1−x(Cu2Te)x,undefined,,2.41e+26,,,,0.019674,,,0.000012442,,,,
5919,10.1002/aelm.201600019,26381,5(a),33044,(SnTe)1−x(Cu2Te)x,undefined,,2.415e+26,,,,0.019596,,,0.00001245,,,,
5919,10.1002/aelm.201600019,26381,5(a),33044,(SnTe)1−x(Cu2Te)x,undefined,,2.42e+26,,,,0.019518,,,0.000012458,,,,
5919,10.1002/aelm.201600019,26381,5(a),33044,(SnTe)1−x(Cu2Te)x,undefined,,2.425e+26,,,,0.01944,,,0.000012466,,,,
5919,10.1002/aelm.201600019,26381,5(a),33044,(SnTe)1−x(Cu2Te)x,undefined,,2.43e+26,,,,0.019362,,,0.000012474,,,,
5919,10.1002/aelm.201600019,26381,5(a),33044,(SnTe)1−x(Cu2Te)x,undefined,,2.435e+26,,,,0.019284,,,0.000012482,,,,
5919,10.1002/aelm.201600019,26381,5(a),33044,(SnTe)1−x(Cu2Te)x,undefined,,2.44e+26,,,,0.019207,,,0.00001249,,,,
5919,10.1002/aelm.201600019,26381,5(a),33044,(SnTe)1−x(Cu2Te)x,undefined,,2.445e+26,,,,0.019129,,,0.000012499,,,,
5919,10.1002/aelm.201600019,26381,5(a),33044,(SnTe)1−x(Cu2Te)x,undefined,,2.45e+26,,,,0.019051,,,0.000012507,,,,
5919,10.1002/aelm.201600019,26381,5(a),33044,(SnTe)1−x(Cu2Te)x,undefined,,2.455e+26,,,,0.018973,,,0.000012515,,,,
5919,10.1002/aelm.201600019,26381,5(a),33044,(SnTe)1−x(Cu2Te)x,undefined,,2.46e+26,,,,0.018895,,,0.000012523,,,,
5919,10.1002/aelm.201600019,26381,5(a),33044,(SnTe)1−x(Cu2Te)x,undefined,,2.465e+26,,,,0.018817,,,0.000012531,,,,
5919,10.1002/aelm.201600019,26381,5(a),33044,(SnTe)1−x(Cu2Te)x,undefined,,2.47e+26,,,,0.018739,,,0.000012539,,,,
5919,10.1002/aelm.201600019,26381,5(a),33044,(SnTe)1−x(Cu2Te)x,undefined,,2.475e+26,,,,0.018661,,,0.000012548,,,,
5919,10.1002/aelm.201600019,26381,5(a),33044,(SnTe)1−x(Cu2Te)x,undefined,,2.48e+26,,,,0.018583,,,0.000012556,,,,
5919,10.1002/aelm.201600019,26381,5(a),33044,(SnTe)1−x(Cu2Te)x,undefined,,2.485e+26,,,,0.018505,,,0.000012564,,,,
5919,10.1002/aelm.201600019,26381,5(a),33044,(SnTe)1−x(Cu2Te)x,undefined,,2.49e+26,,,,0.018427,,,0.000012572,,,,
5919,10.1002/aelm.201600019,26381,5(a),33044,(SnTe)1−x(Cu2Te)x,undefined,,2.495e+26,,,,0.018349,,,0.00001258,,,,
5919,10.1002/aelm.201600019,26381,5(a),33044,(SnTe)1−x(Cu2Te)x,undefined,,2.5e+26,,,,0.018271,,,0.000012588,,,,
5919,10.1002/aelm.201600019,26381,5(a),33044,(SnTe)1−x(Cu2Te)x,undefined,,2.505e+26,,,,0.018193,,,0.000012596,,,,
5919,10.1002/aelm.201600019,26381,5(a),33044,(SnTe)1−x(Cu2Te)x,undefined,,2.51e+26,,,,0.018115,,,0.000012605,,,,
5919,10.1002/aelm.201600019,26381,5(a),33044,(SnTe)1−x(Cu2Te)x,undefined,,2.515e+26,,,,0.018038,,,0.000012613,,,,
5919,10.1002/aelm.201600019,26381,5(a),33044,(SnTe)1−x(Cu2Te)x,undefined,,2.52e+26,,,,0.01796,,,0.000012621,,,,
5919,10.1002/aelm.201600019,26381,5(a),33044,(SnTe)1−x(Cu2Te)x,undefined,,2.525e+26,,,,0.017882,,,0.000012629,,,,
5919,10.1002/aelm.201600019,26381,5(a),33044,(SnTe)1−x(Cu2Te)x,undefined,,2.53e+26,,,,0.017804,,,0.000012637,,,,
5919,10.1002/aelm.201600019,26381,5(a),33044,(SnTe)1−x(Cu2Te)x,undefined,,2.535e+26,,,,0.017726,,,0.000012645,,,,
5919,10.1002/aelm.201600019,26381,5(a),33044,(SnTe)1−x(Cu2Te)x,undefined,,2.54e+26,,,,0.017648,,,0.000012654,,,,
5919,10.1002/aelm.201600019,26381,5(a),33044,(SnTe)1−x(Cu2Te)x,undefined,,2.545e+26,,,,0.01757,,,0.000012662,,,,
5919,10.1002/aelm.201600019,26381,5(a),33044,(SnTe)1−x(Cu2Te)x,undefined,,2.55e+26,,,,0.017492,,,0.00001267,,,,
5919,10.1002/aelm.201600019,26381,5(a),33044,(SnTe)1−x(Cu2Te)x,undefined,,2.555e+26,,,,0.017414,,,0.000012678,,,,
5919,10.1002/aelm.201600019,26381,5(a),33044,(SnTe)1−x(Cu2Te)x,undefined,,2.56e+26,,,,0.017336,,,0.000012686,,,,
5919,10.1002/aelm.201600019,26381,5(a),33044,(SnTe)1−x(Cu2Te)x,undefined,,2.565e+26,,,,0.017258,,,0.000012694,,,,
5919,10.1002/aelm.201600019,26381,5(a),33044,(SnTe)1−x(Cu2Te)x,undefined,,2.57e+26,,,,0.01718,,,0.000012703,,,,
5919,10.1002/aelm.201600019,26381,5(a),33044,(SnTe)1−x(Cu2Te)x,undefined,,2.575e+26,,,,0.017102,,,0.000012711,,,,
5919,10.1002/aelm.201600019,26381,5(a),33044,(SnTe)1−x(Cu2Te)x,undefined,,2.58e+26,,,,0.017024,,,0.000012719,,,,
5919,10.1002/aelm.201600019,26381,5(a),33044,(SnTe)1−x(Cu2Te)x,undefined,,2.585e+26,,,,0.016946,,,0.000012727,,,,
5919,10.1002/aelm.201600019,26381,5(a),33044,(SnTe)1−x(Cu2Te)x,undefined,,2.59e+26,,,,0.016868,,,0.000012735,,,,
5919,10.1002/aelm.201600019,26381,5(a),33044,(SnTe)1−x(Cu2Te)x,undefined,,2.595e+26,,,,0.016791,,,0.000012743,,,,
5919,10.1002/aelm.201600019,26381,5(a),33044,(SnTe)1−x(Cu2Te)x,undefined,,2.6e+26,,,,0.016713,,,0.000012751,,,,
5919,10.1002/aelm.201600019,26381,5(a),33044,(SnTe)1−x(Cu2Te)x,undefined,,2.605e+26,,,,0.016635,,,0.00001276,,,,
5919,10.1002/aelm.201600019,26381,5(a),33044,(SnTe)1−x(Cu2Te)x,undefined,,2.61e+26,,,,0.016557,,,0.000012768,,,,
5919,10.1002/aelm.201600019,26381,5(a),33044,(SnTe)1−x(Cu2Te)x,undefined,,2.615e+26,,,,0.016479,,,0.000012776,,,,
5919,10.1002/aelm.201600019,26381,5(a),33044,(SnTe)1−x(Cu2Te)x,undefined,,2.62e+26,,,,0.016401,,,0.000012784,,,,
5919,10.1002/aelm.201600019,26381,5(a),33044,(SnTe)1−x(Cu2Te)x,undefined,,2.625e+26,,,,0.016323,,,0.000012792,,,,
5919,10.1002/aelm.201600019,26381,5(a),33044,(SnTe)1−x(Cu2Te)x,undefined,,2.63e+26,,,,0.016245,,,0.0000128,,,,
5919,10.1002/aelm.201600019,26381,5(a),33044,(SnTe)1−x(Cu2Te)x,undefined,,2.635e+26,,,,0.016167,,,0.000012809,,,,
5919,10.1002/aelm.201600019,26381,5(a),33044,(SnTe)1−x(Cu2Te)x,undefined,,2.64e+26,,,,0.016089,,,0.000012817,,,,
5919,10.1002/aelm.201600019,26381,5(a),33044,(SnTe)1−x(Cu2Te)x,undefined,,2.645e+26,,,,0.016011,,,0.000012825,,,,
5919,10.1002/aelm.201600019,26381,5(a),33044,(SnTe)1−x(Cu2Te)x,undefined,,2.65e+26,,,,0.015933,,,0.000012833,,,,
5919,10.1002/aelm.201600019,26381,5(a),33044,(SnTe)1−x(Cu2Te)x,undefined,,2.655e+26,,,,0.015855,,,0.000012841,,,,
5919,10.1002/aelm.201600019,26381,5(a),33044,(SnTe)1−x(Cu2Te)x,undefined,,2.66e+26,,,,0.015777,,,0.000012849,,,,
5919,10.1002/aelm.201600019,26381,5(a),33044,(SnTe)1−x(Cu2Te)x,undefined,,2.665e+26,,,,0.015699,,,0.000012857,,,,
5919,10.1002/aelm.201600019,26381,5(a),33044,(SnTe)1−x(Cu2Te)x,undefined,,2.67e+26,,,,0.015621,,,0.000012866,,,,
5919,10.1002/aelm.201600019,26381,5(a),33044,(SnTe)1−x(Cu2Te)x,undefined,,2.675e+26,,,,0.015544,,,0.000012874,,,,
5919,10.1002/aelm.201600019,26381,5(a),33044,(SnTe)1−x(Cu2Te)x,undefined,,2.68e+26,,,,0.015466,,,0.000012882,,,,
5919,10.1002/aelm.201600019,26381,5(a),33044,(SnTe)1−x(Cu2Te)x,undefined,,2.685e+26,,,,0.015388,,,0.00001289,,,,
5919,10.1002/aelm.201600019,26381,5(a),33044,(SnTe)1−x(Cu2Te)x,undefined,,2.69e+26,,,,0.01531,,,0.000012898,,,,
5919,10.1002/aelm.201600019,26381,5(a),33044,(SnTe)1−x(Cu2Te)x,undefined,,2.695e+26,,,,0.015232,,,0.000012906,,,,
5919,10.1002/aelm.201600019,26381,5(a),33044,(SnTe)1−x(Cu2Te)x,undefined,,2.7e+26,,,,0.015154,,,0.000012915,,,,
5919,10.1002/aelm.201600019,26381,5(a),33044,(SnTe)1−x(Cu2Te)x,undefined,,2.705e+26,,,,0.015076,,,0.000012923,,,,
5919,10.1002/aelm.201600019,26381,5(a),33044,(SnTe)1−x(Cu2Te)x,undefined,,2.71e+26,,,,0.014998,,,0.000012931,,,,
5919,10.1002/aelm.201600019,26381,5(a),33044,(SnTe)1−x(Cu2Te)x,undefined,,2.715e+26,,,,0.01492,,,0.000012939,,,,
5919,10.1002/aelm.201600019,26381,5(a),33044,(SnTe)1−x(Cu2Te)x,undefined,,2.72e+26,,,,0.014842,,,0.000012947,,,,
5919,10.1002/aelm.201600019,26381,5(a),33044,(SnTe)1−x(Cu2Te)x,undefined,,2.725e+26,,,,0.014764,,,0.000012955,,,,
5919,10.1002/aelm.201600019,26381,5(a),33044,(SnTe)1−x(Cu2Te)x,undefined,,2.73e+26,,,,0.014686,,,0.000012963,,,,