sid,DOI,figureid,fignum,sampleid,samplename,composition,Temperature,Carrier concentration,Electrical conductivity,Electrical resistivity,Hall coefficient,Hall movility,Lattice thermal conductivity,Power factor,Seebeck coefficient,Thermal conductivity,ZT,total thermal conductivity,Figure of merit Z
18603,10.1002/adma.201605887,1961,1(b),2943,Yb14Mn0.2Al0.8Sb11,Yb14Mn0.2Al0.8Sb11,500,,,,,,,,,,0.32984,,
18603,10.1002/adma.201605887,1961,1(b),2943,Yb14Mn0.2Al0.8Sb11,Yb14Mn0.2Al0.8Sb11,550,,,,,,,,,,0.39108,,
18603,10.1002/adma.201605887,1961,1(b),2943,Yb14Mn0.2Al0.8Sb11,Yb14Mn0.2Al0.8Sb11,600,,,,,,,,,,0.46103,,
18603,10.1002/adma.201605887,1961,1(b),2943,Yb14Mn0.2Al0.8Sb11,Yb14Mn0.2Al0.8Sb11,650,,,,,,,,,,0.53884,,
18603,10.1002/adma.201605887,1961,1(b),2943,Yb14Mn0.2Al0.8Sb11,Yb14Mn0.2Al0.8Sb11,700,,,,,,,,,,0.6228,,
18603,10.1002/adma.201605887,1961,1(b),2943,Yb14Mn0.2Al0.8Sb11,Yb14Mn0.2Al0.8Sb11,750,,,,,,,,,,0.71063,,
18603,10.1002/adma.201605887,1961,1(b),2943,Yb14Mn0.2Al0.8Sb11,Yb14Mn0.2Al0.8Sb11,800,,,,,,,,,,0.79963,,
18603,10.1002/adma.201605887,1961,1(b),2943,Yb14Mn0.2Al0.8Sb11,Yb14Mn0.2Al0.8Sb11,850,,,,,,,,,,0.88699,,
18603,10.1002/adma.201605887,1961,1(b),2943,Yb14Mn0.2Al0.8Sb11,Yb14Mn0.2Al0.8Sb11,900,,,,,,,,,,0.96994,,
18603,10.1002/adma.201605887,1961,1(b),2943,Yb14Mn0.2Al0.8Sb11,Yb14Mn0.2Al0.8Sb11,950,,,,,,,,,,1.046,,
18603,10.1002/adma.201605887,1961,1(b),2943,Yb14Mn0.2Al0.8Sb11,Yb14Mn0.2Al0.8Sb11,1000,,,,,,,,,,1.1133,,
18603,10.1002/adma.201605887,1961,1(b),2943,Yb14Mn0.2Al0.8Sb11,Yb14Mn0.2Al0.8Sb11,1050,,,,,,,,,,1.1705,,
18603,10.1002/adma.201605887,1961,1(b),2943,Yb14Mn0.2Al0.8Sb11,Yb14Mn0.2Al0.8Sb11,1100,,,,,,,,,,1.2175,,
18603,10.1002/adma.201605887,1961,1(b),2943,Yb14Mn0.2Al0.8Sb11,Yb14Mn0.2Al0.8Sb11,1150,,,,,,,,,,1.2552,,
18603,10.1002/adma.201605887,1961,1(b),2943,Yb14Mn0.2Al0.8Sb11,Yb14Mn0.2Al0.8Sb11,1200,,,,,,,,,,1.286,,
18603,10.1002/adma.201605887,1961,1(b),2943,Yb14Mn0.2Al0.8Sb11,Yb14Mn0.2Al0.8Sb11,1250,,,,,,,,,,1.3139,,
18603,10.1002/adma.201605887,1962,6(a),2944,x=0,Sn0.86Mn0.14Te(Cu2Te)0,350,,135590,0.0000073754,,,,0.00065656,0.000069586,,0.076755,,
18603,10.1002/adma.201605887,1962,6(a),2944,x=0,Sn0.86Mn0.14Te(Cu2Te)0,400,,115000,0.000008696,,,,0.00081546,0.000084208,,0.1191,,
18603,10.1002/adma.201605887,1962,6(a),2944,x=0,Sn0.86Mn0.14Te(Cu2Te)0,450,,95685,0.000010451,,,,0.00096971,0.00010067,,0.17586,,
18603,10.1002/adma.201605887,1962,6(a),2944,x=0,Sn0.86Mn0.14Te(Cu2Te)0,500,,78976,0.000012662,,,,0.0010987,0.00011795,,0.244,,
18603,10.1002/adma.201605887,1962,6(a),2944,x=0,Sn0.86Mn0.14Te(Cu2Te)0,550,,64998,0.000015385,,,,0.0011981,0.00013577,,0.32367,,
18603,10.1002/adma.201605887,1962,6(a),2944,x=0,Sn0.86Mn0.14Te(Cu2Te)0,600,,53631,0.000018646,,,,0.0012752,0.0001542,,0.4165,,
18603,10.1002/adma.201605887,1962,6(a),2944,x=0,Sn0.86Mn0.14Te(Cu2Te)0,650,,44697,0.000022373,,,,0.0013404,0.00017317,,0.52394,,
18603,10.1002/adma.201605887,1962,6(a),2944,x=0,Sn0.86Mn0.14Te(Cu2Te)0,700,,37972,0.000026335,,,,0.0013995,0.00019198,,0.64552,,
18603,10.1002/adma.201605887,1962,6(a),2944,x=0,Sn0.86Mn0.14Te(Cu2Te)0,750,,33250,0.000030075,,,,0.0014511,0.00020891,,0.77717,,
18603,10.1002/adma.201605887,1962,6(a),2944,x=0,Sn0.86Mn0.14Te(Cu2Te)0,800,,30451,0.00003284,,,,0.0014832,0.0002207,,0.90955,,
18603,10.1002/adma.201605887,1962,6(a),2944,x=0,Sn0.86Mn0.14Te(Cu2Te)0,850,,29828,0.000033525,,,,0.0014718,0.00022213,,1.0263,,
18603,10.1002/adma.201605887,1962,6(a),2945,x=0.01,Sn0.86Mn0.14Te(Cu2Te)0.01,350,,306130,0.0000032666,,,,0.0010042,0.000057273,,0.084718,,
18603,10.1002/adma.201605887,1962,6(a),2945,x=0.01,Sn0.86Mn0.14Te(Cu2Te)0.01,400,,268010,0.0000037312,,,,0.0010816,0.000063528,,0.11168,,
18603,10.1002/adma.201605887,1962,6(a),2945,x=0.01,Sn0.86Mn0.14Te(Cu2Te)0.01,450,,235050,0.0000042544,,,,0.0012361,0.000072519,,0.1467,,
18603,10.1002/adma.201605887,1962,6(a),2945,x=0.01,Sn0.86Mn0.14Te(Cu2Te)0.01,500,,206830,0.000004835,,,,0.001381,0.000081712,,0.1854,,
18603,10.1002/adma.201605887,1962,6(a),2945,x=0.01,Sn0.86Mn0.14Te(Cu2Te)0.01,550,,180890,0.0000055281,,,,0.0014764,0.000090342,,0.22806,,
18603,10.1002/adma.201605887,1962,6(a),2945,x=0.01,Sn0.86Mn0.14Te(Cu2Te)0.01,600,,155830,0.0000064172,,,,0.0015212,0.000098804,,0.27765,,
18603,10.1002/adma.201605887,1962,6(a),2945,x=0.01,Sn0.86Mn0.14Te(Cu2Te)0.01,650,,131820,0.0000075861,,,,0.001539,0.00010805,,0.33795,,
18603,10.1002/adma.201605887,1962,6(a),2945,x=0.01,Sn0.86Mn0.14Te(Cu2Te)0.01,700,,110000,0.0000090913,,,,0.0015572,0.00011898,,0.41164,,
18603,10.1002/adma.201605887,1962,6(a),2945,x=0.01,Sn0.86Mn0.14Te(Cu2Te)0.01,750,,91458,0.000010934,,,,0.0015897,0.00013184,,0.49838,,
18603,10.1002/adma.201605887,1962,6(a),2945,x=0.01,Sn0.86Mn0.14Te(Cu2Te)0.01,800,,76734,0.000013032,,,,0.0016272,0.00014562,,0.59291,,
18603,10.1002/adma.201605887,1962,6(a),2945,x=0.01,Sn0.86Mn0.14Te(Cu2Te)0.01,850,,65828,0.000015191,,,,0.0016319,0.00015745,,,,
18603,10.1002/adma.201605887,1962,6(a),2947,x=0.04,Sn0.86Mn0.14Te(Cu2Te)0.04,350,,284730,0.0000035121,,,,0.00072579,0.000050488,,0.065536,,
18603,10.1002/adma.201605887,1962,6(a),2947,x=0.04,Sn0.86Mn0.14Te(Cu2Te)0.04,400,,256980,0.0000038913,,,,0.0008039,0.000055931,,0.081101,,
18603,10.1002/adma.201605887,1962,6(a),2947,x=0.04,Sn0.86Mn0.14Te(Cu2Te)0.04,450,,229160,0.0000043638,,,,0.0009023,0.000062749,,0.10711,,
18603,10.1002/adma.201605887,1962,6(a),2947,x=0.04,Sn0.86Mn0.14Te(Cu2Te)0.04,500,,201460,0.0000049637,,,,0.0010177,0.000071075,,0.14517,,
18603,10.1002/adma.201605887,1962,6(a),2947,x=0.04,Sn0.86Mn0.14Te(Cu2Te)0.04,550,,174560,0.0000057288,,,,0.001141,0.000080848,,0.19644,,
18603,10.1002/adma.201605887,1962,6(a),2947,x=0.04,Sn0.86Mn0.14Te(Cu2Te)0.04,600,,149220,0.0000067013,,,,0.00126,0.000091892,,0.26183,,
18603,10.1002/adma.201605887,1962,6(a),2947,x=0.04,Sn0.86Mn0.14Te(Cu2Te)0.04,650,,126130,0.0000079286,,,,0.001364,0.00010399,,0.34226,,
18603,10.1002/adma.201605887,1962,6(a),2947,x=0.04,Sn0.86Mn0.14Te(Cu2Te)0.04,700,,105660,0.0000094645,,,,0.0014456,0.00011697,,0.43894,,
18603,10.1002/adma.201605887,1962,6(a),2947,x=0.04,Sn0.86Mn0.14Te(Cu2Te)0.04,750,,87951,0.00001137,,,,0.0015033,0.00013074,,0.55359,,
18603,10.1002/adma.201605887,1962,6(a),2947,x=0.04,Sn0.86Mn0.14Te(Cu2Te)0.04,800,,72924,0.000013713,,,,0.0015421,0.00014542,,0.68871,,
18603,10.1002/adma.201605887,1962,6(a),2947,x=0.04,Sn0.86Mn0.14Te(Cu2Te)0.04,850,,60346,0.000016571,,,,0.0015718,0.00016139,,0.84778,,
18603,10.1002/adma.201605887,1962,6(a),2948,x=0.05,Sn0.86Mn0.14Te(Cu2Te)0.05,350,,321150,0.0000031138,,,,0.00059342,0.000042986,,0.067881,,
18603,10.1002/adma.201605887,1962,6(a),2948,x=0.05,Sn0.86Mn0.14Te(Cu2Te)0.05,400,,278130,0.0000035954,,,,0.00070392,0.000050308,,0.10553,,
18603,10.1002/adma.201605887,1962,6(a),2948,x=0.05,Sn0.86Mn0.14Te(Cu2Te)0.05,450,,237520,0.0000042102,,,,0.00084685,0.000059711,,0.16153,,
18603,10.1002/adma.201605887,1962,6(a),2948,x=0.05,Sn0.86Mn0.14Te(Cu2Te)0.05,500,,204960,0.0000048789,,,,0.00099557,0.000069695,,0.2297,,
18603,10.1002/adma.201605887,1962,6(a),2948,x=0.05,Sn0.86Mn0.14Te(Cu2Te)0.05,550,,177300,0.00000564,,,,0.0011359,0.000080042,,0.30981,,
18603,10.1002/adma.201605887,1962,6(a),2948,x=0.05,Sn0.86Mn0.14Te(Cu2Te)0.05,600,,151330,0.0000066081,,,,0.0012622,0.000091327,,0.40508,,
18603,10.1002/adma.201605887,1962,6(a),2948,x=0.05,Sn0.86Mn0.14Te(Cu2Te)0.05,650,,126040,0.0000079338,,,,0.0013748,0.00010444,,0.51959,,
18603,10.1002/adma.201605887,1962,6(a),2948,x=0.05,Sn0.86Mn0.14Te(Cu2Te)0.05,700,,102430,0.0000097623,,,,0.0014767,0.00012007,,0.6558,,
18603,10.1002/adma.201605887,1962,6(a),2948,x=0.05,Sn0.86Mn0.14Te(Cu2Te)0.05,750,,82021,0.000012192,,,,0.0015681,0.00013827,,0.81197,,
18603,10.1002/adma.201605887,1962,6(a),2948,x=0.05,Sn0.86Mn0.14Te(Cu2Te)0.05,800,,65638,0.000015235,,,,0.0016365,0.0001579,,0.97964,,
18603,10.1002/adma.201605887,1962,6(a),2948,x=0.05,Sn0.86Mn0.14Te(Cu2Te)0.05,850,,53262,0.000018775,,,,0.001654,0.00017622,,1.1411,,
18603,10.1002/adma.201605887,1962,6(a),2949,x=0.05_3%Sneccess,Sn0.89Mn0.14Te(Cu2Te)0.05,350,,179910,0.0000055583,,,,0.00037938,0.000045921,,0.038352,,
18603,10.1002/adma.201605887,1962,6(a),2949,x=0.05_3%Sneccess,Sn0.89Mn0.14Te(Cu2Te)0.05,400,,150700,0.0000066357,,,,0.00054068,0.000059898,,0.084033,,
18603,10.1002/adma.201605887,1962,6(a),2949,x=0.05_3%Sneccess,Sn0.89Mn0.14Te(Cu2Te)0.05,450,,125520,0.000007967,,,,0.00072222,0.000075854,,0.14658,,
18603,10.1002/adma.201605887,1962,6(a),2949,x=0.05_3%Sneccess,Sn0.89Mn0.14Te(Cu2Te)0.05,500,,104880,0.0000095343,,,,0.00088832,0.000092032,,0.21521,,
18603,10.1002/adma.201605887,1962,6(a),2949,x=0.05_3%Sneccess,Sn0.89Mn0.14Te(Cu2Te)0.05,550,,87336,0.00001145,,,,0.0010185,0.00010799,,0.28728,,
18603,10.1002/adma.201605887,1962,6(a),2949,x=0.05_3%Sneccess,Sn0.89Mn0.14Te(Cu2Te)0.05,600,,72150,0.00001386,,,,0.0011108,0.00012408,,0.36622,,
18603,10.1002/adma.201605887,1962,6(a),2949,x=0.05_3%Sneccess,Sn0.89Mn0.14Te(Cu2Te)0.05,650,,59337,0.000016853,,,,0.0011785,0.00014093,,0.45954,,
18603,10.1002/adma.201605887,1962,6(a),2949,x=0.05_3%Sneccess,Sn0.89Mn0.14Te(Cu2Te)0.05,700,,49116,0.00002036,,,,0.0012409,0.00015895,,0.5767,,
18603,10.1002/adma.201605887,1962,6(a),2949,x=0.05_3%Sneccess,Sn0.89Mn0.14Te(Cu2Te)0.05,750,,41552,0.000024066,,,,0.0013139,0.00017782,,0.72712,,
18603,10.1002/adma.201605887,1962,6(a),2949,x=0.05_3%Sneccess,Sn0.89Mn0.14Te(Cu2Te)0.05,800,,36619,0.000027308,,,,0.0014056,0.00019592,,0.91806,,
18603,10.1002/adma.201605887,1962,6(a),2949,x=0.05_3%Sneccess,Sn0.89Mn0.14Te(Cu2Te)0.05,850,,34501,0.000028985,,,,0.0015203,0.00020992,,1.1526,,
18603,10.1002/adma.201605887,1962,6(a),2949,x=0.05_3%Sneccess,Sn0.89Mn0.14Te(Cu2Te)0.05,900,,36414,0.000027462,,,,0.00167,0.00021415,,1.4276,,
18603,10.1002/adma.201605887,1965,6(d),2949,x=0.05_3%Sneccess,Sn0.89Mn0.14Te(Cu2Te)0.05,300,,,,,,,,,,0.030539,,
18603,10.1002/adma.201605887,1962,6(a),2946,x=0.03,Sn0.86Mn0.14Te(Cu2Te)0.03,350,,322180,0.0000031039,,,,0.00067511,0.000045776,,0.052103,,
18603,10.1002/adma.201605887,1962,6(a),2946,x=0.03,Sn0.86Mn0.14Te(Cu2Te)0.03,400,,284670,0.0000035129,,,,0.00084439,0.000054463,,0.083383,,
18603,10.1002/adma.201605887,1962,6(a),2946,x=0.03,Sn0.86Mn0.14Te(Cu2Te)0.03,450,,258850,0.0000038633,,,,0.0010106,0.000062483,,0.11288,,
18603,10.1002/adma.201605887,1962,6(a),2946,x=0.03,Sn0.86Mn0.14Te(Cu2Te)0.03,500,,233090,0.0000042901,,,,0.0011576,0.000070472,,0.14354,,
18603,10.1002/adma.201605887,1962,6(a),2946,x=0.03,Sn0.86Mn0.14Te(Cu2Te)0.03,550,,203720,0.0000049088,,,,0.0012718,0.000079012,,0.18095,,
18603,10.1002/adma.201605887,1962,6(a),2946,x=0.03,Sn0.86Mn0.14Te(Cu2Te)0.03,600,,172430,0.0000057995,,,,0.0013515,0.000088531,,0.23139,,
18603,10.1002/adma.201605887,1962,6(a),2946,x=0.03,Sn0.86Mn0.14Te(Cu2Te)0.03,650,,143040,0.000006991,,,,0.0014072,0.000099186,,0.2998,,
18603,10.1002/adma.201605887,1962,6(a),2946,x=0.03,Sn0.86Mn0.14Te(Cu2Te)0.03,700,,118420,0.0000084444,,,,0.0014528,0.00011076,,0.38782,,
18603,10.1002/adma.201605887,1962,6(a),2946,x=0.03,Sn0.86Mn0.14Te(Cu2Te)0.03,750,,99631,0.000010037,,,,0.0014968,0.00012257,,0.49175,,
18603,10.1002/adma.201605887,1962,6(a),2946,x=0.03,Sn0.86Mn0.14Te(Cu2Te)0.03,800,,86595,0.000011548,,,,0.0015389,0.00013331,,0.60062,,
18603,10.1002/adma.201605887,1962,6(a),2946,x=0.03,Sn0.86Mn0.14Te(Cu2Te)0.03,850,,79120,0.000012639,,,,0.0015734,0.00014102,,0.69414,,
18603,10.1002/adma.201605887,1962,6(a),2950,x=0.05_5%Snexcess,Sn0.92Mn0.14Te(Cu2Te)0.05,350,,171180,0.0000058417,,,,0.00053143,0.000055718,,0.079356,,
18603,10.1002/adma.201605887,1962,6(a),2950,x=0.05_5%Snexcess,Sn0.92Mn0.14Te(Cu2Te)0.05,400,,142670,0.0000070091,,,,0.00077803,0.000073847,,0.15042,,
18603,10.1002/adma.201605887,1962,6(a),2950,x=0.05_5%Snexcess,Sn0.92Mn0.14Te(Cu2Te)0.05,450,,117810,0.0000084879,,,,0.001053,0.000094542,,0.25888,,
18603,10.1002/adma.201605887,1962,6(a),2950,x=0.05_5%Snexcess,Sn0.92Mn0.14Te(Cu2Te)0.05,500,,99820,0.000010018,,,,0.0013082,0.00011448,,0.39104,,
18603,10.1002/adma.201605887,1962,6(a),2950,x=0.05_5%Snexcess,Sn0.92Mn0.14Te(Cu2Te)0.05,550,,85675,0.000011672,,,,0.001511,0.0001328,,0.53951,,
18603,10.1002/adma.201605887,1962,6(a),2950,x=0.05_5%Snexcess,Sn0.92Mn0.14Te(Cu2Te)0.05,600,,73051,0.000013689,,,,0.0016469,0.00015015,,0.70072,,
18603,10.1002/adma.201605887,1962,6(a),2950,x=0.05_5%Snexcess,Sn0.92Mn0.14Te(Cu2Te)0.05,650,,61286,0.000016317,,,,0.0017227,0.00016766,,0.87243,,
18603,10.1002/adma.201605887,1962,6(a),2950,x=0.05_5%Snexcess,Sn0.92Mn0.14Te(Cu2Te)0.05,700,,50891,0.00001965,,,,0.0017608,0.00018601,,1.0512,,
18603,10.1002/adma.201605887,1962,6(a),2950,x=0.05_5%Snexcess,Sn0.92Mn0.14Te(Cu2Te)0.05,750,,42618,0.000023464,,,,0.0017814,0.00020445,,1.2299,,
18603,10.1002/adma.201605887,1962,6(a),2950,x=0.05_5%Snexcess,Sn0.92Mn0.14Te(Cu2Te)0.05,800,,36962,0.000027055,,,,0.0017857,0.0002198,,1.3953,,
18603,10.1002/adma.201605887,1962,6(a),2950,x=0.05_5%Snexcess,Sn0.92Mn0.14Te(Cu2Te)0.05,850,,34388,0.00002908,,,,0.0017483,0.00022548,,1.5254,,
18603,10.1002/adma.201605887,1962,6(a),2950,x=0.05_5%Snexcess,Sn0.92Mn0.14Te(Cu2Te)0.05,900,,36506,0.000027393,,,,0.0016182,0.00021054,,1.5872,,
18603,10.1002/adma.201605887,1962,6(a),2951,x=0.05_4%Snexcess,Sn0.9Mn0.14Te(Cu2Te)0.05,350,,176100,0.0000056787,,,,0.00036901,0.000045776,,0.073248,,
18603,10.1002/adma.201605887,1962,6(a),2951,x=0.05_4%Snexcess,Sn0.9Mn0.14Te(Cu2Te)0.05,400,,148460,0.0000067356,,,,0.00044036,0.000054463,,0.13348,,
18603,10.1002/adma.201605887,1962,6(a),2951,x=0.05_4%Snexcess,Sn0.9Mn0.14Te(Cu2Te)0.05,450,,125100,0.0000079937,,,,0.00048841,0.000062483,,0.21222,,
18603,10.1002/adma.201605887,1962,6(a),2951,x=0.05_4%Snexcess,Sn0.9Mn0.14Te(Cu2Te)0.05,500,,105550,0.0000094741,,,,0.00052419,0.000070472,,0.30421,,
18603,10.1002/adma.201605887,1962,6(a),2951,x=0.05_4%Snexcess,Sn0.9Mn0.14Te(Cu2Te)0.05,550,,88339,0.00001132,,,,0.00055149,0.000079012,,0.40916,,
18603,10.1002/adma.201605887,1962,6(a),2951,x=0.05_4%Snexcess,Sn0.9Mn0.14Te(Cu2Te)0.05,600,,72982,0.000013702,,,,0.00057201,0.000088531,,0.52957,,
18603,10.1002/adma.201605887,1962,6(a),2951,x=0.05_4%Snexcess,Sn0.9Mn0.14Te(Cu2Te)0.05,650,,59794,0.000016724,,,,0.00058825,0.000099186,,0.6685,,
18603,10.1002/adma.201605887,1962,6(a),2951,x=0.05_4%Snexcess,Sn0.9Mn0.14Te(Cu2Te)0.05,700,,49196,0.000020327,,,,0.00060353,0.00011076,,0.82737,,
18603,10.1002/adma.201605887,1962,6(a),2951,x=0.05_4%Snexcess,Sn0.9Mn0.14Te(Cu2Te)0.05,750,,41331,0.000024195,,,,0.00062093,0.00012257,,1.0038,,
18603,10.1002/adma.201605887,1962,6(a),2951,x=0.05_4%Snexcess,Sn0.9Mn0.14Te(Cu2Te)0.05,800,,36152,0.000027661,,,,0.00064248,0.00013331,,1.1892,,
18603,10.1002/adma.201605887,1962,6(a),2951,x=0.05_4%Snexcess,Sn0.9Mn0.14Te(Cu2Te)0.05,850,,33769,0.000029613,,,,0.00067155,0.00014102,,1.3671,,
18603,10.1002/adma.201605887,1963,6(b),2951,x=0.05_4%Snexcess,Sn0.9Mn0.14Te(Cu2Te)0.05,900,,35217,0.000028395,,,,,,,1.5101,,
18603,10.1002/adma.201605887,1964,6(c),2952,x=0_K,Sn0.86Mn0.14Te(Cu2Te)0,350,,,,,,,,,2.6281,,,
18603,10.1002/adma.201605887,1964,6(c),2952,x=0_K,Sn0.86Mn0.14Te(Cu2Te)0,400,,,,,,,,,2.4461,,,
18603,10.1002/adma.201605887,1964,6(c),2952,x=0_K,Sn0.86Mn0.14Te(Cu2Te)0,450,,,,,,,,,2.271,,,
18603,10.1002/adma.201605887,1964,6(c),2952,x=0_K,Sn0.86Mn0.14Te(Cu2Te)0,500,,,,,,,,,2.0918,,,
18603,10.1002/adma.201605887,1964,6(c),2952,x=0_K,Sn0.86Mn0.14Te(Cu2Te)0,550,,,,,,,,,1.9105,,,
18603,10.1002/adma.201605887,1964,6(c),2952,x=0_K,Sn0.86Mn0.14Te(Cu2Te)0,600,,,,,,,,,1.7371,,,
18603,10.1002/adma.201605887,1964,6(c),2952,x=0_K,Sn0.86Mn0.14Te(Cu2Te)0,650,,,,,,,,,1.5838,,,
18603,10.1002/adma.201605887,1964,6(c),2952,x=0_K,Sn0.86Mn0.14Te(Cu2Te)0,700,,,,,,,,,1.4595,,,
18603,10.1002/adma.201605887,1964,6(c),2952,x=0_K,Sn0.86Mn0.14Te(Cu2Te)0,750,,,,,,,,,1.3643,,,
18603,10.1002/adma.201605887,1964,6(c),2952,x=0_K,Sn0.86Mn0.14Te(Cu2Te)0,800,,,,,,,,,1.284,,,
18603,10.1002/adma.201605887,1964,6(c),2952,x=0_K,Sn0.86Mn0.14Te(Cu2Te)0,850,,,,,,,,,1.1844,,,
18603,10.1002/adma.201605887,1964,6(c),2953,x=0.01_K,Sn0.86Mn0.14Te(Cu2Te)0.01,350,,,,,,,,,4.0246,,,
18603,10.1002/adma.201605887,1964,6(c),2953,x=0.01_K,Sn0.86Mn0.14Te(Cu2Te)0.01,400,,,,,,,,,3.9879,,,
18603,10.1002/adma.201605887,1964,6(c),2953,x=0.01_K,Sn0.86Mn0.14Te(Cu2Te)0.01,450,,,,,,,,,3.8912,,,
18603,10.1002/adma.201605887,1964,6(c),2953,x=0.01_K,Sn0.86Mn0.14Te(Cu2Te)0.01,500,,,,,,,,,3.7089,,,
18603,10.1002/adma.201605887,1964,6(c),2953,x=0.01_K,Sn0.86Mn0.14Te(Cu2Te)0.01,550,,,,,,,,,3.4505,,,
18603,10.1002/adma.201605887,1964,6(c),2953,x=0.01_K,Sn0.86Mn0.14Te(Cu2Te)0.01,600,,,,,,,,,3.147,,,
18603,10.1002/adma.201605887,1964,6(c),2953,x=0.01_K,Sn0.86Mn0.14Te(Cu2Te)0.01,650,,,,,,,,,2.8383,,,
18603,10.1002/adma.201605887,1964,6(c),2953,x=0.01_K,Sn0.86Mn0.14Te(Cu2Te)0.01,700,,,,,,,,,2.5594,,,
18603,10.1002/adma.201605887,1964,6(c),2953,x=0.01_K,Sn0.86Mn0.14Te(Cu2Te)0.01,750,,,,,,,,,2.3278,,,
18603,10.1002/adma.201605887,1964,6(c),2953,x=0.01_K,Sn0.86Mn0.14Te(Cu2Te)0.01,800,,,,,,,,,2.1301,,,
18603,10.1002/adma.201605887,1964,6(c),2953,x=0.01_K,Sn0.86Mn0.14Te(Cu2Te)0.01,850,,,,,,,,,1.9089,,,
18603,10.1002/adma.201605887,1964,6(c),2953,x=0.01_K,Sn0.86Mn0.14Te(Cu2Te)0.01,900,,,,,,,,,1.5495,,,
18603,10.1002/adma.201605887,1964,6(c),2954,x=0.03_K,Sn0.86Mn0.14Te(Cu2Te)0.03,300,,,,,,,,,4.5137,,,
18603,10.1002/adma.201605887,1964,6(c),2954,x=0.03_K,Sn0.86Mn0.14Te(Cu2Te)0.03,350,,,,,,,,,4.3648,,,
18603,10.1002/adma.201605887,1964,6(c),2954,x=0.03_K,Sn0.86Mn0.14Te(Cu2Te)0.03,400,,,,,,,,,4.2836,,,
18603,10.1002/adma.201605887,1964,6(c),2954,x=0.03_K,Sn0.86Mn0.14Te(Cu2Te)0.03,450,,,,,,,,,4.1864,,,
18603,10.1002/adma.201605887,1964,6(c),2954,x=0.03_K,Sn0.86Mn0.14Te(Cu2Te)0.03,500,,,,,,,,,4.0254,,,
18603,10.1002/adma.201605887,1964,6(c),2954,x=0.03_K,Sn0.86Mn0.14Te(Cu2Te)0.03,550,,,,,,,,,3.7827,,,
18603,10.1002/adma.201605887,1964,6(c),2954,x=0.03_K,Sn0.86Mn0.14Te(Cu2Te)0.03,600,,,,,,,,,3.4642,,,
18603,10.1002/adma.201605887,1964,6(c),2954,x=0.03_K,Sn0.86Mn0.14Te(Cu2Te)0.03,650,,,,,,,,,3.094,,,
18603,10.1002/adma.201605887,1964,6(c),2954,x=0.03_K,Sn0.86Mn0.14Te(Cu2Te)0.03,700,,,,,,,,,2.7084,,,
18603,10.1002/adma.201605887,1964,6(c),2954,x=0.03_K,Sn0.86Mn0.14Te(Cu2Te)0.03,750,,,,,,,,,2.35,,,
18603,10.1002/adma.201605887,1964,6(c),2954,x=0.03_K,Sn0.86Mn0.14Te(Cu2Te)0.03,800,,,,,,,,,2.0617,,,
18603,10.1002/adma.201605887,1964,6(c),2954,x=0.03_K,Sn0.86Mn0.14Te(Cu2Te)0.03,850,,,,,,,,,1.881,,,
18603,10.1002/adma.201605887,1964,6(c),2954,x=0.03_K,Sn0.86Mn0.14Te(Cu2Te)0.03,900,,,,,,,,,1.8341,,,
18603,10.1002/adma.201605887,1964,6(c),2955,x=0.04_K,Sn0.86Mn0.14Te(Cu2Te)0.04,300,,,,,,,,,4.0129,,,
18603,10.1002/adma.201605887,1964,6(c),2955,x=0.04_K,Sn0.86Mn0.14Te(Cu2Te)0.04,350,,,,,,,,,3.9565,,,
18603,10.1002/adma.201605887,1964,6(c),2955,x=0.04_K,Sn0.86Mn0.14Te(Cu2Te)0.04,400,,,,,,,,,3.856,,,
18603,10.1002/adma.201605887,1964,6(c),2955,x=0.04_K,Sn0.86Mn0.14Te(Cu2Te)0.04,450,,,,,,,,,3.7025,,,
18603,10.1002/adma.201605887,1964,6(c),2955,x=0.04_K,Sn0.86Mn0.14Te(Cu2Te)0.04,500,,,,,,,,,3.496,,,
18603,10.1002/adma.201605887,1964,6(c),2955,x=0.04_K,Sn0.86Mn0.14Te(Cu2Te)0.04,550,,,,,,,,,3.2436,,,
18603,10.1002/adma.201605887,1964,6(c),2955,x=0.04_K,Sn0.86Mn0.14Te(Cu2Te)0.04,600,,,,,,,,,2.9578,,,
18603,10.1002/adma.201605887,1964,6(c),2955,x=0.04_K,Sn0.86Mn0.14Te(Cu2Te)0.04,650,,,,,,,,,2.654,,,
18603,10.1002/adma.201605887,1964,6(c),2955,x=0.04_K,Sn0.86Mn0.14Te(Cu2Te)0.04,700,,,,,,,,,2.3493,,,
18603,10.1002/adma.201605887,1964,6(c),2955,x=0.04_K,Sn0.86Mn0.14Te(Cu2Te)0.04,750,,,,,,,,,2.0598,,,
18603,10.1002/adma.201605887,1964,6(c),2955,x=0.04_K,Sn0.86Mn0.14Te(Cu2Te)0.04,800,,,,,,,,,1.7991,,,
18603,10.1002/adma.201605887,1964,6(c),2955,x=0.04_K,Sn0.86Mn0.14Te(Cu2Te)0.04,850,,,,,,,,,1.5762,,,
18603,10.1002/adma.201605887,1964,6(c),2955,x=0.04_K,Sn0.86Mn0.14Te(Cu2Te)0.04,900,,,,,,,,,1.3936,,,
18603,10.1002/adma.201605887,1964,6(c),2956,x=0.05_K,Sn0.86Mn0.14Te(Cu2Te)0.05,350,,,,,,,,,2.5417,,,
18603,10.1002/adma.201605887,1964,6(c),2956,x=0.05_K,Sn0.86Mn0.14Te(Cu2Te)0.05,400,,,,,,,,,2.4485,,,
18603,10.1002/adma.201605887,1964,6(c),2956,x=0.05_K,Sn0.86Mn0.14Te(Cu2Te)0.05,450,,,,,,,,,2.2833,,,