sid,DOI,figureid,fignum,sampleid,samplename,composition,Temperature,Carrier concentration,Electrical conductivity,Electrical resistivity,Hall coefficient,Hall movility,Lattice thermal conductivity,Power factor,Seebeck coefficient,Thermal conductivity,ZT,total thermal conductivity,Figure of merit Z
18650,10.1016/j.jmat.2015.09.001,26378,3(b),31991,Sn(1-x)MnxTe_ x=0.15,undefined,,6.075e+26,,,,0.00051076,,,0.00015995,,,,
18650,10.1016/j.jmat.2015.09.001,26378,3(b),31991,Sn(1-x)MnxTe_ x=0.15,undefined,,6.08e+26,,,,0.00051064,,,0.00015988,,,,
18650,10.1016/j.jmat.2015.09.001,26378,3(b),31991,Sn(1-x)MnxTe_ x=0.15,undefined,,6.085e+26,,,,0.00051052,,,0.00015981,,,,
18650,10.1016/j.jmat.2015.09.001,26378,3(b),31991,Sn(1-x)MnxTe_ x=0.15,undefined,,6.09e+26,,,,0.0005104,,,0.00015974,,,,
18650,10.1016/j.jmat.2015.09.001,26378,3(b),31991,Sn(1-x)MnxTe_ x=0.15,undefined,,6.095e+26,,,,0.00051028,,,0.00015967,,,,
18650,10.1016/j.jmat.2015.09.001,26378,3(b),31991,Sn(1-x)MnxTe_ x=0.15,undefined,,6.1e+26,,,,0.00051016,,,0.00015961,,,,
18650,10.1016/j.jmat.2015.09.001,26378,3(b),31991,Sn(1-x)MnxTe_ x=0.15,undefined,,6.105e+26,,,,0.00051003,,,0.00015954,,,,
18650,10.1016/j.jmat.2015.09.001,26378,3(b),31991,Sn(1-x)MnxTe_ x=0.15,undefined,,6.11e+26,,,,0.00050991,,,0.00015947,,,,
18650,10.1016/j.jmat.2015.09.001,26378,3(b),31991,Sn(1-x)MnxTe_ x=0.15,undefined,,6.115e+26,,,,0.00050979,,,0.0001594,,,,
18650,10.1016/j.jmat.2015.09.001,26378,3(b),31991,Sn(1-x)MnxTe_ x=0.15,undefined,,6.12e+26,,,,0.00050967,,,0.00015934,,,,
18650,10.1016/j.jmat.2015.09.001,26378,3(b),31991,Sn(1-x)MnxTe_ x=0.15,undefined,,6.125e+26,,,,0.00050955,,,0.00015927,,,,
18650,10.1016/j.jmat.2015.09.001,26378,3(b),31991,Sn(1-x)MnxTe_ x=0.15,undefined,,6.13e+26,,,,0.00050943,,,0.0001592,,,,
18650,10.1016/j.jmat.2015.09.001,26378,3(b),31991,Sn(1-x)MnxTe_ x=0.15,undefined,,6.135e+26,,,,0.00050931,,,0.00015913,,,,
18650,10.1016/j.jmat.2015.09.001,26378,3(b),31991,Sn(1-x)MnxTe_ x=0.15,undefined,,6.14e+26,,,,0.00050919,,,0.00015906,,,,
18650,10.1016/j.jmat.2015.09.001,26378,3(b),31991,Sn(1-x)MnxTe_ x=0.15,undefined,,6.145e+26,,,,0.00050906,,,0.000159,,,,
18650,10.1016/j.jmat.2015.09.001,26378,3(b),31991,Sn(1-x)MnxTe_ x=0.15,undefined,,6.15e+26,,,,0.00050894,,,0.00015893,,,,
18650,10.1016/j.jmat.2015.09.001,26378,3(b),31991,Sn(1-x)MnxTe_ x=0.15,undefined,,6.155e+26,,,,0.00050882,,,0.00015886,,,,
18650,10.1016/j.jmat.2015.09.001,26378,3(b),31991,Sn(1-x)MnxTe_ x=0.15,undefined,,6.16e+26,,,,0.0005087,,,0.00015879,,,,
18650,10.1016/j.jmat.2015.09.001,26378,3(b),31991,Sn(1-x)MnxTe_ x=0.15,undefined,,6.165e+26,,,,0.00050858,,,0.00015873,,,,
18650,10.1016/j.jmat.2015.09.001,26378,3(b),31991,Sn(1-x)MnxTe_ x=0.15,undefined,,6.17e+26,,,,0.00050846,,,0.00015866,,,,
18650,10.1016/j.jmat.2015.09.001,26378,3(b),31991,Sn(1-x)MnxTe_ x=0.15,undefined,,6.175e+26,,,,0.00050834,,,0.00015859,,,,
18650,10.1016/j.jmat.2015.09.001,26378,3(b),31991,Sn(1-x)MnxTe_ x=0.15,undefined,,6.18e+26,,,,0.00050821,,,0.00015852,,,,
18650,10.1016/j.jmat.2015.09.001,26378,3(b),31991,Sn(1-x)MnxTe_ x=0.15,undefined,,6.185e+26,,,,0.00050809,,,0.00015845,,,,
18650,10.1016/j.jmat.2015.09.001,26378,3(b),31991,Sn(1-x)MnxTe_ x=0.15,undefined,,6.19e+26,,,,0.00050797,,,0.00015839,,,,
18650,10.1016/j.jmat.2015.09.001,26378,3(b),31991,Sn(1-x)MnxTe_ x=0.15,undefined,,6.195e+26,,,,0.00050785,,,0.00015832,,,,
18650,10.1016/j.jmat.2015.09.001,26378,3(b),31991,Sn(1-x)MnxTe_ x=0.15,undefined,,6.2e+26,,,,0.00050773,,,0.00015825,,,,
18650,10.1016/j.jmat.2015.09.001,26378,3(b),31991,Sn(1-x)MnxTe_ x=0.15,undefined,,6.205e+26,,,,0.00050761,,,0.00015818,,,,
18650,10.1016/j.jmat.2015.09.001,26378,3(b),31991,Sn(1-x)MnxTe_ x=0.15,undefined,,6.21e+26,,,,0.00050749,,,0.00015812,,,,
18650,10.1016/j.jmat.2015.09.001,26378,3(b),31991,Sn(1-x)MnxTe_ x=0.15,undefined,,6.215e+26,,,,0.00050737,,,0.00015805,,,,
18650,10.1016/j.jmat.2015.09.001,26378,3(b),31991,Sn(1-x)MnxTe_ x=0.15,undefined,,6.22e+26,,,,0.00050724,,,0.00015798,,,,
18650,10.1016/j.jmat.2015.09.001,26378,3(b),31991,Sn(1-x)MnxTe_ x=0.15,undefined,,6.225e+26,,,,0.00050712,,,0.00015791,,,,
18650,10.1016/j.jmat.2015.09.001,26378,3(b),31991,Sn(1-x)MnxTe_ x=0.15,undefined,,6.23e+26,,,,0.000507,,,0.00015784,,,,
18650,10.1016/j.jmat.2015.09.001,26378,3(b),31991,Sn(1-x)MnxTe_ x=0.15,undefined,,6.235e+26,,,,0.00050688,,,0.00015778,,,,
18650,10.1016/j.jmat.2015.09.001,26378,3(b),31991,Sn(1-x)MnxTe_ x=0.15,undefined,,6.24e+26,,,,0.00050676,,,0.00015771,,,,
18650,10.1016/j.jmat.2015.09.001,26378,3(b),31991,Sn(1-x)MnxTe_ x=0.15,undefined,,6.245e+26,,,,0.00050664,,,0.00015764,,,,
18650,10.1016/j.jmat.2015.09.001,26378,3(b),31991,Sn(1-x)MnxTe_ x=0.15,undefined,,6.25e+26,,,,0.00050652,,,0.00015757,,,,
18650,10.1016/j.jmat.2015.09.001,26378,3(b),31991,Sn(1-x)MnxTe_ x=0.15,undefined,,6.255e+26,,,,0.00050639,,,0.00015751,,,,
18650,10.1016/j.jmat.2015.09.001,26378,3(b),31991,Sn(1-x)MnxTe_ x=0.15,undefined,,6.26e+26,,,,0.00050627,,,0.00015744,,,,
18650,10.1016/j.jmat.2015.09.001,26378,3(b),31991,Sn(1-x)MnxTe_ x=0.15,undefined,,6.265e+26,,,,0.00050615,,,0.00015737,,,,
18650,10.1016/j.jmat.2015.09.001,26378,3(b),31991,Sn(1-x)MnxTe_ x=0.15,undefined,,6.27e+26,,,,0.00050603,,,0.0001573,,,,
18650,10.1016/j.jmat.2015.09.001,26378,3(b),31991,Sn(1-x)MnxTe_ x=0.15,undefined,,6.275e+26,,,,0.00050591,,,0.00015724,,,,
18650,10.1016/j.jmat.2015.09.001,26378,3(b),31991,Sn(1-x)MnxTe_ x=0.15,undefined,,6.28e+26,,,,0.00050579,,,0.00015717,,,,
18650,10.1016/j.jmat.2015.09.001,26378,3(b),31991,Sn(1-x)MnxTe_ x=0.15,undefined,,6.285e+26,,,,0.00050567,,,0.0001571,,,,
18650,10.1016/j.jmat.2015.09.001,26378,3(b),31991,Sn(1-x)MnxTe_ x=0.15,undefined,,6.29e+26,,,,0.00050555,,,0.00015703,,,,
18650,10.1016/j.jmat.2015.09.001,26378,3(b),31991,Sn(1-x)MnxTe_ x=0.15,undefined,,6.295e+26,,,,0.00050542,,,0.00015696,,,,
18650,10.1016/j.jmat.2015.09.001,26378,3(b),31991,Sn(1-x)MnxTe_ x=0.15,undefined,,6.3e+26,,,,0.0005053,,,0.0001569,,,,
18650,10.1016/j.jmat.2015.09.001,26378,3(b),31991,Sn(1-x)MnxTe_ x=0.15,undefined,,6.305e+26,,,,0.00050518,,,0.00015683,,,,
18650,10.1016/j.jmat.2015.09.001,26378,3(b),31991,Sn(1-x)MnxTe_ x=0.15,undefined,,6.31e+26,,,,0.00050506,,,0.00015676,,,,
18650,10.1016/j.jmat.2015.09.001,26378,3(b),31991,Sn(1-x)MnxTe_ x=0.15,undefined,,6.315e+26,,,,0.00050494,,,0.00015669,,,,
18650,10.1016/j.jmat.2015.09.001,26378,3(b),31991,Sn(1-x)MnxTe_ x=0.15,undefined,,6.32e+26,,,,0.00050482,,,0.00015663,,,,
18650,10.1016/j.jmat.2015.09.001,26378,3(b),31991,Sn(1-x)MnxTe_ x=0.15,undefined,,6.325e+26,,,,0.0005047,,,0.00015656,,,,
18650,10.1016/j.jmat.2015.09.001,26378,3(b),31991,Sn(1-x)MnxTe_ x=0.15,undefined,,6.33e+26,,,,0.00050457,,,0.00015649,,,,
18650,10.1016/j.jmat.2015.09.001,26378,3(b),31991,Sn(1-x)MnxTe_ x=0.15,undefined,,6.335e+26,,,,0.00050445,,,0.00015642,,,,
18650,10.1016/j.jmat.2015.09.001,26378,3(b),31991,Sn(1-x)MnxTe_ x=0.15,undefined,,6.34e+26,,,,0.00050433,,,0.00015635,,,,
18650,10.1016/j.jmat.2015.09.001,26378,3(b),31991,Sn(1-x)MnxTe_ x=0.15,undefined,,6.345e+26,,,,0.00050421,,,0.00015629,,,,
18650,10.1016/j.jmat.2015.09.001,26378,3(b),31991,Sn(1-x)MnxTe_ x=0.15,undefined,,6.35e+26,,,,0.00050409,,,0.00015622,,,,
18650,10.1016/j.jmat.2015.09.001,26378,3(b),31991,Sn(1-x)MnxTe_ x=0.15,undefined,,6.355e+26,,,,0.00050397,,,0.00015615,,,,
18650,10.1016/j.jmat.2015.09.001,26378,3(b),31991,Sn(1-x)MnxTe_ x=0.15,undefined,,6.36e+26,,,,0.00050385,,,0.00015608,,,,
18650,10.1016/j.jmat.2015.09.001,26378,3(b),31991,Sn(1-x)MnxTe_ x=0.15,undefined,,6.365e+26,,,,0.00050373,,,0.00015602,,,,
18650,10.1016/j.jmat.2015.09.001,26378,3(b),31991,Sn(1-x)MnxTe_ x=0.15,undefined,,6.37e+26,,,,0.0005036,,,0.00015595,,,,
18650,10.1016/j.jmat.2015.09.001,26378,3(b),31991,Sn(1-x)MnxTe_ x=0.15,undefined,,6.375e+26,,,,0.00050348,,,0.00015588,,,,
18650,10.1016/j.jmat.2015.09.001,26378,3(b),31991,Sn(1-x)MnxTe_ x=0.15,undefined,,6.38e+26,,,,0.00050336,,,0.00015581,,,,
18650,10.1016/j.jmat.2015.09.001,26378,3(b),31991,Sn(1-x)MnxTe_ x=0.15,undefined,,6.385e+26,,,,0.00050324,,,0.00015574,,,,
18650,10.1016/j.jmat.2015.09.001,26378,3(b),31991,Sn(1-x)MnxTe_ x=0.15,undefined,,6.39e+26,,,,0.00050312,,,0.00015568,,,,
18650,10.1016/j.jmat.2015.09.001,26378,3(b),31991,Sn(1-x)MnxTe_ x=0.15,undefined,,6.395e+26,,,,0.000503,,,0.00015561,,,,
18650,10.1016/j.jmat.2015.09.001,26378,3(b),31991,Sn(1-x)MnxTe_ x=0.15,undefined,,6.4e+26,,,,0.00050288,,,0.00015554,,,,
18650,10.1016/j.jmat.2015.09.001,26378,3(b),31991,Sn(1-x)MnxTe_ x=0.15,undefined,,6.405e+26,,,,0.00050276,,,0.00015547,,,,
18650,10.1016/j.jmat.2015.09.001,26378,3(b),31991,Sn(1-x)MnxTe_ x=0.15,undefined,,6.41e+26,,,,0.00050263,,,0.00015541,,,,
18650,10.1016/j.jmat.2015.09.001,26378,3(b),31991,Sn(1-x)MnxTe_ x=0.15,undefined,,6.415e+26,,,,0.00050251,,,0.00015534,,,,
18650,10.1016/j.jmat.2015.09.001,26378,3(b),31991,Sn(1-x)MnxTe_ x=0.15,undefined,,6.42e+26,,,,0.00050239,,,0.00015527,,,,
18650,10.1016/j.jmat.2015.09.001,26378,3(b),31991,Sn(1-x)MnxTe_ x=0.15,undefined,,6.425e+26,,,,0.00050227,,,0.0001552,,,,
18650,10.1016/j.jmat.2015.09.001,26378,3(b),31991,Sn(1-x)MnxTe_ x=0.15,undefined,,6.43e+26,,,,0.00050215,,,0.00015513,,,,
18650,10.1016/j.jmat.2015.09.001,26378,3(b),31991,Sn(1-x)MnxTe_ x=0.15,undefined,,6.435e+26,,,,0.00050203,,,0.00015507,,,,
18650,10.1016/j.jmat.2015.09.001,26378,3(b),31991,Sn(1-x)MnxTe_ x=0.15,undefined,,6.44e+26,,,,0.00050191,,,0.000155,,,,
18650,10.1016/j.jmat.2015.09.001,26378,3(b),31991,Sn(1-x)MnxTe_ x=0.15,undefined,,6.445e+26,,,,0.00050178,,,0.00015493,,,,
18650,10.1016/j.jmat.2015.09.001,26378,3(b),31991,Sn(1-x)MnxTe_ x=0.15,undefined,,6.45e+26,,,,0.00050166,,,0.00015486,,,,
18650,10.1016/j.jmat.2015.09.001,26378,3(b),31991,Sn(1-x)MnxTe_ x=0.15,undefined,,6.455e+26,,,,0.00050154,,,0.0001548,,,,
18650,10.1016/j.jmat.2015.09.001,26378,3(b),31991,Sn(1-x)MnxTe_ x=0.15,undefined,,6.46e+26,,,,0.00050142,,,0.00015473,,,,
18650,10.1016/j.jmat.2015.09.001,26378,3(b),31991,Sn(1-x)MnxTe_ x=0.15,undefined,,6.465e+26,,,,0.0005013,,,0.00015466,,,,
18650,10.1016/j.jmat.2015.09.001,26378,3(b),31991,Sn(1-x)MnxTe_ x=0.15,undefined,,6.47e+26,,,,0.00050118,,,0.00015459,,,,
18650,10.1016/j.jmat.2015.09.001,26378,3(b),31991,Sn(1-x)MnxTe_ x=0.15,undefined,,6.475e+26,,,,0.00050106,,,0.00015452,,,,
18650,10.1016/j.jmat.2015.09.001,26378,3(b),31991,Sn(1-x)MnxTe_ x=0.15,undefined,,6.48e+26,,,,0.00050094,,,0.00015446,,,,
18650,10.1016/j.jmat.2015.09.001,26378,3(b),31991,Sn(1-x)MnxTe_ x=0.15,undefined,,6.485e+26,,,,0.00050081,,,0.00015439,,,,
18650,10.1016/j.jmat.2015.09.001,26378,3(b),31991,Sn(1-x)MnxTe_ x=0.15,undefined,,6.49e+26,,,,0.00050069,,,0.00015432,,,,
18650,10.1016/j.jmat.2015.09.001,26378,3(b),31991,Sn(1-x)MnxTe_ x=0.15,undefined,,6.495e+26,,,,0.00050057,,,0.00015425,,,,
18650,10.1016/j.jmat.2015.09.001,26378,3(b),31991,Sn(1-x)MnxTe_ x=0.15,undefined,,6.5e+26,,,,0.00050045,,,0.00015419,,,,
18650,10.1016/j.jmat.2015.09.001,26378,3(b),31991,Sn(1-x)MnxTe_ x=0.15,undefined,,6.505e+26,,,,0.00050033,,,0.00015412,,,,
18650,10.1016/j.jmat.2015.09.001,26378,3(b),31991,Sn(1-x)MnxTe_ x=0.15,undefined,,6.51e+26,,,,0.00050021,,,0.00015405,,,,
18650,10.1016/j.jmat.2015.09.001,26378,3(b),31991,Sn(1-x)MnxTe_ x=0.15,undefined,,6.515e+26,,,,0.00050009,,,0.00015398,,,,
18650,10.1016/j.jmat.2015.09.001,26378,3(b),31991,Sn(1-x)MnxTe_ x=0.15,undefined,,6.52e+26,,,,0.00049996,,,0.00015391,,,,
18650,10.1016/j.jmat.2015.09.001,26378,3(b),31991,Sn(1-x)MnxTe_ x=0.15,undefined,,6.525e+26,,,,0.00049984,,,0.00015385,,,,
18650,10.1016/j.jmat.2015.09.001,26378,3(b),31991,Sn(1-x)MnxTe_ x=0.15,undefined,,6.53e+26,,,,0.00049972,,,0.00015378,,,,
18650,10.1016/j.jmat.2015.09.001,26378,3(b),31991,Sn(1-x)MnxTe_ x=0.15,undefined,,6.535e+26,,,,0.0004996,,,0.00015371,,,,
18650,10.1016/j.jmat.2015.09.001,26378,3(b),31991,Sn(1-x)MnxTe_ x=0.15,undefined,,6.54e+26,,,,0.00049948,,,0.00015364,,,,
18650,10.1016/j.jmat.2015.09.001,26378,3(b),31991,Sn(1-x)MnxTe_ x=0.15,undefined,,6.545e+26,,,,0.00049936,,,0.00015358,,,,
18650,10.1016/j.jmat.2015.09.001,26378,3(b),31991,Sn(1-x)MnxTe_ x=0.15,undefined,,6.55e+26,,,,0.00049924,,,0.00015351,,,,
18650,10.1016/j.jmat.2015.09.001,26378,3(b),31991,Sn(1-x)MnxTe_ x=0.15,undefined,,6.555e+26,,,,0.00049912,,,0.00015344,,,,
18650,10.1016/j.jmat.2015.09.001,26378,3(b),31991,Sn(1-x)MnxTe_ x=0.15,undefined,,6.56e+26,,,,0.00049899,,,0.00015337,,,,
18650,10.1016/j.jmat.2015.09.001,26378,3(b),31991,Sn(1-x)MnxTe_ x=0.15,undefined,,6.565e+26,,,,0.00049887,,,0.00015331,,,,
18650,10.1016/j.jmat.2015.09.001,26378,3(b),31991,Sn(1-x)MnxTe_ x=0.15,undefined,,6.57e+26,,,,0.00049875,,,0.00015324,,,,
18650,10.1016/j.jmat.2015.09.001,26378,3(b),31991,Sn(1-x)MnxTe_ x=0.15,undefined,,6.575e+26,,,,0.00049863,,,0.00015317,,,,
18650,10.1016/j.jmat.2015.09.001,26378,3(b),31991,Sn(1-x)MnxTe_ x=0.15,undefined,,6.58e+26,,,,0.00049851,,,0.0001531,,,,
18650,10.1016/j.jmat.2015.09.001,26378,3(b),31991,Sn(1-x)MnxTe_ x=0.15,undefined,,6.585e+26,,,,0.00049839,,,0.00015303,,,,
18650,10.1016/j.jmat.2015.09.001,26378,3(b),31991,Sn(1-x)MnxTe_ x=0.15,undefined,,6.59e+26,,,,0.00049827,,,0.00015297,,,,
18650,10.1016/j.jmat.2015.09.001,26378,3(b),31991,Sn(1-x)MnxTe_ x=0.15,undefined,,6.595e+26,,,,0.00049815,,,0.0001529,,,,
18650,10.1016/j.jmat.2015.09.001,26378,3(b),31991,Sn(1-x)MnxTe_ x=0.15,undefined,,6.6e+26,,,,0.00049802,,,0.00015283,,,,
18650,10.1016/j.jmat.2015.09.001,26378,3(b),31991,Sn(1-x)MnxTe_ x=0.15,undefined,,6.605e+26,,,,0.0004979,,,0.00015276,,,,
18650,10.1016/j.jmat.2015.09.001,26378,3(b),31991,Sn(1-x)MnxTe_ x=0.15,undefined,,6.61e+26,,,,0.00049778,,,0.0001527,,,,
18650,10.1016/j.jmat.2015.09.001,26378,3(b),31991,Sn(1-x)MnxTe_ x=0.15,undefined,,6.615e+26,,,,0.00049766,,,0.00015263,,,,
18650,10.1016/j.jmat.2015.09.001,26378,3(b),31991,Sn(1-x)MnxTe_ x=0.15,undefined,,6.62e+26,,,,0.00049754,,,0.00015256,,,,
18650,10.1016/j.jmat.2015.09.001,26378,3(b),31991,Sn(1-x)MnxTe_ x=0.15,undefined,,6.625e+26,,,,0.00049742,,,0.00015249,,,,
18650,10.1016/j.jmat.2015.09.001,26378,3(b),31991,Sn(1-x)MnxTe_ x=0.15,undefined,,6.63e+26,,,,0.0004973,,,0.00015242,,,,
18650,10.1016/j.jmat.2015.09.001,26378,3(b),31991,Sn(1-x)MnxTe_ x=0.15,undefined,,6.635e+26,,,,0.00049717,,,0.00015236,,,,
18650,10.1016/j.jmat.2015.09.001,26378,3(b),31991,Sn(1-x)MnxTe_ x=0.15,undefined,,6.64e+26,,,,0.00049705,,,0.00015229,,,,
18650,10.1016/j.jmat.2015.09.001,26378,3(b),31991,Sn(1-x)MnxTe_ x=0.15,undefined,,6.645e+26,,,,0.00049693,,,0.00015222,,,,
18650,10.1016/j.jmat.2015.09.001,26378,3(b),31991,Sn(1-x)MnxTe_ x=0.15,undefined,,6.65e+26,,,,0.00049681,,,0.00015215,,,,
18650,10.1016/j.jmat.2015.09.001,26378,3(b),31991,Sn(1-x)MnxTe_ x=0.15,undefined,,6.655e+26,,,,0.00049669,,,0.00015209,,,,
18650,10.1016/j.jmat.2015.09.001,26378,3(b),31991,Sn(1-x)MnxTe_ x=0.15,undefined,,6.66e+26,,,,0.00049657,,,0.00015202,,,,
18650,10.1016/j.jmat.2015.09.001,26378,3(b),31991,Sn(1-x)MnxTe_ x=0.15,undefined,,6.665e+26,,,,0.00049645,,,0.00015195,,,,
18650,10.1016/j.jmat.2015.09.001,26378,3(b),31991,Sn(1-x)MnxTe_ x=0.15,undefined,,6.67e+26,,,,0.00049633,,,0.00015188,,,,
18650,10.1016/j.jmat.2015.09.001,26378,3(b),31991,Sn(1-x)MnxTe_ x=0.15,undefined,,6.675e+26,,,,0.0004962,,,0.00015181,,,,
18650,10.1016/j.jmat.2015.09.001,26378,3(b),31991,Sn(1-x)MnxTe_ x=0.15,undefined,,6.68e+26,,,,0.00049608,,,0.00015175,,,,
18650,10.1016/j.jmat.2015.09.001,26378,3(b),31991,Sn(1-x)MnxTe_ x=0.15,undefined,,6.685e+26,,,,0.00049596,,,0.00015168,,,,
18650,10.1016/j.jmat.2015.09.001,26378,3(b),31991,Sn(1-x)MnxTe_ x=0.15,undefined,,6.69e+26,,,,0.00049584,,,0.00015161,,,,
18650,10.1016/j.jmat.2015.09.001,26378,3(b),31991,Sn(1-x)MnxTe_ x=0.15,undefined,,6.695e+26,,,,0.00049572,,,0.00015154,,,,
18650,10.1016/j.jmat.2015.09.001,26378,3(b),31991,Sn(1-x)MnxTe_ x=0.15,undefined,,6.7e+26,,,,0.0004956,,,0.00015148,,,,
18650,10.1016/j.jmat.2015.09.001,26378,3(b),31991,Sn(1-x)MnxTe_ x=0.15,undefined,,6.705e+26,,,,0.00049548,,,0.00015141,,,,
18650,10.1016/j.jmat.2015.09.001,26378,3(b),31991,Sn(1-x)MnxTe_ x=0.15,undefined,,6.71e+26,,,,0.00049535,,,0.00015134,,,,
18650,10.1016/j.jmat.2015.09.001,26378,3(b),31991,Sn(1-x)MnxTe_ x=0.15,undefined,,6.715e+26,,,,0.00049523,,,0.00015127,,,,
18650,10.1016/j.jmat.2015.09.001,26378,3(b),31991,Sn(1-x)MnxTe_ x=0.15,undefined,,6.72e+26,,,,0.00049511,,,0.0001512,,,,
18650,10.1016/j.jmat.2015.09.001,26378,3(b),31991,Sn(1-x)MnxTe_ x=0.15,undefined,,6.725e+26,,,,0.00049499,,,0.00015114,,,,
18650,10.1016/j.jmat.2015.09.001,26378,3(b),31991,Sn(1-x)MnxTe_ x=0.15,undefined,,6.73e+26,,,,0.00049487,,,0.00015107,,,,
18650,10.1016/j.jmat.2015.09.001,26378,3(b),31991,Sn(1-x)MnxTe_ x=0.15,undefined,,6.735e+26,,,,0.00049475,,,0.000151,,,,
18650,10.1016/j.jmat.2015.09.001,26378,3(b),31991,Sn(1-x)MnxTe_ x=0.15,undefined,,6.74e+26,,,,0.00049463,,,0.00015093,,,,
18650,10.1016/j.jmat.2015.09.001,26378,3(b),31991,Sn(1-x)MnxTe_ x=0.15,undefined,,6.745e+26,,,,0.00049451,,,0.00015087,,,,
18650,10.1016/j.jmat.2015.09.001,26378,3(b),31991,Sn(1-x)MnxTe_ x=0.15,undefined,,6.75e+26,,,,0.00049438,,,0.0001508,,,,
18650,10.1016/j.jmat.2015.09.001,26378,3(b),31991,Sn(1-x)MnxTe_ x=0.15,undefined,,6.755e+26,,,,0.00049426,,,0.00015073,,,,
18650,10.1016/j.jmat.2015.09.001,26378,3(b),31991,Sn(1-x)MnxTe_ x=0.15,undefined,,6.76e+26,,,,0.00049414,,,0.00015066,,,,
18650,10.1016/j.jmat.2015.09.001,26378,3(b),31991,Sn(1-x)MnxTe_ x=0.15,undefined,,6.765e+26,,,,0.00049402,,,0.00015059,,,,
18650,10.1016/j.jmat.2015.09.001,26378,3(b),31991,Sn(1-x)MnxTe_ x=0.15,undefined,,6.77e+26,,,,0.0004939,,,0.00015053,,,,
18650,10.1016/j.jmat.2015.09.001,26378,3(b),31991,Sn(1-x)MnxTe_ x=0.15,undefined,,6.775e+26,,,,0.00049378,,,0.00015046,,,,
18650,10.1016/j.jmat.2015.09.001,26378,3(b),31991,Sn(1-x)MnxTe_ x=0.15,undefined,,6.78e+26,,,,0.00049366,,,0.00015039,,,,
18650,10.1016/j.jmat.2015.09.001,26378,3(b),31991,Sn(1-x)MnxTe_ x=0.15,undefined,,6.785e+26,,,,0.00049353,,,0.00015032,,,,
18650,10.1016/j.jmat.2015.09.001,26378,3(b),31991,Sn(1-x)MnxTe_ x=0.15,undefined,,6.79e+26,,,,0.00049341,,,0.00015026,,,,
18650,10.1016/j.jmat.2015.09.001,26378,3(b),31991,Sn(1-x)MnxTe_ x=0.15,undefined,,6.795e+26,,,,0.00049329,,,0.00015019,,,,
18650,10.1016/j.jmat.2015.09.001,26378,3(b),31991,Sn(1-x)MnxTe_ x=0.15,undefined,,6.8e+26,,,,0.00049317,,,0.00015012,,,,
18650,10.1016/j.jmat.2015.09.001,26378,3(b),31991,Sn(1-x)MnxTe_ x=0.15,undefined,,6.805e+26,,,,0.00049305,,,0.00015005,,,,
18650,10.1016/j.jmat.2015.09.001,26378,3(b),31991,Sn(1-x)MnxTe_ x=0.15,undefined,,6.81e+26,,,,0.00049293,,,0.00014998,,,,
18650,10.1016/j.jmat.2015.09.001,26378,3(b),31991,Sn(1-x)MnxTe_ x=0.15,undefined,,6.815e+26,,,,0.00049281,,,0.00014992,,,,
18650,10.1016/j.jmat.2015.09.001,26378,3(b),31991,Sn(1-x)MnxTe_ x=0.15,undefined,,6.82e+26,,,,0.00049269,,,0.00014985,,,,
18650,10.1016/j.jmat.2015.09.001,26378,3(b),31991,Sn(1-x)MnxTe_ x=0.15,undefined,,6.825e+26,,,,0.00049256,,,0.00014978,,,,
18650,10.1016/j.jmat.2015.09.001,26378,3(b),31991,Sn(1-x)MnxTe_ x=0.15,undefined,,6.83e+26,,,,0.00049244,,,0.00014971,,,,
18650,10.1016/j.jmat.2015.09.001,26378,3(b),31991,Sn(1-x)MnxTe_ x=0.15,undefined,,6.835e+26,,,,0.00049232,,,0.00014965,,,,
18650,10.1016/j.jmat.2015.09.001,26378,3(b),31991,Sn(1-x)MnxTe_ x=0.15,undefined,,6.84e+26,,,,0.0004922,,,0.00014958,,,,
18650,10.1016/j.jmat.2015.09.001,26378,3(b),31991,Sn(1-x)MnxTe_ x=0.15,undefined,,6.845e+26,,,,0.00049208,,,0.00014951,,,,
18650,10.1016/j.jmat.2015.09.001,26378,3(b),31991,Sn(1-x)MnxTe_ x=0.15,undefined,,6.85e+26,,,,0.00049196,,,0.00014944,,,,
18650,10.1016/j.jmat.2015.09.001,26378,3(b),31991,Sn(1-x)MnxTe_ x=0.15,undefined,,6.855e+26,,,,0.00049184,,,0.00014938,,,,
18650,10.1016/j.jmat.2015.09.001,26378,3(b),31991,Sn(1-x)MnxTe_ x=0.15,undefined,,6.86e+26,,,,0.00049172,,,0.00014931,,,,
18650,10.1016/j.jmat.2015.09.001,26378,3(b),31991,Sn(1-x)MnxTe_ x=0.15,undefined,,6.865e+26,,,,0.00049159,,,0.00014924,,,,
18650,10.1016/j.jmat.2015.09.001,26378,3(b),31991,Sn(1-x)MnxTe_ x=0.15,undefined,,6.87e+26,,,,0.00049147,,,0.00014917,,,,
18650,10.1016/j.jmat.2015.09.001,26378,3(b),31991,Sn(1-x)MnxTe_ x=0.15,undefined,,6.875e+26,,,,0.00049135,,,0.0001491,,,,