sid,DOI,figureid,fignum,sampleid,samplename,composition,Temperature,Carrier concentration,Electrical conductivity,Electrical resistivity,Hall coefficient,Hall movility,Lattice thermal conductivity,Power factor,Seebeck coefficient,Thermal conductivity,ZT,total thermal conductivity,Figure of merit Z
2798,10.1039/c4ta04462b,5789,3(b),7213,x=0,SnS,350,,-172.96,-0.0057817,,,,-0.000010998,0.00049688,1.0974,-0.019564,,-0.0000100219
2798,10.1039/c4ta04462b,5789,3(b),7213,x=0,SnS,400,-4.4331e+22,-350.94,-0.0028495,,0.00086307,,-0.000003208,0.00050898,1.0332,-0.0083167,,-0.0000031049
2798,10.1039/c4ta04462b,5789,3(b),7213,x=0,SnS,450,1.8713e+22,12096,0.000082674,,0.00093063,,0.0000045821,0.00052108,0.96895,0.0029302,,0.0000047289
2798,10.1039/c4ta04462b,5789,3(b),7213,x=0,SnS,500,8.1757e+22,331.69,0.0030149,,0.0009982,,0.000012372,0.00053318,0.90474,0.014177,,0.0000136746
2798,10.1039/c4ta04462b,5789,3(b),7213,x=0,SnS,550,1.448e+23,168.15,0.0059471,,0.0010658,,0.000020162,0.00054528,0.84053,0.025424,,0.0000239872
2798,10.1039/c4ta04462b,5789,3(b),7213,x=0,SnS,600,2.0785e+23,112.62,0.0088793,,0.0011333,,0.000027952,0.00055738,0.77633,0.036671,,0.0000360053
2798,10.1039/c4ta04462b,5789,3(b),7213,x=0,SnS,650,2.7089e+23,84.667,0.011811,,0.0012009,,0.000035743,0.00056948,0.71212,0.047918,,0.0000501924
2798,10.1039/c4ta04462b,5789,3(b),7213,x=0,SnS,700,,67.824,0.014744,,,,0.000043533,0.00058158,0.64791,0.059165,,0.0000671899
2798,10.1039/c4ta04462b,5789,3(b),7213,x=0,SnS,750,,56.574,0.017676,,,,0.000051323,0.00059369,0.5837,0.070412,,0.000087927
2798,10.1039/c4ta04462b,5789,3(b),7213,x=0,SnS,800,,48.525,0.020608,,,,0.000059113,0.00060579,0.5195,0.081658,,0.0001137883
2798,10.1039/c4ta04462b,5789,3(b),7214,x=0.05,Sn0.9995Ag0.0005S,350,,-186.91,-0.0053502,,,,-0.0000084826,0.00059175,1.1098,-0.0026752,,-0.0000076434
2798,10.1039/c4ta04462b,5789,3(b),7214,x=0.05,Sn0.9995Ag0.0005S,400,2.4786e+24,-391.54,-0.002554,,0.0010439,,-0.0000018363,0.00058982,1.0476,-0.00070115,,-0.0000017529
2798,10.1039/c4ta04462b,5789,3(b),7214,x=0.05,Sn0.9995Ag0.0005S,450,2.348e+24,4129.7,0.00024215,,0.00099513,,0.0000048099,0.00058789,0.98529,-0.012849,,0.0000048817
2798,10.1039/c4ta04462b,5789,3(b),7214,x=0.05,Sn0.9995Ag0.0005S,500,2.2173e+24,329.13,0.0030383,,0.00094639,,0.000011456,0.00058596,0.92301,-0.00097804,,0.0000124116
2798,10.1039/c4ta04462b,5789,3(b),7214,x=0.05,Sn0.9995Ag0.0005S,550,2.0867e+24,171.39,0.0058345,,0.00089765,,0.000018102,0.00058404,0.86074,0.010893,,0.0000210307
2798,10.1039/c4ta04462b,5789,3(b),7214,x=0.05,Sn0.9995Ag0.0005S,600,1.956e+24,115.87,0.0086306,,0.00084891,,0.000024749,0.00058211,0.79846,0.022765,,0.0000309959
2798,10.1039/c4ta04462b,5789,3(b),7214,x=0.05,Sn0.9995Ag0.0005S,650,1.8254e+24,87.512,0.011427,,0.00080017,,0.000031395,0.00058018,0.73619,0.034636,,0.0000426452
2798,10.1039/c4ta04462b,5789,3(b),7214,x=0.05,Sn0.9995Ag0.0005S,700,,70.309,0.014223,,,,0.000038041,0.00057825,0.67391,0.046508,,0.0000564482
2798,10.1039/c4ta04462b,5789,3(b),7214,x=0.05,Sn0.9995Ag0.0005S,750,,58.758,0.017019,,,,0.000044687,0.00057633,0.61164,0.058379,,0.000073061
2798,10.1039/c4ta04462b,5789,3(b),7214,x=0.05,Sn0.9995Ag0.0005S,800,,50.467,0.019815,,,,0.000051333,0.0005744,0.54937,0.07025,,0.0000934398
2798,10.1039/c4ta04462b,5789,3(b),7215,x=0.25,Sn0.9975Ag0.0025S,350,,66.146,0.015118,,,,0.000037436,0.00045836,0.95774,-0.033091,,0.0000390879
2798,10.1039/c4ta04462b,5789,3(b),7215,x=0.25,Sn0.9975Ag0.0025S,400,,43.64,0.022915,,,,0.000051076,0.00046148,0.90581,-0.0022289,,0.0000563871
2798,10.1039/c4ta04462b,5789,3(b),7215,x=0.25,Sn0.9975Ag0.0025S,450,,32.561,0.030712,,,,0.000064716,0.0004646,0.85387,0.028633,,0.0000757914
2798,10.1039/c4ta04462b,5789,3(b),7215,x=0.25,Sn0.9975Ag0.0025S,500,,25.968,0.038509,,,,0.000078356,0.00046772,0.80194,0.059495,,0.0000977081
2798,10.1039/c4ta04462b,5789,3(b),7215,x=0.25,Sn0.9975Ag0.0025S,550,,21.595,0.046306,,,,0.000091996,0.00047084,0.75,0.090357,,0.0001226613
2798,10.1039/c4ta04462b,5789,3(b),7215,x=0.25,Sn0.9975Ag0.0025S,600,,18.483,0.054103,,,,0.00010564,0.00047397,0.69807,0.12122,,0.0001513315
2798,10.1039/c4ta04462b,5789,3(b),7215,x=0.25,Sn0.9975Ag0.0025S,650,,16.155,0.0619,,,,0.00011928,0.00047709,0.64613,0.15208,,0.0001846068
2798,10.1039/c4ta04462b,5789,3(b),7215,x=0.25,Sn0.9975Ag0.0025S,700,,14.348,0.069697,,,,0.00013292,0.00048021,0.5942,0.18294,,0.0002236957
2798,10.1039/c4ta04462b,5789,3(b),7215,x=0.25,Sn0.9975Ag0.0025S,750,,12.904,0.077494,,,,0.00014656,0.00048333,0.54226,0.2138,,0.0002702763
2798,10.1039/c4ta04462b,5789,3(b),7215,x=0.25,Sn0.9975Ag0.0025S,800,,11.725,0.08529,,,,0.0001602,0.00048645,0.49033,0.24467,,0.0003267187
2798,10.1039/c4ta04462b,5789,3(b),7215,x=0.25,Sn0.9975Ag0.0025S,850,,10.743,0.093087,,,,0.00017384,0.00048957,0.43839,0.27553,,0.0003965419
2798,10.1039/c4ta04462b,5789,3(b),7216,x=0.5,Sn0.995Ag0.005S,350,,68.032,0.014699,,,,0.000027226,0.00040218,0.72778,-0.046661,,0.0000374097
2798,10.1039/c4ta04462b,5789,3(b),7216,x=0.5,Sn0.995Ag0.005S,400,,35.566,0.028117,,,,0.000047512,0.00040544,0.69872,0.0002515,,0.0000679986
2798,10.1039/c4ta04462b,5789,3(b),7216,x=0.5,Sn0.995Ag0.005S,450,,24.076,0.041535,,,,0.000067799,0.0004087,0.66965,0.047164,,0.0001012454
2798,10.1039/c4ta04462b,5789,3(b),7216,x=0.5,Sn0.995Ag0.005S,500,,18.197,0.054953,,,,0.000088085,0.00041196,0.64059,0.094077,,0.000137506
2798,10.1039/c4ta04462b,5789,3(b),7216,x=0.5,Sn0.995Ag0.005S,550,,14.626,0.06837,,,,0.00010837,0.00041521,0.61153,0.14099,,0.0001772113
2798,10.1039/c4ta04462b,5789,3(b),7216,x=0.5,Sn0.995Ag0.005S,600,,12.227,0.081788,,,,0.00012866,0.00041847,0.58247,0.1879,,0.0002208869
2798,10.1039/c4ta04462b,5789,3(b),7216,x=0.5,Sn0.995Ag0.005S,650,,10.504,0.095206,,,,0.00014894,0.00042173,0.5534,0.23482,,0.0002691362
2798,10.1039/c4ta04462b,5789,3(b),7216,x=0.5,Sn0.995Ag0.005S,700,,9.2064,0.10862,,,,0.00016923,0.00042499,0.52434,0.28173,,0.0003227486
2798,10.1039/c4ta04462b,5789,3(b),7216,x=0.5,Sn0.995Ag0.005S,750,,8.194,0.12204,,,,0.00018952,0.00042824,0.49528,0.32864,,0.0003826522
2798,10.1039/c4ta04462b,5789,3(b),7216,x=0.5,Sn0.995Ag0.005S,800,,7.3823,0.13546,,,,0.0002098,0.0004315,0.46622,0.37555,,0.0004500021
2798,10.1039/c4ta04462b,5789,3(b),7216,x=0.5,Sn0.995Ag0.005S,850,,6.7168,0.14888,,,,0.00023009,0.00043476,0.43715,0.42247,,0.0005263411
2798,10.1039/c4ta04462b,5789,3(b),7216,x=0.5,Sn0.995Ag0.005S,900,,6.1618,0.16229,,,,0.00025038,0.00043802,0.40809,0.46938,,0.0006135411
2798,10.1039/c4ta04462b,5789,3(b),7217,x=1,Sn0.99Ag0.01S,350,,74.94,0.013344,,,,0.000013638,0.00037817,0.9598,-0.020936,,0.0000142092
2798,10.1039/c4ta04462b,5789,3(b),7217,x=1,Sn0.99Ag0.01S,400,,44.829,0.022307,,,,0.000032892,0.0003888,0.91124,0.0080915,,0.0000360959
2798,10.1039/c4ta04462b,5789,3(b),7217,x=1,Sn0.99Ag0.01S,450,,31.981,0.031269,,,,0.000052146,0.00039943,0.86269,0.037119,,0.0000604458
2798,10.1039/c4ta04462b,5789,3(b),7217,x=1,Sn0.99Ag0.01S,500,,24.856,0.040232,,,,0.0000714,0.00041006,0.81413,0.066147,,0.000087701
2798,10.1039/c4ta04462b,5789,3(b),7217,x=1,Sn0.99Ag0.01S,550,,20.327,0.049195,,,,0.000090655,0.00042069,0.76558,0.095175,,0.0001184135
2798,10.1039/c4ta04462b,5789,3(b),7217,x=1,Sn0.99Ag0.01S,600,,17.195,0.058157,,,,0.00010991,0.00043132,0.71702,0.1242,,0.0001532872
2798,10.1039/c4ta04462b,5789,3(b),7217,x=1,Sn0.99Ag0.01S,650,,14.899,0.06712,,,,0.00012916,0.00044194,0.66847,0.15323,,0.0001932173
2798,10.1039/c4ta04462b,5789,3(b),7217,x=1,Sn0.99Ag0.01S,700,,13.144,0.076083,,,,0.00014842,0.00045257,0.61991,0.18226,,0.0002394219
2798,10.1039/c4ta04462b,5789,3(b),7217,x=1,Sn0.99Ag0.01S,750,,11.758,0.085045,,,,0.00016767,0.0004632,0.57135,0.21129,,0.0002934629
2798,10.1039/c4ta04462b,5789,3(b),7217,x=1,Sn0.99Ag0.01S,800,,10.637,0.094008,,,,0.00018693,0.00047383,0.5228,0.24031,,0.0003575555
2798,10.1039/c4ta04462b,5789,3(b),7218,x=2,Sn0.98Ag0.02S,350,,17.973,0.055639,,,,0.000077337,0.00037156,1.214,0.0051345,,0.0000637043
2798,10.1039/c4ta04462b,5789,3(b),7218,x=2,Sn0.98Ag0.02S,400,,17.428,0.057378,,,,0.000086823,0.0003817,1.1379,0.022487,,0.0000763011
2798,10.1039/c4ta04462b,5789,3(b),7218,x=2,Sn0.98Ag0.02S,450,,16.916,0.059117,,,,0.000096309,0.00039185,1.0619,0.03984,,0.000090695
2798,10.1039/c4ta04462b,5789,3(b),7218,x=2,Sn0.98Ag0.02S,500,,16.432,0.060857,,,,0.00010579,0.00040199,0.98582,0.057193,,0.0001073117
2798,10.1039/c4ta04462b,5789,3(b),7218,x=2,Sn0.98Ag0.02S,550,,15.975,0.062596,,,,0.00011528,0.00041213,0.90977,0.074546,,0.0001267133
2798,10.1039/c4ta04462b,5789,3(b),7218,x=2,Sn0.98Ag0.02S,600,,15.544,0.064335,,,,0.00012477,0.00042227,0.83372,0.091899,,0.0001496546
2798,10.1039/c4ta04462b,5789,3(b),7218,x=2,Sn0.98Ag0.02S,650,,15.134,0.066075,,,,0.00013425,0.00043241,0.75767,0.10925,,0.000177188
2798,10.1039/c4ta04462b,5789,3(b),7218,x=2,Sn0.98Ag0.02S,700,,14.746,0.067814,,,,0.00014374,0.00044255,0.68163,0.1266,,0.0002108769
2798,10.1039/c4ta04462b,5789,3(b),7218,x=2,Sn0.98Ag0.02S,750,,14.378,0.069553,,,,0.00015322,0.00045269,0.60558,0.14396,,0.0002530136
5919,10.1002/aelm.201600019,2133,3(c),3207,x=0,SnTe,300,,,,,,2.9155,,,8.0519,,,
5919,10.1002/aelm.201600019,2133,3(c),3207,x=0,SnTe,350,,0.014637,68.32,7.77e-8,0.050602,2.537,0,0.000014131,7.571,0.0097533,,0
5919,10.1002/aelm.201600019,2133,3(c),3207,x=0,SnTe,400,,0.018915,52.868,8.67e-8,0.046477,2.3259,0,0.000019644,6.9582,0.014207,,0
5919,10.1002/aelm.201600019,2133,3(c),3207,x=0,SnTe,450,,0.024158,41.394,9.56e-8,0.042353,2.2012,0,0.000026911,6.298,0.022152,,0
5919,10.1002/aelm.201600019,2133,3(c),3207,x=0,SnTe,500,,0.029709,33.66,1.046e-7,0.038229,2.1115,0,0.000035881,5.6398,0.038345,,0
5919,10.1002/aelm.201600019,2133,3(c),3207,x=0,SnTe,550,,0.036171,27.646,1.135e-7,0.034104,2.0295,1e-10,0.000046819,5.0077,0.066962,,0
5919,10.1002/aelm.201600019,2133,3(c),3207,x=0,SnTe,600,,0.044835,22.304,1.224e-7,0.02998,1.9456,2e-10,0.00006003,4.4111,0.11055,,0
5919,10.1002/aelm.201600019,2133,3(c),3207,x=0,SnTe,650,,0.057098,17.514,1.314e-7,0.025855,1.8628,3e-10,0.000075575,3.8539,0.16899,,1e-10
5919,10.1002/aelm.201600019,2133,3(c),3207,x=0,SnTe,700,,0.073889,13.534,1.403e-7,0.021731,1.7902,6e-10,0.000092997,3.3454,0.23842,,2e-10
5919,10.1002/aelm.201600019,2133,3(c),3207,x=0,SnTe,750,,0.095086,10.517,1.493e-7,0.017607,1.738,1.2e-9,0.00011104,2.9096,0.31025,,4e-10
5919,10.1002/aelm.201600019,2133,3(c),3207,x=0,SnTe,800,,0.11895,8.4069,1.582e-7,0.013482,1.7108,1.9e-9,0.00012736,2.5957,0.37005,,7e-10
5919,10.1002/aelm.201600019,2133,3(c),3207,x=0,SnTe,850,,,,,,,,,2.4881,0.39656,,
5919,10.1002/aelm.201600019,2133,3(c),3208,x=0.02,(SnTe)0.98(Cu2Te)0.02,300,,,,,,2.64,,,7.9051,,,
5919,10.1002/aelm.201600019,2133,3(c),3208,x=0.02,(SnTe)0.98(Cu2Te)0.02,350,,0.016636,60.111,6.03e-8,0.03408,2.4519,0,0.000010538,7.1412,0.010345,,0
5919,10.1002/aelm.201600019,2133,3(c),3208,x=0.02,(SnTe)0.98(Cu2Te)0.02,400,,0.019746,50.643,6.55e-8,0.031407,2.299,0,0.000013868,6.5273,0.010405,,0
5919,10.1002/aelm.201600019,2133,3(c),3208,x=0.02,(SnTe)0.98(Cu2Te)0.02,450,,0.023005,43.469,7.07e-8,0.028734,2.1708,0,0.000018066,5.9638,0.014405,,0
5919,10.1002/aelm.201600019,2133,3(c),3208,x=0.02,(SnTe)0.98(Cu2Te)0.02,500,,0.02769,36.114,7.58e-8,0.02606,2.0591,0,0.000023543,5.3975,0.030241,,0
5919,10.1002/aelm.201600019,2133,3(c),3208,x=0.02,(SnTe)0.98(Cu2Te)0.02,550,,0.035174,28.43,8.1e-8,0.023387,1.958,0,0.00003145,4.8124,0.062189,,0
5919,10.1002/aelm.201600019,2133,3(c),3208,x=0.02,(SnTe)0.98(Cu2Te)0.02,600,,0.046725,21.402,8.62e-8,0.020714,1.8636,1e-10,0.000043189,4.2207,0.11168,,0
5919,10.1002/aelm.201600019,2133,3(c),3208,x=0.02,(SnTe)0.98(Cu2Te)0.02,650,,0.063312,15.795,9.14e-8,0.018041,1.7747,2e-10,0.000059914,3.6534,0.17806,,1e-10
5919,10.1002/aelm.201600019,2133,3(c),3208,x=0.02,(SnTe)0.98(Cu2Te)0.02,700,,0.085411,11.708,9.66e-8,0.015368,1.6925,6e-10,0.000082044,3.1508,0.25941,,2e-10
5919,10.1002/aelm.201600019,2133,3(c),3208,x=0.02,(SnTe)0.98(Cu2Te)0.02,750,,0.11281,8.8645,1.018e-7,0.012694,1.6206,1.3e-9,0.00010877,2.7539,0.35326,,5e-10
5919,10.1002/aelm.201600019,2133,3(c),3208,x=0.02,(SnTe)0.98(Cu2Te)0.02,800,,0.14439,6.9257,1.07e-7,0.010021,1.5652,2.7e-9,0.00013755,2.4946,0.45743,,1.1e-9
5919,10.1002/aelm.201600019,2136,6(b),3208,x=0.02,(SnTe)0.98(Cu2Te)0.02,850,,,,1.122e-7,,,,0.00016364,,,,
5919,10.1002/aelm.201600019,2133,3(c),3209,x=0.03,(SnTe)0.97(Cu2Te)0.03,300,,,,,,1.8158,,,7.7308,,,
5919,10.1002/aelm.201600019,2133,3(c),3209,x=0.03,(SnTe)0.97(Cu2Te)0.03,350,,0.01695,58.997,6.27e-8,0.029003,1.7253,0,0.000013032,7.2829,0.01028,,0
5919,10.1002/aelm.201600019,2133,3(c),3209,x=0.03,(SnTe)0.97(Cu2Te)0.03,400,,0.021655,46.179,6.67e-8,0.026584,1.6341,0,0.000018468,6.7625,0.0099975,,0
5919,10.1002/aelm.201600019,2133,3(c),3209,x=0.03,(SnTe)0.97(Cu2Te)0.03,450,,0.026599,37.595,7.06e-8,0.024165,1.5362,0,0.000026008,6.1722,0.014638,,0
5919,10.1002/aelm.201600019,2133,3(c),3209,x=0.03,(SnTe)0.97(Cu2Te)0.03,500,,0.032034,31.217,7.45e-8,0.021746,1.4327,0,0.000035244,5.5373,0.028991,,0
5919,10.1002/aelm.201600019,2133,3(c),3209,x=0.03,(SnTe)0.97(Cu2Te)0.03,550,,0.038974,25.658,7.85e-8,0.019327,1.3296,1e-10,0.000046237,4.8945,0.056327,,0
5919,10.1002/aelm.201600019,2133,3(c),3209,x=0.03,(SnTe)0.97(Cu2Te)0.03,600,,0.048823,20.482,8.24e-8,0.016907,1.2349,2e-10,0.000059324,4.2819,0.099388,,0
5919,10.1002/aelm.201600019,2133,3(c),3209,x=0.03,(SnTe)0.97(Cu2Te)0.03,650,,0.063015,15.869,8.63e-8,0.014488,1.1561,4e-10,0.000074938,3.7275,0.16137,,1e-10
5919,10.1002/aelm.201600019,2133,3(c),3209,x=0.03,(SnTe)0.97(Cu2Te)0.03,700,,0.082647,12.1,9.03e-8,0.012069,1.0976,7e-10,0.000093406,3.239,0.24692,,2e-10
5919,10.1002/aelm.201600019,2133,3(c),3209,x=0.03,(SnTe)0.97(Cu2Te)0.03,750,,0.10811,9.2498,9.42e-8,0.0096499,1.0581,1.4e-9,0.00011477,2.7925,0.36311,,5e-10
5919,10.1002/aelm.201600019,2133,3(c),3209,x=0.03,(SnTe)0.97(Cu2Te)0.03,800,,0.13875,7.2072,9.81e-8,0.0072307,1.028,2.7e-9,0.00013858,2.3222,0.52043,,1.1e-9
5919,10.1002/aelm.201600019,2133,3(c),3209,x=0.03,(SnTe)0.97(Cu2Te)0.03,850,,,,,,,,,1.7091,,,
5919,10.1002/aelm.201600019,2133,3(c),3210,x=0.04,(SnTe)0.96(Cu2Te)0.04,300,,,,,0.029766,1.2057,,,5.9339,,,
5919,10.1002/aelm.201600019,2133,3(c),3210,x=0.04,(SnTe)0.96(Cu2Te)0.04,350,,0.016072,62.22,5.31e-8,0.027545,1.0037,0,0.000018766,5.5262,0.0055712,,0
5919,10.1002/aelm.201600019,2133,3(c),3210,x=0.04,(SnTe)0.96(Cu2Te)0.04,400,,0.019228,52.007,5.6e-8,0.025324,0.91458,0,0.000022843,5.0851,0.0083264,,0
5919,10.1002/aelm.201600019,2133,3(c),3210,x=0.04,(SnTe)0.96(Cu2Te)0.04,450,,0.023109,43.273,5.89e-8,0.023104,0.87667,0,0.000028265,4.6257,0.015652,,0
5919,10.1002/aelm.201600019,2133,3(c),3210,x=0.04,(SnTe)0.96(Cu2Te)0.04,500,,0.027729,36.063,6.18e-8,0.020883,0.85168,0,0.000035171,4.164,0.029673,,0
5919,10.1002/aelm.201600019,2133,3(c),3210,x=0.04,(SnTe)0.96(Cu2Te)0.04,550,,0.033553,29.804,6.47e-8,0.018662,0.82007,1e-10,0.000043884,3.7143,0.054371,,0
5919,10.1002/aelm.201600019,2133,3(c),3210,x=0.04,(SnTe)0.96(Cu2Te)0.04,600,,0.041436,24.134,6.76e-8,0.016441,0.77642,1e-10,0.000054836,3.2869,0.095686,,0
5919,10.1002/aelm.201600019,2133,3(c),3210,x=0.04,(SnTe)0.96(Cu2Te)0.04,650,,0.052564,19.024,7.05e-8,0.01422,0.7248,2e-10,0.000068493,2.8863,0.16161,,1e-10
5919,10.1002/aelm.201600019,2133,3(c),3210,x=0.04,(SnTe)0.96(Cu2Te)0.04,700,,0.068397,14.621,7.34e-8,0.011999,0.67422,5e-10,0.000085279,2.5089,0.26226,,2e-10
5919,10.1002/aelm.201600019,2133,3(c),3210,x=0.04,(SnTe)0.96(Cu2Te)0.04,750,,0.090607,11.037,7.63e-8,0.0097783,0.63393,1e-9,0.0001055,2.1405,0.41004,,5e-10
5919,10.1002/aelm.201600019,2133,3(c),3210,x=0.04,(SnTe)0.96(Cu2Te)0.04,800,,0.12102,8.2631,7.92e-8,0.0075574,0.6089,2e-9,0.00012926,1.7544,0.61963,,1.2e-9
5919,10.1002/aelm.201600019,2133,3(c),3210,x=0.04,(SnTe)0.96(Cu2Te)0.04,850,,,,,,,,,1.3093,,,
5919,10.1002/aelm.201600019,2133,3(c),3211,x=0.05,(SnTe)0.95(Cu2Te)0.05,300,,,,,,,,,4.9125,,,
5919,10.1002/aelm.201600019,2133,3(c),3211,x=0.05,(SnTe)0.95(Cu2Te)0.05,350,,0.020556,48.648,3.93e-8,0.015423,1.0184,0,0.000017144,4.6822,0.018293,,0
5919,10.1002/aelm.201600019,2133,3(c),3211,x=0.05,(SnTe)0.95(Cu2Te)0.05,400,,0.024224,41.281,3.91e-8,0.014174,0.91244,0,0.000019589,4.3337,0.010662,,0
5919,10.1002/aelm.201600019,2133,3(c),3211,x=0.05,(SnTe)0.95(Cu2Te)0.05,450,,0.029555,33.835,3.88e-8,0.012925,0.86079,0,0.000023203,3.9535,0.010787,,0
5919,10.1002/aelm.201600019,2133,3(c),3211,x=0.05,(SnTe)0.95(Cu2Te)0.05,500,,0.036161,27.654,3.86e-8,0.011676,0.82939,0,0.00002876,3.5842,0.028537,,0
5919,10.1002/aelm.201600019,2133,3(c),3211,x=0.05,(SnTe)0.95(Cu2Te)0.05,550,,0.043695,22.886,3.83e-8,0.010428,0.80098,1e-10,0.000036592,3.2368,0.06127,,0
5919,10.1002/aelm.201600019,2133,3(c),3211,x=0.05,(SnTe)0.95(Cu2Te)0.05,600,,0.052054,19.211,3.81e-8,0.0091788,0.76971,1e-10,0.000046786,2.9026,0.10254,,0
5919,10.1002/aelm.201600019,2133,3(c),3211,x=0.05,(SnTe)0.95(Cu2Te)0.05,650,,0.061589,16.237,3.78e-8,0.00793,0.7357,2e-10,0.000059383,2.5652,0.15081,,1e-10
5919,10.1002/aelm.201600019,2133,3(c),3211,x=0.05,(SnTe)0.95(Cu2Te)0.05,700,,0.073314,13.64,3.76e-8,0.0066812,0.69966,4e-10,0.000074576,2.2126,0.21815,,2e-10
5919,10.1002/aelm.201600019,2133,3(c),3211,x=0.05,(SnTe)0.95(Cu2Te)0.05,750,,0.089107,11.222,3.73e-8,0.0054323,0.65749,8e-10,0.000092904,1.8488,0.33893,,4e-10
5919,10.1002/aelm.201600019,2133,3(c),3211,x=0.05,(SnTe)0.95(Cu2Te)0.05,800,,0.11192,8.935,3.71e-8,0.0041835,0.59491,1.5e-9,0.00011545,1.5064,0.57856,,1e-9
5919,10.1002/aelm.201600019,2133,3(c),3211,x=0.05,(SnTe)0.95(Cu2Te)0.05,850,,,,3.68e-8,0.0029347,,,0.00014406,1.2579,,,
5919,10.1002/aelm.201600019,2134,3(c)_lattice,3212,x=0.06,(SnTe)0.94(Cu2Te)0.06,300,,,,,,1.1594,,,4.4093,,,
5919,10.1002/aelm.201600019,2134,3(c)_lattice,3212,x=0.06,(SnTe)0.94(Cu2Te)0.06,350,,0.015949,62.7,2.69e-8,0.013451,0.8468,0,0.000012481,4.2125,0.012795,,0
5919,10.1002/aelm.201600019,2134,3(c)_lattice,3212,x=0.06,(SnTe)0.94(Cu2Te)0.06,400,,0.018749,53.336,2.9e-8,0.012698,0.74557,0,0.000015106,3.9266,0.018204,,0
5919,10.1002/aelm.201600019,2134,3(c)_lattice,3212,x=0.06,(SnTe)0.94(Cu2Te)0.06,450,,0.021365,46.806,3.1e-8,0.011945,0.71675,0,0.000019174,3.6094,0.027685,,0
5919,10.1002/aelm.201600019,2134,3(c)_lattice,3212,x=0.06,(SnTe)0.94(Cu2Te)0.06,500,,0.02561,39.047,3.3e-8,0.011192,0.68674,0,0.000026009,3.2928,0.046809,,0
5919,10.1002/aelm.201600019,2134,3(c)_lattice,3212,x=0.06,(SnTe)0.94(Cu2Te)0.06,550,,0.032192,31.064,3.5e-8,0.010439,0.63097,0,0.000036122,2.9888,0.081722,,0
5919,10.1002/aelm.201600019,2134,3(c)_lattice,3212,x=0.06,(SnTe)0.94(Cu2Te)0.06,600,,0.041321,24.201,3.71e-8,0.0096861,0.55758,1e-10,0.000049481,2.6955,0.13921,,0
5919,10.1002/aelm.201600019,2134,3(c)_lattice,3212,x=0.06,(SnTe)0.94(Cu2Te)0.06,650,,0.053325,18.753,3.91e-8,0.0089331,0.49113,2e-10,0.00006578,2.4032,0.22676,,1e-10
5919,10.1002/aelm.201600019,2134,3(c)_lattice,3212,x=0.06,(SnTe)0.94(Cu2Te)0.06,700,,0.069256,14.439,4.11e-8,0.0081801,0.45629,5e-10,0.000084721,2.1006,0.35264,,2e-10
5919,10.1002/aelm.201600019,2134,3(c)_lattice,3212,x=0.06,(SnTe)0.94(Cu2Te)0.06,750,,0.091508,10.928,4.32e-8,0.0074271,0.46153,1e-9,0.00010627,1.7806,0.52593,,6e-10
5919,10.1002/aelm.201600019,2134,3(c)_lattice,3212,x=0.06,(SnTe)0.94(Cu2Te)0.06,800,,0.12442,8.0373,,0.0066742,0.48283,2.1e-9,0.00013096,1.4467,0.75661,,1.5e-9
5919,10.1002/aelm.201600019,2134,3(c)_lattice,3212,x=0.06,(SnTe)0.94(Cu2Te)0.06,850,,,,,,0.44739,,,,,,
5919,10.1002/aelm.201600019,26381,5(a),33044,(SnTe)1−x(Cu2Te)x,undefined,,9.65e+25,,,,0.010934,,,0.000083855,,,,
5919,10.1002/aelm.201600019,26381,5(a),33044,(SnTe)1−x(Cu2Te)x,undefined,,9.7e+25,,,,0.010856,,,0.000083788,,,,
5919,10.1002/aelm.201600019,26381,5(a),33044,(SnTe)1−x(Cu2Te)x,undefined,,9.75e+25,,,,0.010778,,,0.000083722,,,,
5919,10.1002/aelm.201600019,26381,5(a),33044,(SnTe)1−x(Cu2Te)x,undefined,,9.8e+25,,,,0.0107,,,0.000083655,,,,
5919,10.1002/aelm.201600019,26381,5(a),33044,(SnTe)1−x(Cu2Te)x,undefined,,9.85e+25,,,,0.010622,,,0.000083589,,,,
5919,10.1002/aelm.201600019,26381,5(a),33044,(SnTe)1−x(Cu2Te)x,undefined,,9.9e+25,,,,0.010544,,,0.000083522,,,,
5919,10.1002/aelm.201600019,26381,5(a),33044,(SnTe)1−x(Cu2Te)x,undefined,,9.95e+25,,,,0.010466,,,0.000083456,,,,