sid,DOI,figureid,fignum,sampleid,samplename,composition,Temperature,Carrier concentration,Electrical conductivity,Electrical resistivity,Hall coefficient,Hall movility,Lattice thermal conductivity,Power factor,Seebeck coefficient,Thermal conductivity,ZT,total thermal conductivity,Figure of merit Z
18650,10.1016/j.jmat.2015.09.001,26377,4(a),31991,Sn(1-x)MnxTe_ x=0.15,undefined,,2.05e+26,,,,0.00060843,,,0.00021449,,,,
18650,10.1016/j.jmat.2015.09.001,26377,4(a),31991,Sn(1-x)MnxTe_ x=0.15,undefined,,2.055e+26,,,,0.0006083,,,0.00021442,,,,
18650,10.1016/j.jmat.2015.09.001,26377,4(a),31991,Sn(1-x)MnxTe_ x=0.15,undefined,,2.06e+26,,,,0.00060818,,,0.00021436,,,,
18650,10.1016/j.jmat.2015.09.001,26377,4(a),31991,Sn(1-x)MnxTe_ x=0.15,undefined,,2.065e+26,,,,0.00060806,,,0.00021429,,,,
18650,10.1016/j.jmat.2015.09.001,26377,4(a),31991,Sn(1-x)MnxTe_ x=0.15,undefined,,2.07e+26,,,,0.00060794,,,0.00021422,,,,
18650,10.1016/j.jmat.2015.09.001,26377,4(a),31991,Sn(1-x)MnxTe_ x=0.15,undefined,,2.075e+26,,,,0.00060782,,,0.00021415,,,,
18650,10.1016/j.jmat.2015.09.001,26377,4(a),31991,Sn(1-x)MnxTe_ x=0.15,undefined,,2.08e+26,,,,0.0006077,,,0.00021408,,,,
18650,10.1016/j.jmat.2015.09.001,26377,4(a),31991,Sn(1-x)MnxTe_ x=0.15,undefined,,2.085e+26,,,,0.00060758,,,0.00021402,,,,
18650,10.1016/j.jmat.2015.09.001,26377,4(a),31991,Sn(1-x)MnxTe_ x=0.15,undefined,,2.09e+26,,,,0.00060745,,,0.00021395,,,,
18650,10.1016/j.jmat.2015.09.001,26377,4(a),31991,Sn(1-x)MnxTe_ x=0.15,undefined,,2.095e+26,,,,0.00060733,,,0.00021388,,,,
18650,10.1016/j.jmat.2015.09.001,26377,4(a),31991,Sn(1-x)MnxTe_ x=0.15,undefined,,2.1e+26,,,,0.00060721,,,0.00021381,,,,
18650,10.1016/j.jmat.2015.09.001,26377,4(a),31991,Sn(1-x)MnxTe_ x=0.15,undefined,,2.105e+26,,,,0.00060709,,,0.00021375,,,,
18650,10.1016/j.jmat.2015.09.001,26377,4(a),31991,Sn(1-x)MnxTe_ x=0.15,undefined,,2.11e+26,,,,0.00060697,,,0.00021368,,,,
18650,10.1016/j.jmat.2015.09.001,26377,4(a),31991,Sn(1-x)MnxTe_ x=0.15,undefined,,2.115e+26,,,,0.00060685,,,0.00021361,,,,
18650,10.1016/j.jmat.2015.09.001,26377,4(a),31991,Sn(1-x)MnxTe_ x=0.15,undefined,,2.12e+26,,,,0.00060673,,,0.00021354,,,,
18650,10.1016/j.jmat.2015.09.001,26377,4(a),31991,Sn(1-x)MnxTe_ x=0.15,undefined,,2.125e+26,,,,0.00060661,,,0.00021347,,,,
18650,10.1016/j.jmat.2015.09.001,26377,4(a),31991,Sn(1-x)MnxTe_ x=0.15,undefined,,2.13e+26,,,,0.00060648,,,0.00021341,,,,
18650,10.1016/j.jmat.2015.09.001,26377,4(a),31991,Sn(1-x)MnxTe_ x=0.15,undefined,,2.135e+26,,,,0.00060636,,,0.00021334,,,,
18650,10.1016/j.jmat.2015.09.001,26377,4(a),31991,Sn(1-x)MnxTe_ x=0.15,undefined,,2.14e+26,,,,0.00060624,,,0.00021327,,,,
18650,10.1016/j.jmat.2015.09.001,26377,4(a),31991,Sn(1-x)MnxTe_ x=0.15,undefined,,2.145e+26,,,,0.00060612,,,0.0002132,,,,
18650,10.1016/j.jmat.2015.09.001,26377,4(a),31991,Sn(1-x)MnxTe_ x=0.15,undefined,,2.15e+26,,,,0.000606,,,0.00021314,,,,
18650,10.1016/j.jmat.2015.09.001,26377,4(a),31991,Sn(1-x)MnxTe_ x=0.15,undefined,,2.155e+26,,,,0.00060588,,,0.00021307,,,,
18650,10.1016/j.jmat.2015.09.001,26377,4(a),31991,Sn(1-x)MnxTe_ x=0.15,undefined,,2.16e+26,,,,0.00060576,,,0.000213,,,,
18650,10.1016/j.jmat.2015.09.001,26377,4(a),31991,Sn(1-x)MnxTe_ x=0.15,undefined,,2.165e+26,,,,0.00060563,,,0.00021293,,,,
18650,10.1016/j.jmat.2015.09.001,26377,4(a),31991,Sn(1-x)MnxTe_ x=0.15,undefined,,2.17e+26,,,,0.00060551,,,0.00021286,,,,
18650,10.1016/j.jmat.2015.09.001,26377,4(a),31991,Sn(1-x)MnxTe_ x=0.15,undefined,,2.175e+26,,,,0.00060539,,,0.0002128,,,,
18650,10.1016/j.jmat.2015.09.001,26377,4(a),31991,Sn(1-x)MnxTe_ x=0.15,undefined,,2.18e+26,,,,0.00060527,,,0.00021273,,,,
18650,10.1016/j.jmat.2015.09.001,26377,4(a),31991,Sn(1-x)MnxTe_ x=0.15,undefined,,2.185e+26,,,,0.00060515,,,0.00021266,,,,
18650,10.1016/j.jmat.2015.09.001,26377,4(a),31991,Sn(1-x)MnxTe_ x=0.15,undefined,,2.19e+26,,,,0.00060503,,,0.00021259,,,,
18650,10.1016/j.jmat.2015.09.001,26377,4(a),31991,Sn(1-x)MnxTe_ x=0.15,undefined,,2.195e+26,,,,0.00060491,,,0.00021253,,,,
18650,10.1016/j.jmat.2015.09.001,26377,4(a),31991,Sn(1-x)MnxTe_ x=0.15,undefined,,2.2e+26,,,,0.00060479,,,0.00021246,,,,
18650,10.1016/j.jmat.2015.09.001,26377,4(a),31991,Sn(1-x)MnxTe_ x=0.15,undefined,,2.205e+26,,,,0.00060466,,,0.00021239,,,,
18650,10.1016/j.jmat.2015.09.001,26377,4(a),31991,Sn(1-x)MnxTe_ x=0.15,undefined,,2.21e+26,,,,0.00060454,,,0.00021232,,,,
18650,10.1016/j.jmat.2015.09.001,26377,4(a),31991,Sn(1-x)MnxTe_ x=0.15,undefined,,2.215e+26,,,,0.00060442,,,0.00021225,,,,
18650,10.1016/j.jmat.2015.09.001,26377,4(a),31991,Sn(1-x)MnxTe_ x=0.15,undefined,,2.22e+26,,,,0.0006043,,,0.00021219,,,,
18650,10.1016/j.jmat.2015.09.001,26377,4(a),31991,Sn(1-x)MnxTe_ x=0.15,undefined,,2.225e+26,,,,0.00060418,,,0.00021212,,,,
18650,10.1016/j.jmat.2015.09.001,26377,4(a),31991,Sn(1-x)MnxTe_ x=0.15,undefined,,2.23e+26,,,,0.00060406,,,0.00021205,,,,
18650,10.1016/j.jmat.2015.09.001,26377,4(a),31991,Sn(1-x)MnxTe_ x=0.15,undefined,,2.235e+26,,,,0.00060394,,,0.00021198,,,,
18650,10.1016/j.jmat.2015.09.001,26377,4(a),31991,Sn(1-x)MnxTe_ x=0.15,undefined,,2.24e+26,,,,0.00060381,,,0.00021192,,,,
18650,10.1016/j.jmat.2015.09.001,26377,4(a),31991,Sn(1-x)MnxTe_ x=0.15,undefined,,2.245e+26,,,,0.00060369,,,0.00021185,,,,
18650,10.1016/j.jmat.2015.09.001,26377,4(a),31991,Sn(1-x)MnxTe_ x=0.15,undefined,,2.25e+26,,,,0.00060357,,,0.00021178,,,,
18650,10.1016/j.jmat.2015.09.001,26377,4(a),31991,Sn(1-x)MnxTe_ x=0.15,undefined,,2.255e+26,,,,0.00060345,,,0.00021171,,,,
18650,10.1016/j.jmat.2015.09.001,26377,4(a),31991,Sn(1-x)MnxTe_ x=0.15,undefined,,2.26e+26,,,,0.00060333,,,0.00021164,,,,
18650,10.1016/j.jmat.2015.09.001,26377,4(a),31991,Sn(1-x)MnxTe_ x=0.15,undefined,,2.265e+26,,,,0.00060321,,,0.00021158,,,,
18650,10.1016/j.jmat.2015.09.001,26377,4(a),31991,Sn(1-x)MnxTe_ x=0.15,undefined,,2.27e+26,,,,0.00060309,,,0.00021151,,,,
18650,10.1016/j.jmat.2015.09.001,26377,4(a),31991,Sn(1-x)MnxTe_ x=0.15,undefined,,2.275e+26,,,,0.00060297,,,0.00021144,,,,
18650,10.1016/j.jmat.2015.09.001,26377,4(a),31991,Sn(1-x)MnxTe_ x=0.15,undefined,,2.28e+26,,,,0.00060284,,,0.00021137,,,,
18650,10.1016/j.jmat.2015.09.001,26377,4(a),31991,Sn(1-x)MnxTe_ x=0.15,undefined,,2.285e+26,,,,0.00060272,,,0.00021131,,,,
18650,10.1016/j.jmat.2015.09.001,26377,4(a),31991,Sn(1-x)MnxTe_ x=0.15,undefined,,2.29e+26,,,,0.0006026,,,0.00021124,,,,
18650,10.1016/j.jmat.2015.09.001,26377,4(a),31991,Sn(1-x)MnxTe_ x=0.15,undefined,,2.295e+26,,,,0.00060248,,,0.00021117,,,,
18650,10.1016/j.jmat.2015.09.001,26377,4(a),31991,Sn(1-x)MnxTe_ x=0.15,undefined,,2.3e+26,,,,0.00060236,,,0.0002111,,,,
18650,10.1016/j.jmat.2015.09.001,26377,4(a),31991,Sn(1-x)MnxTe_ x=0.15,undefined,,2.305e+26,,,,0.00060224,,,0.00021104,,,,
18650,10.1016/j.jmat.2015.09.001,26377,4(a),31991,Sn(1-x)MnxTe_ x=0.15,undefined,,2.31e+26,,,,0.00060212,,,0.00021097,,,,
18650,10.1016/j.jmat.2015.09.001,26377,4(a),31991,Sn(1-x)MnxTe_ x=0.15,undefined,,2.315e+26,,,,0.000602,,,0.0002109,,,,
18650,10.1016/j.jmat.2015.09.001,26377,4(a),31991,Sn(1-x)MnxTe_ x=0.15,undefined,,2.32e+26,,,,0.00060187,,,0.00021083,,,,
18650,10.1016/j.jmat.2015.09.001,26377,4(a),31991,Sn(1-x)MnxTe_ x=0.15,undefined,,2.325e+26,,,,0.00060175,,,0.00021076,,,,
18650,10.1016/j.jmat.2015.09.001,26377,4(a),31991,Sn(1-x)MnxTe_ x=0.15,undefined,,2.33e+26,,,,0.00060163,,,0.0002107,,,,
18650,10.1016/j.jmat.2015.09.001,26377,4(a),31991,Sn(1-x)MnxTe_ x=0.15,undefined,,2.335e+26,,,,0.00060151,,,0.00021063,,,,
18650,10.1016/j.jmat.2015.09.001,26377,4(a),31991,Sn(1-x)MnxTe_ x=0.15,undefined,,2.34e+26,,,,0.00060139,,,0.00021056,,,,
18650,10.1016/j.jmat.2015.09.001,26377,4(a),31991,Sn(1-x)MnxTe_ x=0.15,undefined,,2.345e+26,,,,0.00060127,,,0.00021049,,,,
18650,10.1016/j.jmat.2015.09.001,26377,4(a),31991,Sn(1-x)MnxTe_ x=0.15,undefined,,2.35e+26,,,,0.00060115,,,0.00021043,,,,
18650,10.1016/j.jmat.2015.09.001,26377,4(a),31991,Sn(1-x)MnxTe_ x=0.15,undefined,,2.355e+26,,,,0.00060102,,,0.00021036,,,,
18650,10.1016/j.jmat.2015.09.001,26377,4(a),31991,Sn(1-x)MnxTe_ x=0.15,undefined,,2.36e+26,,,,0.0006009,,,0.00021029,,,,
18650,10.1016/j.jmat.2015.09.001,26377,4(a),31991,Sn(1-x)MnxTe_ x=0.15,undefined,,2.365e+26,,,,0.00060078,,,0.00021022,,,,
18650,10.1016/j.jmat.2015.09.001,26377,4(a),31991,Sn(1-x)MnxTe_ x=0.15,undefined,,2.37e+26,,,,0.00060066,,,0.00021015,,,,
18650,10.1016/j.jmat.2015.09.001,26377,4(a),31991,Sn(1-x)MnxTe_ x=0.15,undefined,,2.375e+26,,,,0.00060054,,,0.00021009,,,,
18650,10.1016/j.jmat.2015.09.001,26377,4(a),31991,Sn(1-x)MnxTe_ x=0.15,undefined,,2.38e+26,,,,0.00060042,,,0.00021002,,,,
18650,10.1016/j.jmat.2015.09.001,26377,4(a),31991,Sn(1-x)MnxTe_ x=0.15,undefined,,2.385e+26,,,,0.0006003,,,0.00020995,,,,
18650,10.1016/j.jmat.2015.09.001,26377,4(a),31991,Sn(1-x)MnxTe_ x=0.15,undefined,,2.39e+26,,,,0.00060018,,,0.00020988,,,,
18650,10.1016/j.jmat.2015.09.001,26377,4(a),31991,Sn(1-x)MnxTe_ x=0.15,undefined,,2.395e+26,,,,0.00060005,,,0.00020982,,,,
18650,10.1016/j.jmat.2015.09.001,26377,4(a),31991,Sn(1-x)MnxTe_ x=0.15,undefined,,2.4e+26,,,,0.00059993,,,0.00020975,,,,
18650,10.1016/j.jmat.2015.09.001,26377,4(a),31991,Sn(1-x)MnxTe_ x=0.15,undefined,,2.405e+26,,,,0.00059981,,,0.00020968,,,,
18650,10.1016/j.jmat.2015.09.001,26377,4(a),31991,Sn(1-x)MnxTe_ x=0.15,undefined,,2.41e+26,,,,0.00059969,,,0.00020961,,,,
18650,10.1016/j.jmat.2015.09.001,26377,4(a),31991,Sn(1-x)MnxTe_ x=0.15,undefined,,2.415e+26,,,,0.00059957,,,0.00020954,,,,
18650,10.1016/j.jmat.2015.09.001,26377,4(a),31991,Sn(1-x)MnxTe_ x=0.15,undefined,,2.42e+26,,,,0.00059945,,,0.00020948,,,,
18650,10.1016/j.jmat.2015.09.001,26377,4(a),31991,Sn(1-x)MnxTe_ x=0.15,undefined,,2.425e+26,,,,0.00059933,,,0.00020941,,,,
18650,10.1016/j.jmat.2015.09.001,26377,4(a),31991,Sn(1-x)MnxTe_ x=0.15,undefined,,2.43e+26,,,,0.0005992,,,0.00020934,,,,
18650,10.1016/j.jmat.2015.09.001,26377,4(a),31991,Sn(1-x)MnxTe_ x=0.15,undefined,,2.435e+26,,,,0.00059908,,,0.00020927,,,,
18650,10.1016/j.jmat.2015.09.001,26377,4(a),31991,Sn(1-x)MnxTe_ x=0.15,undefined,,2.44e+26,,,,0.00059896,,,0.00020921,,,,
18650,10.1016/j.jmat.2015.09.001,26377,4(a),31991,Sn(1-x)MnxTe_ x=0.15,undefined,,2.445e+26,,,,0.00059884,,,0.00020914,,,,
18650,10.1016/j.jmat.2015.09.001,26377,4(a),31991,Sn(1-x)MnxTe_ x=0.15,undefined,,2.45e+26,,,,0.00059872,,,0.00020907,,,,
18650,10.1016/j.jmat.2015.09.001,26377,4(a),31991,Sn(1-x)MnxTe_ x=0.15,undefined,,2.455e+26,,,,0.0005986,,,0.000209,,,,
18650,10.1016/j.jmat.2015.09.001,26377,4(a),31991,Sn(1-x)MnxTe_ x=0.15,undefined,,2.46e+26,,,,0.00059848,,,0.00020893,,,,
18650,10.1016/j.jmat.2015.09.001,26377,4(a),31991,Sn(1-x)MnxTe_ x=0.15,undefined,,2.465e+26,,,,0.00059836,,,0.00020887,,,,
18650,10.1016/j.jmat.2015.09.001,26377,4(a),31991,Sn(1-x)MnxTe_ x=0.15,undefined,,2.47e+26,,,,0.00059823,,,0.0002088,,,,
18650,10.1016/j.jmat.2015.09.001,26377,4(a),31991,Sn(1-x)MnxTe_ x=0.15,undefined,,2.475e+26,,,,0.00059811,,,0.00020873,,,,
18650,10.1016/j.jmat.2015.09.001,26377,4(a),31991,Sn(1-x)MnxTe_ x=0.15,undefined,,2.48e+26,,,,0.00059799,,,0.00020866,,,,
18650,10.1016/j.jmat.2015.09.001,26377,4(a),31991,Sn(1-x)MnxTe_ x=0.15,undefined,,2.485e+26,,,,0.00059787,,,0.0002086,,,,
18650,10.1016/j.jmat.2015.09.001,26377,4(a),31991,Sn(1-x)MnxTe_ x=0.15,undefined,,2.49e+26,,,,0.00059775,,,0.00020853,,,,
18650,10.1016/j.jmat.2015.09.001,26377,4(a),31991,Sn(1-x)MnxTe_ x=0.15,undefined,,2.495e+26,,,,0.00059763,,,0.00020846,,,,
18650,10.1016/j.jmat.2015.09.001,26377,4(a),31991,Sn(1-x)MnxTe_ x=0.15,undefined,,2.5e+26,,,,0.00059751,,,0.00020839,,,,
18650,10.1016/j.jmat.2015.09.001,26377,4(a),31991,Sn(1-x)MnxTe_ x=0.15,undefined,,2.505e+26,,,,0.00059738,,,0.00020832,,,,
18650,10.1016/j.jmat.2015.09.001,26377,4(a),31991,Sn(1-x)MnxTe_ x=0.15,undefined,,2.51e+26,,,,0.00059726,,,0.00020826,,,,
18650,10.1016/j.jmat.2015.09.001,26377,4(a),31991,Sn(1-x)MnxTe_ x=0.15,undefined,,2.515e+26,,,,0.00059714,,,0.00020819,,,,
18650,10.1016/j.jmat.2015.09.001,26377,4(a),31991,Sn(1-x)MnxTe_ x=0.15,undefined,,2.52e+26,,,,0.00059702,,,0.00020812,,,,
18650,10.1016/j.jmat.2015.09.001,26377,4(a),31991,Sn(1-x)MnxTe_ x=0.15,undefined,,2.525e+26,,,,0.0005969,,,0.00020805,,,,
18650,10.1016/j.jmat.2015.09.001,26377,4(a),31991,Sn(1-x)MnxTe_ x=0.15,undefined,,2.53e+26,,,,0.00059678,,,0.00020799,,,,
18650,10.1016/j.jmat.2015.09.001,26377,4(a),31991,Sn(1-x)MnxTe_ x=0.15,undefined,,2.535e+26,,,,0.00059666,,,0.00020792,,,,
18650,10.1016/j.jmat.2015.09.001,26377,4(a),31991,Sn(1-x)MnxTe_ x=0.15,undefined,,2.54e+26,,,,0.00059654,,,0.00020785,,,,
18650,10.1016/j.jmat.2015.09.001,26377,4(a),31991,Sn(1-x)MnxTe_ x=0.15,undefined,,2.545e+26,,,,0.00059641,,,0.00020778,,,,
18650,10.1016/j.jmat.2015.09.001,26377,4(a),31991,Sn(1-x)MnxTe_ x=0.15,undefined,,2.55e+26,,,,0.00059629,,,0.00020771,,,,
18650,10.1016/j.jmat.2015.09.001,26377,4(a),31991,Sn(1-x)MnxTe_ x=0.15,undefined,,2.555e+26,,,,0.00059617,,,0.00020765,,,,
18650,10.1016/j.jmat.2015.09.001,26377,4(a),31991,Sn(1-x)MnxTe_ x=0.15,undefined,,2.56e+26,,,,0.00059605,,,0.00020758,,,,
18650,10.1016/j.jmat.2015.09.001,26377,4(a),31991,Sn(1-x)MnxTe_ x=0.15,undefined,,2.565e+26,,,,0.00059593,,,0.00020751,,,,
18650,10.1016/j.jmat.2015.09.001,26377,4(a),31991,Sn(1-x)MnxTe_ x=0.15,undefined,,2.57e+26,,,,0.00059581,,,0.00020744,,,,
18650,10.1016/j.jmat.2015.09.001,26377,4(a),31991,Sn(1-x)MnxTe_ x=0.15,undefined,,2.575e+26,,,,0.00059569,,,0.00020738,,,,
18650,10.1016/j.jmat.2015.09.001,26377,4(a),31991,Sn(1-x)MnxTe_ x=0.15,undefined,,2.58e+26,,,,0.00059557,,,0.00020731,,,,
18650,10.1016/j.jmat.2015.09.001,26377,4(a),31991,Sn(1-x)MnxTe_ x=0.15,undefined,,2.585e+26,,,,0.00059544,,,0.00020724,,,,
18650,10.1016/j.jmat.2015.09.001,26377,4(a),31991,Sn(1-x)MnxTe_ x=0.15,undefined,,2.59e+26,,,,0.00059532,,,0.00020717,,,,
18650,10.1016/j.jmat.2015.09.001,26377,4(a),31991,Sn(1-x)MnxTe_ x=0.15,undefined,,2.595e+26,,,,0.0005952,,,0.00020711,,,,
18650,10.1016/j.jmat.2015.09.001,26377,4(a),31991,Sn(1-x)MnxTe_ x=0.15,undefined,,2.6e+26,,,,0.00059508,,,0.00020704,,,,
18650,10.1016/j.jmat.2015.09.001,26377,4(a),31991,Sn(1-x)MnxTe_ x=0.15,undefined,,2.605e+26,,,,0.00059496,,,0.00020697,,,,
18650,10.1016/j.jmat.2015.09.001,26377,4(a),31991,Sn(1-x)MnxTe_ x=0.15,undefined,,2.61e+26,,,,0.00059484,,,0.0002069,,,,
18650,10.1016/j.jmat.2015.09.001,26377,4(a),31991,Sn(1-x)MnxTe_ x=0.15,undefined,,2.615e+26,,,,0.00059472,,,0.00020683,,,,
18650,10.1016/j.jmat.2015.09.001,26377,4(a),31991,Sn(1-x)MnxTe_ x=0.15,undefined,,2.62e+26,,,,0.00059459,,,0.00020677,,,,
18650,10.1016/j.jmat.2015.09.001,26377,4(a),31991,Sn(1-x)MnxTe_ x=0.15,undefined,,2.625e+26,,,,0.00059447,,,0.0002067,,,,
18650,10.1016/j.jmat.2015.09.001,26377,4(a),31991,Sn(1-x)MnxTe_ x=0.15,undefined,,2.63e+26,,,,0.00059435,,,0.00020663,,,,
18650,10.1016/j.jmat.2015.09.001,26377,4(a),31991,Sn(1-x)MnxTe_ x=0.15,undefined,,2.635e+26,,,,0.00059423,,,0.00020656,,,,
18650,10.1016/j.jmat.2015.09.001,26377,4(a),31991,Sn(1-x)MnxTe_ x=0.15,undefined,,2.64e+26,,,,0.00059411,,,0.0002065,,,,
18650,10.1016/j.jmat.2015.09.001,26377,4(a),31991,Sn(1-x)MnxTe_ x=0.15,undefined,,2.645e+26,,,,0.00059399,,,0.00020643,,,,
18650,10.1016/j.jmat.2015.09.001,26377,4(a),31991,Sn(1-x)MnxTe_ x=0.15,undefined,,2.65e+26,,,,0.00059387,,,0.00020636,,,,
18650,10.1016/j.jmat.2015.09.001,26377,4(a),31991,Sn(1-x)MnxTe_ x=0.15,undefined,,2.655e+26,,,,0.00059375,,,0.00020629,,,,
18650,10.1016/j.jmat.2015.09.001,26377,4(a),31991,Sn(1-x)MnxTe_ x=0.15,undefined,,2.66e+26,,,,0.00059362,,,0.00020622,,,,
18650,10.1016/j.jmat.2015.09.001,26377,4(a),31991,Sn(1-x)MnxTe_ x=0.15,undefined,,2.665e+26,,,,0.0005935,,,0.00020616,,,,
18650,10.1016/j.jmat.2015.09.001,26377,4(a),31991,Sn(1-x)MnxTe_ x=0.15,undefined,,2.67e+26,,,,0.00059338,,,0.00020609,,,,
18650,10.1016/j.jmat.2015.09.001,26377,4(a),31991,Sn(1-x)MnxTe_ x=0.15,undefined,,2.675e+26,,,,0.00059326,,,0.00020602,,,,
18650,10.1016/j.jmat.2015.09.001,26377,4(a),31991,Sn(1-x)MnxTe_ x=0.15,undefined,,2.68e+26,,,,0.00059314,,,0.00020595,,,,
18650,10.1016/j.jmat.2015.09.001,26377,4(a),31991,Sn(1-x)MnxTe_ x=0.15,undefined,,2.685e+26,,,,0.00059302,,,0.00020589,,,,
18650,10.1016/j.jmat.2015.09.001,26377,4(a),31991,Sn(1-x)MnxTe_ x=0.15,undefined,,2.69e+26,,,,0.0005929,,,0.00020582,,,,
18650,10.1016/j.jmat.2015.09.001,26377,4(a),31991,Sn(1-x)MnxTe_ x=0.15,undefined,,2.695e+26,,,,0.00059277,,,0.00020575,,,,
18650,10.1016/j.jmat.2015.09.001,26377,4(a),31991,Sn(1-x)MnxTe_ x=0.15,undefined,,2.7e+26,,,,0.00059265,,,0.00020568,,,,
18650,10.1016/j.jmat.2015.09.001,26377,4(a),31991,Sn(1-x)MnxTe_ x=0.15,undefined,,2.705e+26,,,,0.00059253,,,0.00020561,,,,
18650,10.1016/j.jmat.2015.09.001,26377,4(a),31991,Sn(1-x)MnxTe_ x=0.15,undefined,,2.71e+26,,,,0.00059241,,,0.00020555,,,,
18650,10.1016/j.jmat.2015.09.001,26377,4(a),31991,Sn(1-x)MnxTe_ x=0.15,undefined,,2.715e+26,,,,0.00059229,,,0.00020548,,,,
18650,10.1016/j.jmat.2015.09.001,26377,4(a),31991,Sn(1-x)MnxTe_ x=0.15,undefined,,2.72e+26,,,,0.00059217,,,0.00020541,,,,
18650,10.1016/j.jmat.2015.09.001,26377,4(a),31991,Sn(1-x)MnxTe_ x=0.15,undefined,,2.725e+26,,,,0.00059205,,,0.00020534,,,,
18650,10.1016/j.jmat.2015.09.001,26377,4(a),31991,Sn(1-x)MnxTe_ x=0.15,undefined,,2.73e+26,,,,0.00059193,,,0.00020528,,,,
18650,10.1016/j.jmat.2015.09.001,26377,4(a),31991,Sn(1-x)MnxTe_ x=0.15,undefined,,2.735e+26,,,,0.0005918,,,0.00020521,,,,
18650,10.1016/j.jmat.2015.09.001,26377,4(a),31991,Sn(1-x)MnxTe_ x=0.15,undefined,,2.74e+26,,,,0.00059168,,,0.00020514,,,,
18650,10.1016/j.jmat.2015.09.001,26377,4(a),31991,Sn(1-x)MnxTe_ x=0.15,undefined,,2.745e+26,,,,0.00059156,,,0.00020507,,,,
18650,10.1016/j.jmat.2015.09.001,26377,4(a),31991,Sn(1-x)MnxTe_ x=0.15,undefined,,2.75e+26,,,,0.00059144,,,0.000205,,,,
18650,10.1016/j.jmat.2015.09.001,26377,4(a),31991,Sn(1-x)MnxTe_ x=0.15,undefined,,2.755e+26,,,,0.00059132,,,0.00020494,,,,
18650,10.1016/j.jmat.2015.09.001,26377,4(a),31991,Sn(1-x)MnxTe_ x=0.15,undefined,,2.76e+26,,,,0.0005912,,,0.00020487,,,,
18650,10.1016/j.jmat.2015.09.001,26377,4(a),31991,Sn(1-x)MnxTe_ x=0.15,undefined,,2.765e+26,,,,0.00059108,,,0.0002048,,,,
18650,10.1016/j.jmat.2015.09.001,26377,4(a),31991,Sn(1-x)MnxTe_ x=0.15,undefined,,2.77e+26,,,,0.00059095,,,0.00020473,,,,
18650,10.1016/j.jmat.2015.09.001,26377,4(a),31991,Sn(1-x)MnxTe_ x=0.15,undefined,,2.775e+26,,,,0.00059083,,,0.00020467,,,,
18650,10.1016/j.jmat.2015.09.001,26377,4(a),31991,Sn(1-x)MnxTe_ x=0.15,undefined,,2.78e+26,,,,0.00059071,,,0.0002046,,,,
18650,10.1016/j.jmat.2015.09.001,26377,4(a),31991,Sn(1-x)MnxTe_ x=0.15,undefined,,2.785e+26,,,,0.00059059,,,0.00020453,,,,
18650,10.1016/j.jmat.2015.09.001,26377,4(a),31991,Sn(1-x)MnxTe_ x=0.15,undefined,,2.79e+26,,,,0.00059047,,,0.00020446,,,,
18650,10.1016/j.jmat.2015.09.001,26377,4(a),31991,Sn(1-x)MnxTe_ x=0.15,undefined,,2.795e+26,,,,0.00059035,,,0.00020439,,,,
18650,10.1016/j.jmat.2015.09.001,26377,4(a),31991,Sn(1-x)MnxTe_ x=0.15,undefined,,2.8e+26,,,,0.00059023,,,0.00020433,,,,
18650,10.1016/j.jmat.2015.09.001,26377,4(a),31991,Sn(1-x)MnxTe_ x=0.15,undefined,,2.805e+26,,,,0.00059011,,,0.00020426,,,,
18650,10.1016/j.jmat.2015.09.001,26377,4(a),31991,Sn(1-x)MnxTe_ x=0.15,undefined,,2.81e+26,,,,0.00058998,,,0.00020419,,,,
18650,10.1016/j.jmat.2015.09.001,26377,4(a),31991,Sn(1-x)MnxTe_ x=0.15,undefined,,2.815e+26,,,,0.00058986,,,0.00020412,,,,
18650,10.1016/j.jmat.2015.09.001,26377,4(a),31991,Sn(1-x)MnxTe_ x=0.15,undefined,,2.82e+26,,,,0.00058974,,,0.00020406,,,,
18650,10.1016/j.jmat.2015.09.001,26377,4(a),31991,Sn(1-x)MnxTe_ x=0.15,undefined,,2.825e+26,,,,0.00058962,,,0.00020399,,,,
18650,10.1016/j.jmat.2015.09.001,26377,4(a),31991,Sn(1-x)MnxTe_ x=0.15,undefined,,2.83e+26,,,,0.0005895,,,0.00020392,,,,
18650,10.1016/j.jmat.2015.09.001,26377,4(a),31991,Sn(1-x)MnxTe_ x=0.15,undefined,,2.835e+26,,,,0.00058938,,,0.00020385,,,,
18650,10.1016/j.jmat.2015.09.001,26377,4(a),31991,Sn(1-x)MnxTe_ x=0.15,undefined,,2.84e+26,,,,0.00058926,,,0.00020378,,,,
18650,10.1016/j.jmat.2015.09.001,26377,4(a),31991,Sn(1-x)MnxTe_ x=0.15,undefined,,2.845e+26,,,,0.00058914,,,0.00020372,,,,
18650,10.1016/j.jmat.2015.09.001,26377,4(a),31991,Sn(1-x)MnxTe_ x=0.15,undefined,,2.85e+26,,,,0.00058901,,,0.00020365,,,,