sid,DOI,figureid,fignum,sampleid,samplename,composition,Temperature,Carrier concentration,Electrical conductivity,Electrical resistivity,Hall coefficient,Hall movility,Lattice thermal conductivity,Power factor,Seebeck coefficient,Thermal conductivity,ZT,total thermal conductivity,Figure of merit Z
18650,10.1016/j.jmat.2015.09.001,26378,3(b),31991,Sn(1-x)MnxTe_ x=0.15,undefined,,5.27e+26,,,,0.00053029,,,0.00017085,,,,
18650,10.1016/j.jmat.2015.09.001,26378,3(b),31991,Sn(1-x)MnxTe_ x=0.15,undefined,,5.275e+26,,,,0.00053017,,,0.00017079,,,,
18650,10.1016/j.jmat.2015.09.001,26378,3(b),31991,Sn(1-x)MnxTe_ x=0.15,undefined,,5.28e+26,,,,0.00053005,,,0.00017072,,,,
18650,10.1016/j.jmat.2015.09.001,26378,3(b),31991,Sn(1-x)MnxTe_ x=0.15,undefined,,5.285e+26,,,,0.00052993,,,0.00017065,,,,
18650,10.1016/j.jmat.2015.09.001,26378,3(b),31991,Sn(1-x)MnxTe_ x=0.15,undefined,,5.29e+26,,,,0.00052981,,,0.00017058,,,,
18650,10.1016/j.jmat.2015.09.001,26378,3(b),31991,Sn(1-x)MnxTe_ x=0.15,undefined,,5.295e+26,,,,0.00052969,,,0.00017052,,,,
18650,10.1016/j.jmat.2015.09.001,26378,3(b),31991,Sn(1-x)MnxTe_ x=0.15,undefined,,5.3e+26,,,,0.00052957,,,0.00017045,,,,
18650,10.1016/j.jmat.2015.09.001,26378,3(b),31991,Sn(1-x)MnxTe_ x=0.15,undefined,,5.305e+26,,,,0.00052945,,,0.00017038,,,,
18650,10.1016/j.jmat.2015.09.001,26378,3(b),31991,Sn(1-x)MnxTe_ x=0.15,undefined,,5.31e+26,,,,0.00052932,,,0.00017031,,,,
18650,10.1016/j.jmat.2015.09.001,26378,3(b),31991,Sn(1-x)MnxTe_ x=0.15,undefined,,5.315e+26,,,,0.0005292,,,0.00017024,,,,
18650,10.1016/j.jmat.2015.09.001,26378,3(b),31991,Sn(1-x)MnxTe_ x=0.15,undefined,,5.32e+26,,,,0.00052908,,,0.00017018,,,,
18650,10.1016/j.jmat.2015.09.001,26378,3(b),31991,Sn(1-x)MnxTe_ x=0.15,undefined,,5.325e+26,,,,0.00052896,,,0.00017011,,,,
18650,10.1016/j.jmat.2015.09.001,26378,3(b),31991,Sn(1-x)MnxTe_ x=0.15,undefined,,5.33e+26,,,,0.00052884,,,0.00017004,,,,
18650,10.1016/j.jmat.2015.09.001,26378,3(b),31991,Sn(1-x)MnxTe_ x=0.15,undefined,,5.335e+26,,,,0.00052872,,,0.00016997,,,,
18650,10.1016/j.jmat.2015.09.001,26378,3(b),31991,Sn(1-x)MnxTe_ x=0.15,undefined,,5.34e+26,,,,0.0005286,,,0.00016991,,,,
18650,10.1016/j.jmat.2015.09.001,26378,3(b),31991,Sn(1-x)MnxTe_ x=0.15,undefined,,5.345e+26,,,,0.00052848,,,0.00016984,,,,
18650,10.1016/j.jmat.2015.09.001,26378,3(b),31991,Sn(1-x)MnxTe_ x=0.15,undefined,,5.35e+26,,,,0.00052835,,,0.00016977,,,,
18650,10.1016/j.jmat.2015.09.001,26378,3(b),31991,Sn(1-x)MnxTe_ x=0.15,undefined,,5.355e+26,,,,0.00052823,,,0.0001697,,,,
18650,10.1016/j.jmat.2015.09.001,26378,3(b),31991,Sn(1-x)MnxTe_ x=0.15,undefined,,5.36e+26,,,,0.00052811,,,0.00016963,,,,
18650,10.1016/j.jmat.2015.09.001,26378,3(b),31991,Sn(1-x)MnxTe_ x=0.15,undefined,,5.365e+26,,,,0.00052799,,,0.00016957,,,,
18650,10.1016/j.jmat.2015.09.001,26378,3(b),31991,Sn(1-x)MnxTe_ x=0.15,undefined,,5.37e+26,,,,0.00052787,,,0.0001695,,,,
18650,10.1016/j.jmat.2015.09.001,26378,3(b),31991,Sn(1-x)MnxTe_ x=0.15,undefined,,5.375e+26,,,,0.00052775,,,0.00016943,,,,
18650,10.1016/j.jmat.2015.09.001,26378,3(b),31991,Sn(1-x)MnxTe_ x=0.15,undefined,,5.38e+26,,,,0.00052763,,,0.00016936,,,,
18650,10.1016/j.jmat.2015.09.001,26378,3(b),31991,Sn(1-x)MnxTe_ x=0.15,undefined,,5.385e+26,,,,0.0005275,,,0.0001693,,,,
18650,10.1016/j.jmat.2015.09.001,26378,3(b),31991,Sn(1-x)MnxTe_ x=0.15,undefined,,5.39e+26,,,,0.00052738,,,0.00016923,,,,
18650,10.1016/j.jmat.2015.09.001,26378,3(b),31991,Sn(1-x)MnxTe_ x=0.15,undefined,,5.395e+26,,,,0.00052726,,,0.00016916,,,,
18650,10.1016/j.jmat.2015.09.001,26378,3(b),31991,Sn(1-x)MnxTe_ x=0.15,undefined,,5.4e+26,,,,0.00052714,,,0.00016909,,,,
18650,10.1016/j.jmat.2015.09.001,26378,3(b),31991,Sn(1-x)MnxTe_ x=0.15,undefined,,5.405e+26,,,,0.00052702,,,0.00016902,,,,
18650,10.1016/j.jmat.2015.09.001,26378,3(b),31991,Sn(1-x)MnxTe_ x=0.15,undefined,,5.41e+26,,,,0.0005269,,,0.00016896,,,,
18650,10.1016/j.jmat.2015.09.001,26378,3(b),31991,Sn(1-x)MnxTe_ x=0.15,undefined,,5.415e+26,,,,0.00052678,,,0.00016889,,,,
18650,10.1016/j.jmat.2015.09.001,26378,3(b),31991,Sn(1-x)MnxTe_ x=0.15,undefined,,5.42e+26,,,,0.00052666,,,0.00016882,,,,
18650,10.1016/j.jmat.2015.09.001,26378,3(b),31991,Sn(1-x)MnxTe_ x=0.15,undefined,,5.425e+26,,,,0.00052653,,,0.00016875,,,,
18650,10.1016/j.jmat.2015.09.001,26378,3(b),31991,Sn(1-x)MnxTe_ x=0.15,undefined,,5.43e+26,,,,0.00052641,,,0.00016869,,,,
18650,10.1016/j.jmat.2015.09.001,26378,3(b),31991,Sn(1-x)MnxTe_ x=0.15,undefined,,5.435e+26,,,,0.00052629,,,0.00016862,,,,
18650,10.1016/j.jmat.2015.09.001,26378,3(b),31991,Sn(1-x)MnxTe_ x=0.15,undefined,,5.44e+26,,,,0.00052617,,,0.00016855,,,,
18650,10.1016/j.jmat.2015.09.001,26378,3(b),31991,Sn(1-x)MnxTe_ x=0.15,undefined,,5.445e+26,,,,0.00052605,,,0.00016848,,,,
18650,10.1016/j.jmat.2015.09.001,26378,3(b),31991,Sn(1-x)MnxTe_ x=0.15,undefined,,5.45e+26,,,,0.00052593,,,0.00016842,,,,
18650,10.1016/j.jmat.2015.09.001,26378,3(b),31991,Sn(1-x)MnxTe_ x=0.15,undefined,,5.455e+26,,,,0.00052581,,,0.00016835,,,,
18650,10.1016/j.jmat.2015.09.001,26378,3(b),31991,Sn(1-x)MnxTe_ x=0.15,undefined,,5.46e+26,,,,0.00052568,,,0.00016828,,,,
18650,10.1016/j.jmat.2015.09.001,26378,3(b),31991,Sn(1-x)MnxTe_ x=0.15,undefined,,5.465e+26,,,,0.00052556,,,0.00016821,,,,
18650,10.1016/j.jmat.2015.09.001,26378,3(b),31991,Sn(1-x)MnxTe_ x=0.15,undefined,,5.47e+26,,,,0.00052544,,,0.00016814,,,,
18650,10.1016/j.jmat.2015.09.001,26378,3(b),31991,Sn(1-x)MnxTe_ x=0.15,undefined,,5.475e+26,,,,0.00052532,,,0.00016808,,,,
18650,10.1016/j.jmat.2015.09.001,26378,3(b),31991,Sn(1-x)MnxTe_ x=0.15,undefined,,5.48e+26,,,,0.0005252,,,0.00016801,,,,
18650,10.1016/j.jmat.2015.09.001,26378,3(b),31991,Sn(1-x)MnxTe_ x=0.15,undefined,,5.485e+26,,,,0.00052508,,,0.00016794,,,,
18650,10.1016/j.jmat.2015.09.001,26378,3(b),31991,Sn(1-x)MnxTe_ x=0.15,undefined,,5.49e+26,,,,0.00052496,,,0.00016787,,,,
18650,10.1016/j.jmat.2015.09.001,26378,3(b),31991,Sn(1-x)MnxTe_ x=0.15,undefined,,5.495e+26,,,,0.00052484,,,0.00016781,,,,
18650,10.1016/j.jmat.2015.09.001,26378,3(b),31991,Sn(1-x)MnxTe_ x=0.15,undefined,,5.5e+26,,,,0.00052471,,,0.00016774,,,,
18650,10.1016/j.jmat.2015.09.001,26378,3(b),31991,Sn(1-x)MnxTe_ x=0.15,undefined,,5.505e+26,,,,0.00052459,,,0.00016767,,,,
18650,10.1016/j.jmat.2015.09.001,26378,3(b),31991,Sn(1-x)MnxTe_ x=0.15,undefined,,5.51e+26,,,,0.00052447,,,0.0001676,,,,
18650,10.1016/j.jmat.2015.09.001,26378,3(b),31991,Sn(1-x)MnxTe_ x=0.15,undefined,,5.515e+26,,,,0.00052435,,,0.00016753,,,,
18650,10.1016/j.jmat.2015.09.001,26378,3(b),31991,Sn(1-x)MnxTe_ x=0.15,undefined,,5.52e+26,,,,0.00052423,,,0.00016747,,,,
18650,10.1016/j.jmat.2015.09.001,26378,3(b),31991,Sn(1-x)MnxTe_ x=0.15,undefined,,5.525e+26,,,,0.00052411,,,0.0001674,,,,
18650,10.1016/j.jmat.2015.09.001,26378,3(b),31991,Sn(1-x)MnxTe_ x=0.15,undefined,,5.53e+26,,,,0.00052399,,,0.00016733,,,,
18650,10.1016/j.jmat.2015.09.001,26378,3(b),31991,Sn(1-x)MnxTe_ x=0.15,undefined,,5.535e+26,,,,0.00052386,,,0.00016726,,,,
18650,10.1016/j.jmat.2015.09.001,26378,3(b),31991,Sn(1-x)MnxTe_ x=0.15,undefined,,5.54e+26,,,,0.00052374,,,0.0001672,,,,
18650,10.1016/j.jmat.2015.09.001,26378,3(b),31991,Sn(1-x)MnxTe_ x=0.15,undefined,,5.545e+26,,,,0.00052362,,,0.00016713,,,,
18650,10.1016/j.jmat.2015.09.001,26378,3(b),31991,Sn(1-x)MnxTe_ x=0.15,undefined,,5.55e+26,,,,0.0005235,,,0.00016706,,,,
18650,10.1016/j.jmat.2015.09.001,26378,3(b),31991,Sn(1-x)MnxTe_ x=0.15,undefined,,5.555e+26,,,,0.00052338,,,0.00016699,,,,
18650,10.1016/j.jmat.2015.09.001,26378,3(b),31991,Sn(1-x)MnxTe_ x=0.15,undefined,,5.56e+26,,,,0.00052326,,,0.00016692,,,,
18650,10.1016/j.jmat.2015.09.001,26378,3(b),31991,Sn(1-x)MnxTe_ x=0.15,undefined,,5.565e+26,,,,0.00052314,,,0.00016686,,,,
18650,10.1016/j.jmat.2015.09.001,26378,3(b),31991,Sn(1-x)MnxTe_ x=0.15,undefined,,5.57e+26,,,,0.00052302,,,0.00016679,,,,
18650,10.1016/j.jmat.2015.09.001,26378,3(b),31991,Sn(1-x)MnxTe_ x=0.15,undefined,,5.575e+26,,,,0.00052289,,,0.00016672,,,,
18650,10.1016/j.jmat.2015.09.001,26378,3(b),31991,Sn(1-x)MnxTe_ x=0.15,undefined,,5.58e+26,,,,0.00052277,,,0.00016665,,,,
18650,10.1016/j.jmat.2015.09.001,26378,3(b),31991,Sn(1-x)MnxTe_ x=0.15,undefined,,5.585e+26,,,,0.00052265,,,0.00016659,,,,
18650,10.1016/j.jmat.2015.09.001,26378,3(b),31991,Sn(1-x)MnxTe_ x=0.15,undefined,,5.59e+26,,,,0.00052253,,,0.00016652,,,,
18650,10.1016/j.jmat.2015.09.001,26378,3(b),31991,Sn(1-x)MnxTe_ x=0.15,undefined,,5.595e+26,,,,0.00052241,,,0.00016645,,,,
18650,10.1016/j.jmat.2015.09.001,26378,3(b),31991,Sn(1-x)MnxTe_ x=0.15,undefined,,5.6e+26,,,,0.00052229,,,0.00016638,,,,
18650,10.1016/j.jmat.2015.09.001,26378,3(b),31991,Sn(1-x)MnxTe_ x=0.15,undefined,,5.605e+26,,,,0.00052217,,,0.00016631,,,,
18650,10.1016/j.jmat.2015.09.001,26378,3(b),31991,Sn(1-x)MnxTe_ x=0.15,undefined,,5.61e+26,,,,0.00052205,,,0.00016625,,,,
18650,10.1016/j.jmat.2015.09.001,26378,3(b),31991,Sn(1-x)MnxTe_ x=0.15,undefined,,5.615e+26,,,,0.00052192,,,0.00016618,,,,
18650,10.1016/j.jmat.2015.09.001,26378,3(b),31991,Sn(1-x)MnxTe_ x=0.15,undefined,,5.62e+26,,,,0.0005218,,,0.00016611,,,,
18650,10.1016/j.jmat.2015.09.001,26378,3(b),31991,Sn(1-x)MnxTe_ x=0.15,undefined,,5.625e+26,,,,0.00052168,,,0.00016604,,,,
18650,10.1016/j.jmat.2015.09.001,26378,3(b),31991,Sn(1-x)MnxTe_ x=0.15,undefined,,5.63e+26,,,,0.00052156,,,0.00016598,,,,
18650,10.1016/j.jmat.2015.09.001,26378,3(b),31991,Sn(1-x)MnxTe_ x=0.15,undefined,,5.635e+26,,,,0.00052144,,,0.00016591,,,,
18650,10.1016/j.jmat.2015.09.001,26378,3(b),31991,Sn(1-x)MnxTe_ x=0.15,undefined,,5.64e+26,,,,0.00052132,,,0.00016584,,,,
18650,10.1016/j.jmat.2015.09.001,26378,3(b),31991,Sn(1-x)MnxTe_ x=0.15,undefined,,5.645e+26,,,,0.0005212,,,0.00016577,,,,
18650,10.1016/j.jmat.2015.09.001,26378,3(b),31991,Sn(1-x)MnxTe_ x=0.15,undefined,,5.65e+26,,,,0.00052107,,,0.0001657,,,,
18650,10.1016/j.jmat.2015.09.001,26378,3(b),31991,Sn(1-x)MnxTe_ x=0.15,undefined,,5.655e+26,,,,0.00052095,,,0.00016564,,,,
18650,10.1016/j.jmat.2015.09.001,26378,3(b),31991,Sn(1-x)MnxTe_ x=0.15,undefined,,5.66e+26,,,,0.00052083,,,0.00016557,,,,
18650,10.1016/j.jmat.2015.09.001,26378,3(b),31991,Sn(1-x)MnxTe_ x=0.15,undefined,,5.665e+26,,,,0.00052071,,,0.0001655,,,,
18650,10.1016/j.jmat.2015.09.001,26378,3(b),31991,Sn(1-x)MnxTe_ x=0.15,undefined,,5.67e+26,,,,0.00052059,,,0.00016543,,,,
18650,10.1016/j.jmat.2015.09.001,26378,3(b),31991,Sn(1-x)MnxTe_ x=0.15,undefined,,5.675e+26,,,,0.00052047,,,0.00016537,,,,
18650,10.1016/j.jmat.2015.09.001,26378,3(b),31991,Sn(1-x)MnxTe_ x=0.15,undefined,,5.68e+26,,,,0.00052035,,,0.0001653,,,,
18650,10.1016/j.jmat.2015.09.001,26378,3(b),31991,Sn(1-x)MnxTe_ x=0.15,undefined,,5.685e+26,,,,0.00052023,,,0.00016523,,,,
18650,10.1016/j.jmat.2015.09.001,26378,3(b),31991,Sn(1-x)MnxTe_ x=0.15,undefined,,5.69e+26,,,,0.0005201,,,0.00016516,,,,
18650,10.1016/j.jmat.2015.09.001,26378,3(b),31991,Sn(1-x)MnxTe_ x=0.15,undefined,,5.695e+26,,,,0.00051998,,,0.00016509,,,,
18650,10.1016/j.jmat.2015.09.001,26378,3(b),31991,Sn(1-x)MnxTe_ x=0.15,undefined,,5.7e+26,,,,0.00051986,,,0.00016503,,,,
18650,10.1016/j.jmat.2015.09.001,26378,3(b),31991,Sn(1-x)MnxTe_ x=0.15,undefined,,5.705e+26,,,,0.00051974,,,0.00016496,,,,
18650,10.1016/j.jmat.2015.09.001,26378,3(b),31991,Sn(1-x)MnxTe_ x=0.15,undefined,,5.71e+26,,,,0.00051962,,,0.00016489,,,,
18650,10.1016/j.jmat.2015.09.001,26378,3(b),31991,Sn(1-x)MnxTe_ x=0.15,undefined,,5.715e+26,,,,0.0005195,,,0.00016482,,,,
18650,10.1016/j.jmat.2015.09.001,26378,3(b),31991,Sn(1-x)MnxTe_ x=0.15,undefined,,5.72e+26,,,,0.00051938,,,0.00016476,,,,
18650,10.1016/j.jmat.2015.09.001,26378,3(b),31991,Sn(1-x)MnxTe_ x=0.15,undefined,,5.725e+26,,,,0.00051925,,,0.00016469,,,,
18650,10.1016/j.jmat.2015.09.001,26378,3(b),31991,Sn(1-x)MnxTe_ x=0.15,undefined,,5.73e+26,,,,0.00051913,,,0.00016462,,,,
18650,10.1016/j.jmat.2015.09.001,26378,3(b),31991,Sn(1-x)MnxTe_ x=0.15,undefined,,5.735e+26,,,,0.00051901,,,0.00016455,,,,
18650,10.1016/j.jmat.2015.09.001,26378,3(b),31991,Sn(1-x)MnxTe_ x=0.15,undefined,,5.74e+26,,,,0.00051889,,,0.00016449,,,,
18650,10.1016/j.jmat.2015.09.001,26378,3(b),31991,Sn(1-x)MnxTe_ x=0.15,undefined,,5.745e+26,,,,0.00051877,,,0.00016442,,,,
18650,10.1016/j.jmat.2015.09.001,26378,3(b),31991,Sn(1-x)MnxTe_ x=0.15,undefined,,5.75e+26,,,,0.00051865,,,0.00016435,,,,
18650,10.1016/j.jmat.2015.09.001,26378,3(b),31991,Sn(1-x)MnxTe_ x=0.15,undefined,,5.755e+26,,,,0.00051853,,,0.00016428,,,,
18650,10.1016/j.jmat.2015.09.001,26378,3(b),31991,Sn(1-x)MnxTe_ x=0.15,undefined,,5.76e+26,,,,0.00051841,,,0.00016421,,,,
18650,10.1016/j.jmat.2015.09.001,26378,3(b),31991,Sn(1-x)MnxTe_ x=0.15,undefined,,5.765e+26,,,,0.00051828,,,0.00016415,,,,
18650,10.1016/j.jmat.2015.09.001,26378,3(b),31991,Sn(1-x)MnxTe_ x=0.15,undefined,,5.77e+26,,,,0.00051816,,,0.00016408,,,,
18650,10.1016/j.jmat.2015.09.001,26378,3(b),31991,Sn(1-x)MnxTe_ x=0.15,undefined,,5.775e+26,,,,0.00051804,,,0.00016401,,,,
18650,10.1016/j.jmat.2015.09.001,26378,3(b),31991,Sn(1-x)MnxTe_ x=0.15,undefined,,5.78e+26,,,,0.00051792,,,0.00016394,,,,
18650,10.1016/j.jmat.2015.09.001,26378,3(b),31991,Sn(1-x)MnxTe_ x=0.15,undefined,,5.785e+26,,,,0.0005178,,,0.00016388,,,,
18650,10.1016/j.jmat.2015.09.001,26378,3(b),31991,Sn(1-x)MnxTe_ x=0.15,undefined,,5.79e+26,,,,0.00051768,,,0.00016381,,,,
18650,10.1016/j.jmat.2015.09.001,26378,3(b),31991,Sn(1-x)MnxTe_ x=0.15,undefined,,5.795e+26,,,,0.00051756,,,0.00016374,,,,
18650,10.1016/j.jmat.2015.09.001,26378,3(b),31991,Sn(1-x)MnxTe_ x=0.15,undefined,,5.8e+26,,,,0.00051743,,,0.00016367,,,,
18650,10.1016/j.jmat.2015.09.001,26378,3(b),31991,Sn(1-x)MnxTe_ x=0.15,undefined,,5.805e+26,,,,0.00051731,,,0.0001636,,,,
18650,10.1016/j.jmat.2015.09.001,26378,3(b),31991,Sn(1-x)MnxTe_ x=0.15,undefined,,5.81e+26,,,,0.00051719,,,0.00016354,,,,
18650,10.1016/j.jmat.2015.09.001,26378,3(b),31991,Sn(1-x)MnxTe_ x=0.15,undefined,,5.815e+26,,,,0.00051707,,,0.00016347,,,,
18650,10.1016/j.jmat.2015.09.001,26378,3(b),31991,Sn(1-x)MnxTe_ x=0.15,undefined,,5.82e+26,,,,0.00051695,,,0.0001634,,,,
18650,10.1016/j.jmat.2015.09.001,26378,3(b),31991,Sn(1-x)MnxTe_ x=0.15,undefined,,5.825e+26,,,,0.00051683,,,0.00016333,,,,
18650,10.1016/j.jmat.2015.09.001,26378,3(b),31991,Sn(1-x)MnxTe_ x=0.15,undefined,,5.83e+26,,,,0.00051671,,,0.00016327,,,,
18650,10.1016/j.jmat.2015.09.001,26378,3(b),31991,Sn(1-x)MnxTe_ x=0.15,undefined,,5.835e+26,,,,0.00051659,,,0.0001632,,,,
18650,10.1016/j.jmat.2015.09.001,26378,3(b),31991,Sn(1-x)MnxTe_ x=0.15,undefined,,5.84e+26,,,,0.00051646,,,0.00016313,,,,
18650,10.1016/j.jmat.2015.09.001,26378,3(b),31991,Sn(1-x)MnxTe_ x=0.15,undefined,,5.845e+26,,,,0.00051634,,,0.00016306,,,,
18650,10.1016/j.jmat.2015.09.001,26378,3(b),31991,Sn(1-x)MnxTe_ x=0.15,undefined,,5.85e+26,,,,0.00051622,,,0.00016299,,,,
18650,10.1016/j.jmat.2015.09.001,26378,3(b),31991,Sn(1-x)MnxTe_ x=0.15,undefined,,5.855e+26,,,,0.0005161,,,0.00016293,,,,
18650,10.1016/j.jmat.2015.09.001,26378,3(b),31991,Sn(1-x)MnxTe_ x=0.15,undefined,,5.86e+26,,,,0.00051598,,,0.00016286,,,,
18650,10.1016/j.jmat.2015.09.001,26378,3(b),31991,Sn(1-x)MnxTe_ x=0.15,undefined,,5.865e+26,,,,0.00051586,,,0.00016279,,,,
18650,10.1016/j.jmat.2015.09.001,26378,3(b),31991,Sn(1-x)MnxTe_ x=0.15,undefined,,5.87e+26,,,,0.00051574,,,0.00016272,,,,
18650,10.1016/j.jmat.2015.09.001,26378,3(b),31991,Sn(1-x)MnxTe_ x=0.15,undefined,,5.875e+26,,,,0.00051562,,,0.00016266,,,,
18650,10.1016/j.jmat.2015.09.001,26378,3(b),31991,Sn(1-x)MnxTe_ x=0.15,undefined,,5.88e+26,,,,0.00051549,,,0.00016259,,,,
18650,10.1016/j.jmat.2015.09.001,26378,3(b),31991,Sn(1-x)MnxTe_ x=0.15,undefined,,5.885e+26,,,,0.00051537,,,0.00016252,,,,
18650,10.1016/j.jmat.2015.09.001,26378,3(b),31991,Sn(1-x)MnxTe_ x=0.15,undefined,,5.89e+26,,,,0.00051525,,,0.00016245,,,,
18650,10.1016/j.jmat.2015.09.001,26378,3(b),31991,Sn(1-x)MnxTe_ x=0.15,undefined,,5.895e+26,,,,0.00051513,,,0.00016238,,,,
18650,10.1016/j.jmat.2015.09.001,26378,3(b),31991,Sn(1-x)MnxTe_ x=0.15,undefined,,5.9e+26,,,,0.00051501,,,0.00016232,,,,
18650,10.1016/j.jmat.2015.09.001,26378,3(b),31991,Sn(1-x)MnxTe_ x=0.15,undefined,,5.905e+26,,,,0.00051489,,,0.00016225,,,,
18650,10.1016/j.jmat.2015.09.001,26378,3(b),31991,Sn(1-x)MnxTe_ x=0.15,undefined,,5.91e+26,,,,0.00051477,,,0.00016218,,,,
18650,10.1016/j.jmat.2015.09.001,26378,3(b),31991,Sn(1-x)MnxTe_ x=0.15,undefined,,5.915e+26,,,,0.00051464,,,0.00016211,,,,
18650,10.1016/j.jmat.2015.09.001,26378,3(b),31991,Sn(1-x)MnxTe_ x=0.15,undefined,,5.92e+26,,,,0.00051452,,,0.00016205,,,,
18650,10.1016/j.jmat.2015.09.001,26378,3(b),31991,Sn(1-x)MnxTe_ x=0.15,undefined,,5.925e+26,,,,0.0005144,,,0.00016198,,,,
18650,10.1016/j.jmat.2015.09.001,26378,3(b),31991,Sn(1-x)MnxTe_ x=0.15,undefined,,5.93e+26,,,,0.00051428,,,0.00016191,,,,
18650,10.1016/j.jmat.2015.09.001,26378,3(b),31991,Sn(1-x)MnxTe_ x=0.15,undefined,,5.935e+26,,,,0.00051416,,,0.00016184,,,,
18650,10.1016/j.jmat.2015.09.001,26378,3(b),31991,Sn(1-x)MnxTe_ x=0.15,undefined,,5.94e+26,,,,0.00051404,,,0.00016177,,,,
18650,10.1016/j.jmat.2015.09.001,26378,3(b),31991,Sn(1-x)MnxTe_ x=0.15,undefined,,5.945e+26,,,,0.00051392,,,0.00016171,,,,
18650,10.1016/j.jmat.2015.09.001,26378,3(b),31991,Sn(1-x)MnxTe_ x=0.15,undefined,,5.95e+26,,,,0.0005138,,,0.00016164,,,,
18650,10.1016/j.jmat.2015.09.001,26378,3(b),31991,Sn(1-x)MnxTe_ x=0.15,undefined,,5.955e+26,,,,0.00051367,,,0.00016157,,,,
18650,10.1016/j.jmat.2015.09.001,26378,3(b),31991,Sn(1-x)MnxTe_ x=0.15,undefined,,5.96e+26,,,,0.00051355,,,0.0001615,,,,
18650,10.1016/j.jmat.2015.09.001,26378,3(b),31991,Sn(1-x)MnxTe_ x=0.15,undefined,,5.965e+26,,,,0.00051343,,,0.00016144,,,,
18650,10.1016/j.jmat.2015.09.001,26378,3(b),31991,Sn(1-x)MnxTe_ x=0.15,undefined,,5.97e+26,,,,0.00051331,,,0.00016137,,,,
18650,10.1016/j.jmat.2015.09.001,26378,3(b),31991,Sn(1-x)MnxTe_ x=0.15,undefined,,5.975e+26,,,,0.00051319,,,0.0001613,,,,
18650,10.1016/j.jmat.2015.09.001,26378,3(b),31991,Sn(1-x)MnxTe_ x=0.15,undefined,,5.98e+26,,,,0.00051307,,,0.00016123,,,,
18650,10.1016/j.jmat.2015.09.001,26378,3(b),31991,Sn(1-x)MnxTe_ x=0.15,undefined,,5.985e+26,,,,0.00051295,,,0.00016117,,,,
18650,10.1016/j.jmat.2015.09.001,26378,3(b),31991,Sn(1-x)MnxTe_ x=0.15,undefined,,5.99e+26,,,,0.00051282,,,0.0001611,,,,
18650,10.1016/j.jmat.2015.09.001,26378,3(b),31991,Sn(1-x)MnxTe_ x=0.15,undefined,,5.995e+26,,,,0.0005127,,,0.00016103,,,,
18650,10.1016/j.jmat.2015.09.001,26378,3(b),31991,Sn(1-x)MnxTe_ x=0.15,undefined,,6e+26,,,,0.00051258,,,0.00016096,,,,
18650,10.1016/j.jmat.2015.09.001,26378,3(b),31991,Sn(1-x)MnxTe_ x=0.15,undefined,,6.005e+26,,,,0.00051246,,,0.00016089,,,,
18650,10.1016/j.jmat.2015.09.001,26378,3(b),31991,Sn(1-x)MnxTe_ x=0.15,undefined,,6.01e+26,,,,0.00051234,,,0.00016083,,,,
18650,10.1016/j.jmat.2015.09.001,26378,3(b),31991,Sn(1-x)MnxTe_ x=0.15,undefined,,6.015e+26,,,,0.00051222,,,0.00016076,,,,
18650,10.1016/j.jmat.2015.09.001,26378,3(b),31991,Sn(1-x)MnxTe_ x=0.15,undefined,,6.02e+26,,,,0.0005121,,,0.00016069,,,,
18650,10.1016/j.jmat.2015.09.001,26378,3(b),31991,Sn(1-x)MnxTe_ x=0.15,undefined,,6.025e+26,,,,0.00051198,,,0.00016062,,,,
18650,10.1016/j.jmat.2015.09.001,26378,3(b),31991,Sn(1-x)MnxTe_ x=0.15,undefined,,6.03e+26,,,,0.00051185,,,0.00016056,,,,
18650,10.1016/j.jmat.2015.09.001,26378,3(b),31991,Sn(1-x)MnxTe_ x=0.15,undefined,,6.035e+26,,,,0.00051173,,,0.00016049,,,,
18650,10.1016/j.jmat.2015.09.001,26378,3(b),31991,Sn(1-x)MnxTe_ x=0.15,undefined,,6.04e+26,,,,0.00051161,,,0.00016042,,,,
18650,10.1016/j.jmat.2015.09.001,26378,3(b),31991,Sn(1-x)MnxTe_ x=0.15,undefined,,6.045e+26,,,,0.00051149,,,0.00016035,,,,
18650,10.1016/j.jmat.2015.09.001,26378,3(b),31991,Sn(1-x)MnxTe_ x=0.15,undefined,,6.05e+26,,,,0.00051137,,,0.00016028,,,,
18650,10.1016/j.jmat.2015.09.001,26378,3(b),31991,Sn(1-x)MnxTe_ x=0.15,undefined,,6.055e+26,,,,0.00051125,,,0.00016022,,,,
18650,10.1016/j.jmat.2015.09.001,26378,3(b),31991,Sn(1-x)MnxTe_ x=0.15,undefined,,6.06e+26,,,,0.00051113,,,0.00016015,,,,
18650,10.1016/j.jmat.2015.09.001,26378,3(b),31991,Sn(1-x)MnxTe_ x=0.15,undefined,,6.065e+26,,,,0.000511,,,0.00016008,,,,
18650,10.1016/j.jmat.2015.09.001,26378,3(b),31991,Sn(1-x)MnxTe_ x=0.15,undefined,,6.07e+26,,,,0.00051088,,,0.00016001,,,,