sid,DOI,figureid,fignum,sampleid,samplename,composition,Temperature,Carrier concentration,Electrical conductivity,Electrical resistivity,Hall coefficient,Hall movility,Lattice thermal conductivity,Power factor,Seebeck coefficient,Thermal conductivity,ZT,total thermal conductivity,Figure of merit Z
18650,10.1016/j.jmat.2015.09.001,26377,4(a),31991,Sn(1-x)MnxTe_ x=0.15,undefined,,1.245e+26,,,,0.00062796,,,0.000079987,,,,
18650,10.1016/j.jmat.2015.09.001,26377,4(a),31991,Sn(1-x)MnxTe_ x=0.15,undefined,,1.25e+26,,,,0.00062784,,,0.000079934,,,,
18650,10.1016/j.jmat.2015.09.001,26377,4(a),31991,Sn(1-x)MnxTe_ x=0.15,undefined,,1.255e+26,,,,0.00062771,,,0.00007988,,,,
18650,10.1016/j.jmat.2015.09.001,26377,4(a),31991,Sn(1-x)MnxTe_ x=0.15,undefined,,1.26e+26,,,,0.00062759,,,0.000079827,,,,
18650,10.1016/j.jmat.2015.09.001,26377,4(a),31991,Sn(1-x)MnxTe_ x=0.15,undefined,,1.265e+26,,,,0.00062747,,,0.000079774,,,,
18650,10.1016/j.jmat.2015.09.001,26377,4(a),31991,Sn(1-x)MnxTe_ x=0.15,undefined,,1.27e+26,,,,0.00062735,,,0.000079721,,,,
18650,10.1016/j.jmat.2015.09.001,26377,4(a),31991,Sn(1-x)MnxTe_ x=0.15,undefined,,1.275e+26,,,,0.00062723,,,0.000079667,,,,
18650,10.1016/j.jmat.2015.09.001,26377,4(a),31991,Sn(1-x)MnxTe_ x=0.15,undefined,,1.28e+26,,,,0.00062711,,,0.000079614,,,,
18650,10.1016/j.jmat.2015.09.001,26377,4(a),31991,Sn(1-x)MnxTe_ x=0.15,undefined,,1.285e+26,,,,0.00062699,,,0.000079561,,,,
18650,10.1016/j.jmat.2015.09.001,26377,4(a),31991,Sn(1-x)MnxTe_ x=0.15,undefined,,1.29e+26,,,,0.00062687,,,0.000079508,,,,
18650,10.1016/j.jmat.2015.09.001,26377,4(a),31991,Sn(1-x)MnxTe_ x=0.15,undefined,,1.295e+26,,,,0.00062674,,,0.000079454,,,,
18650,10.1016/j.jmat.2015.09.001,26377,4(a),31991,Sn(1-x)MnxTe_ x=0.15,undefined,,1.3e+26,,,,0.00062662,,,0.000079401,,,,
18650,10.1016/j.jmat.2015.09.001,26377,4(a),31991,Sn(1-x)MnxTe_ x=0.15,undefined,,1.305e+26,,,,0.0006265,,,0.000079348,,,,
18650,10.1016/j.jmat.2015.09.001,26377,4(a),31991,Sn(1-x)MnxTe_ x=0.15,undefined,,1.31e+26,,,,0.00062638,,,0.000079294,,,,
18650,10.1016/j.jmat.2015.09.001,26377,4(a),31991,Sn(1-x)MnxTe_ x=0.15,undefined,,1.315e+26,,,,0.00062626,,,0.000079241,,,,
18650,10.1016/j.jmat.2015.09.001,26377,4(a),31991,Sn(1-x)MnxTe_ x=0.15,undefined,,1.32e+26,,,,0.00062614,,,0.00022438,,,,
18650,10.1016/j.jmat.2015.09.001,26377,4(a),31991,Sn(1-x)MnxTe_ x=0.15,undefined,,1.325e+26,,,,0.00062602,,,0.00022432,,,,
18650,10.1016/j.jmat.2015.09.001,26377,4(a),31991,Sn(1-x)MnxTe_ x=0.15,undefined,,1.33e+26,,,,0.0006259,,,0.00022425,,,,
18650,10.1016/j.jmat.2015.09.001,26377,4(a),31991,Sn(1-x)MnxTe_ x=0.15,undefined,,1.335e+26,,,,0.00062577,,,0.00022418,,,,
18650,10.1016/j.jmat.2015.09.001,26377,4(a),31991,Sn(1-x)MnxTe_ x=0.15,undefined,,1.34e+26,,,,0.00062565,,,0.00022411,,,,
18650,10.1016/j.jmat.2015.09.001,26377,4(a),31991,Sn(1-x)MnxTe_ x=0.15,undefined,,1.345e+26,,,,0.00062553,,,0.00022404,,,,
18650,10.1016/j.jmat.2015.09.001,26377,4(a),31991,Sn(1-x)MnxTe_ x=0.15,undefined,,1.35e+26,,,,0.00062541,,,0.00022398,,,,
18650,10.1016/j.jmat.2015.09.001,26377,4(a),31991,Sn(1-x)MnxTe_ x=0.15,undefined,,1.355e+26,,,,0.00062529,,,0.00022391,,,,
18650,10.1016/j.jmat.2015.09.001,26377,4(a),31991,Sn(1-x)MnxTe_ x=0.15,undefined,,1.36e+26,,,,0.00062517,,,0.00022384,,,,
18650,10.1016/j.jmat.2015.09.001,26377,4(a),31991,Sn(1-x)MnxTe_ x=0.15,undefined,,1.365e+26,,,,0.00062505,,,0.00022377,,,,
18650,10.1016/j.jmat.2015.09.001,26377,4(a),31991,Sn(1-x)MnxTe_ x=0.15,undefined,,1.37e+26,,,,0.00062492,,,0.00022371,,,,
18650,10.1016/j.jmat.2015.09.001,26377,4(a),31991,Sn(1-x)MnxTe_ x=0.15,undefined,,1.375e+26,,,,0.0006248,,,0.00022364,,,,
18650,10.1016/j.jmat.2015.09.001,26377,4(a),31991,Sn(1-x)MnxTe_ x=0.15,undefined,,1.38e+26,,,,0.00062468,,,0.00022357,,,,
18650,10.1016/j.jmat.2015.09.001,26377,4(a),31991,Sn(1-x)MnxTe_ x=0.15,undefined,,1.385e+26,,,,0.00062456,,,0.0002235,,,,
18650,10.1016/j.jmat.2015.09.001,26377,4(a),31991,Sn(1-x)MnxTe_ x=0.15,undefined,,1.39e+26,,,,0.00062444,,,0.00022343,,,,
18650,10.1016/j.jmat.2015.09.001,26377,4(a),31991,Sn(1-x)MnxTe_ x=0.15,undefined,,1.395e+26,,,,0.00062432,,,0.00022337,,,,
18650,10.1016/j.jmat.2015.09.001,26377,4(a),31991,Sn(1-x)MnxTe_ x=0.15,undefined,,1.4e+26,,,,0.0006242,,,0.0002233,,,,
18650,10.1016/j.jmat.2015.09.001,26377,4(a),31991,Sn(1-x)MnxTe_ x=0.15,undefined,,1.405e+26,,,,0.00062408,,,0.00022323,,,,
18650,10.1016/j.jmat.2015.09.001,26377,4(a),31991,Sn(1-x)MnxTe_ x=0.15,undefined,,1.41e+26,,,,0.00062395,,,0.00022316,,,,
18650,10.1016/j.jmat.2015.09.001,26377,4(a),31991,Sn(1-x)MnxTe_ x=0.15,undefined,,1.415e+26,,,,0.00062383,,,0.0002231,,,,
18650,10.1016/j.jmat.2015.09.001,26377,4(a),31991,Sn(1-x)MnxTe_ x=0.15,undefined,,1.42e+26,,,,0.00062371,,,0.00022303,,,,
18650,10.1016/j.jmat.2015.09.001,26377,4(a),31991,Sn(1-x)MnxTe_ x=0.15,undefined,,1.425e+26,,,,0.00062359,,,0.00022296,,,,
18650,10.1016/j.jmat.2015.09.001,26377,4(a),31991,Sn(1-x)MnxTe_ x=0.15,undefined,,1.43e+26,,,,0.00062347,,,0.00022289,,,,
18650,10.1016/j.jmat.2015.09.001,26377,4(a),31991,Sn(1-x)MnxTe_ x=0.15,undefined,,1.435e+26,,,,0.00062335,,,0.00022282,,,,
18650,10.1016/j.jmat.2015.09.001,26377,4(a),31991,Sn(1-x)MnxTe_ x=0.15,undefined,,1.44e+26,,,,0.00062323,,,0.00022276,,,,
18650,10.1016/j.jmat.2015.09.001,26377,4(a),31991,Sn(1-x)MnxTe_ x=0.15,undefined,,1.445e+26,,,,0.0006231,,,0.00022269,,,,
18650,10.1016/j.jmat.2015.09.001,26377,4(a),31991,Sn(1-x)MnxTe_ x=0.15,undefined,,1.45e+26,,,,0.00062298,,,0.00022262,,,,
18650,10.1016/j.jmat.2015.09.001,26377,4(a),31991,Sn(1-x)MnxTe_ x=0.15,undefined,,1.455e+26,,,,0.00062286,,,0.00022255,,,,
18650,10.1016/j.jmat.2015.09.001,26377,4(a),31991,Sn(1-x)MnxTe_ x=0.15,undefined,,1.46e+26,,,,0.00062274,,,0.00022249,,,,
18650,10.1016/j.jmat.2015.09.001,26377,4(a),31991,Sn(1-x)MnxTe_ x=0.15,undefined,,1.465e+26,,,,0.00062262,,,0.00022242,,,,
18650,10.1016/j.jmat.2015.09.001,26377,4(a),31991,Sn(1-x)MnxTe_ x=0.15,undefined,,1.47e+26,,,,0.0006225,,,0.00022235,,,,
18650,10.1016/j.jmat.2015.09.001,26377,4(a),31991,Sn(1-x)MnxTe_ x=0.15,undefined,,1.475e+26,,,,0.00062238,,,0.00022228,,,,
18650,10.1016/j.jmat.2015.09.001,26377,4(a),31991,Sn(1-x)MnxTe_ x=0.15,undefined,,1.48e+26,,,,0.00062226,,,0.00022222,,,,
18650,10.1016/j.jmat.2015.09.001,26377,4(a),31991,Sn(1-x)MnxTe_ x=0.15,undefined,,1.485e+26,,,,0.00062213,,,0.00022215,,,,
18650,10.1016/j.jmat.2015.09.001,26377,4(a),31991,Sn(1-x)MnxTe_ x=0.15,undefined,,1.49e+26,,,,0.00062201,,,0.00022208,,,,
18650,10.1016/j.jmat.2015.09.001,26377,4(a),31991,Sn(1-x)MnxTe_ x=0.15,undefined,,1.495e+26,,,,0.00062189,,,0.00022201,,,,
18650,10.1016/j.jmat.2015.09.001,26377,4(a),31991,Sn(1-x)MnxTe_ x=0.15,undefined,,1.5e+26,,,,0.00062177,,,0.00022194,,,,
18650,10.1016/j.jmat.2015.09.001,26377,4(a),31991,Sn(1-x)MnxTe_ x=0.15,undefined,,1.505e+26,,,,0.00062165,,,0.00022188,,,,
18650,10.1016/j.jmat.2015.09.001,26377,4(a),31991,Sn(1-x)MnxTe_ x=0.15,undefined,,1.51e+26,,,,0.00062153,,,0.00022181,,,,
18650,10.1016/j.jmat.2015.09.001,26377,4(a),31991,Sn(1-x)MnxTe_ x=0.15,undefined,,1.515e+26,,,,0.00062141,,,0.00022174,,,,
18650,10.1016/j.jmat.2015.09.001,26377,4(a),31991,Sn(1-x)MnxTe_ x=0.15,undefined,,1.52e+26,,,,0.00062129,,,0.00022167,,,,
18650,10.1016/j.jmat.2015.09.001,26377,4(a),31991,Sn(1-x)MnxTe_ x=0.15,undefined,,1.525e+26,,,,0.00062116,,,0.00022161,,,,
18650,10.1016/j.jmat.2015.09.001,26377,4(a),31991,Sn(1-x)MnxTe_ x=0.15,undefined,,1.53e+26,,,,0.00062104,,,0.00022154,,,,
18650,10.1016/j.jmat.2015.09.001,26377,4(a),31991,Sn(1-x)MnxTe_ x=0.15,undefined,,1.535e+26,,,,0.00062092,,,0.00022147,,,,
18650,10.1016/j.jmat.2015.09.001,26377,4(a),31991,Sn(1-x)MnxTe_ x=0.15,undefined,,1.54e+26,,,,0.0006208,,,0.0002214,,,,
18650,10.1016/j.jmat.2015.09.001,26377,4(a),31991,Sn(1-x)MnxTe_ x=0.15,undefined,,1.545e+26,,,,0.00062068,,,0.00022133,,,,
18650,10.1016/j.jmat.2015.09.001,26377,4(a),31991,Sn(1-x)MnxTe_ x=0.15,undefined,,1.55e+26,,,,0.00062056,,,0.00022127,,,,
18650,10.1016/j.jmat.2015.09.001,26377,4(a),31991,Sn(1-x)MnxTe_ x=0.15,undefined,,1.555e+26,,,,0.00062044,,,0.0002212,,,,
18650,10.1016/j.jmat.2015.09.001,26377,4(a),31991,Sn(1-x)MnxTe_ x=0.15,undefined,,1.56e+26,,,,0.00062031,,,0.00022113,,,,
18650,10.1016/j.jmat.2015.09.001,26377,4(a),31991,Sn(1-x)MnxTe_ x=0.15,undefined,,1.565e+26,,,,0.00062019,,,0.00022106,,,,
18650,10.1016/j.jmat.2015.09.001,26377,4(a),31991,Sn(1-x)MnxTe_ x=0.15,undefined,,1.57e+26,,,,0.00062007,,,0.000221,,,,
18650,10.1016/j.jmat.2015.09.001,26377,4(a),31991,Sn(1-x)MnxTe_ x=0.15,undefined,,1.575e+26,,,,0.00061995,,,0.00022093,,,,
18650,10.1016/j.jmat.2015.09.001,26377,4(a),31991,Sn(1-x)MnxTe_ x=0.15,undefined,,1.58e+26,,,,0.00061983,,,0.00022086,,,,
18650,10.1016/j.jmat.2015.09.001,26377,4(a),31991,Sn(1-x)MnxTe_ x=0.15,undefined,,1.585e+26,,,,0.00061971,,,0.00022079,,,,
18650,10.1016/j.jmat.2015.09.001,26377,4(a),31991,Sn(1-x)MnxTe_ x=0.15,undefined,,1.59e+26,,,,0.00061959,,,0.00022072,,,,
18650,10.1016/j.jmat.2015.09.001,26377,4(a),31991,Sn(1-x)MnxTe_ x=0.15,undefined,,1.595e+26,,,,0.00061947,,,0.00022066,,,,
18650,10.1016/j.jmat.2015.09.001,26377,4(a),31991,Sn(1-x)MnxTe_ x=0.15,undefined,,1.6e+26,,,,0.00061934,,,0.00022059,,,,
18650,10.1016/j.jmat.2015.09.001,26377,4(a),31991,Sn(1-x)MnxTe_ x=0.15,undefined,,1.605e+26,,,,0.00061922,,,0.00022052,,,,
18650,10.1016/j.jmat.2015.09.001,26377,4(a),31991,Sn(1-x)MnxTe_ x=0.15,undefined,,1.61e+26,,,,0.0006191,,,0.00022045,,,,
18650,10.1016/j.jmat.2015.09.001,26377,4(a),31991,Sn(1-x)MnxTe_ x=0.15,undefined,,1.615e+26,,,,0.00061898,,,0.00022039,,,,
18650,10.1016/j.jmat.2015.09.001,26377,4(a),31991,Sn(1-x)MnxTe_ x=0.15,undefined,,1.62e+26,,,,0.00061886,,,0.00022032,,,,
18650,10.1016/j.jmat.2015.09.001,26377,4(a),31991,Sn(1-x)MnxTe_ x=0.15,undefined,,1.625e+26,,,,0.00061874,,,0.00022025,,,,
18650,10.1016/j.jmat.2015.09.001,26377,4(a),31991,Sn(1-x)MnxTe_ x=0.15,undefined,,1.63e+26,,,,0.00061862,,,0.00022018,,,,
18650,10.1016/j.jmat.2015.09.001,26377,4(a),31991,Sn(1-x)MnxTe_ x=0.15,undefined,,1.635e+26,,,,0.00061849,,,0.00022011,,,,
18650,10.1016/j.jmat.2015.09.001,26377,4(a),31991,Sn(1-x)MnxTe_ x=0.15,undefined,,1.64e+26,,,,0.00061837,,,0.00022005,,,,
18650,10.1016/j.jmat.2015.09.001,26377,4(a),31991,Sn(1-x)MnxTe_ x=0.15,undefined,,1.645e+26,,,,0.00061825,,,0.00021998,,,,
18650,10.1016/j.jmat.2015.09.001,26377,4(a),31991,Sn(1-x)MnxTe_ x=0.15,undefined,,1.65e+26,,,,0.00061813,,,0.00021991,,,,
18650,10.1016/j.jmat.2015.09.001,26377,4(a),31991,Sn(1-x)MnxTe_ x=0.15,undefined,,1.655e+26,,,,0.00061801,,,0.00021984,,,,
18650,10.1016/j.jmat.2015.09.001,26377,4(a),31991,Sn(1-x)MnxTe_ x=0.15,undefined,,1.66e+26,,,,0.00061789,,,0.00021978,,,,
18650,10.1016/j.jmat.2015.09.001,26377,4(a),31991,Sn(1-x)MnxTe_ x=0.15,undefined,,1.665e+26,,,,0.00061777,,,0.00021971,,,,
18650,10.1016/j.jmat.2015.09.001,26377,4(a),31991,Sn(1-x)MnxTe_ x=0.15,undefined,,1.67e+26,,,,0.00061765,,,0.00021964,,,,
18650,10.1016/j.jmat.2015.09.001,26377,4(a),31991,Sn(1-x)MnxTe_ x=0.15,undefined,,1.675e+26,,,,0.00061752,,,0.00021957,,,,
18650,10.1016/j.jmat.2015.09.001,26377,4(a),31991,Sn(1-x)MnxTe_ x=0.15,undefined,,1.68e+26,,,,0.0006174,,,0.0002195,,,,
18650,10.1016/j.jmat.2015.09.001,26377,4(a),31991,Sn(1-x)MnxTe_ x=0.15,undefined,,1.685e+26,,,,0.00061728,,,0.00021944,,,,
18650,10.1016/j.jmat.2015.09.001,26377,4(a),31991,Sn(1-x)MnxTe_ x=0.15,undefined,,1.69e+26,,,,0.00061716,,,0.00021937,,,,
18650,10.1016/j.jmat.2015.09.001,26377,4(a),31991,Sn(1-x)MnxTe_ x=0.15,undefined,,1.695e+26,,,,0.00061704,,,0.0002193,,,,
18650,10.1016/j.jmat.2015.09.001,26377,4(a),31991,Sn(1-x)MnxTe_ x=0.15,undefined,,1.7e+26,,,,0.00061692,,,0.00021923,,,,
18650,10.1016/j.jmat.2015.09.001,26377,4(a),31991,Sn(1-x)MnxTe_ x=0.15,undefined,,1.705e+26,,,,0.0006168,,,0.00021917,,,,
18650,10.1016/j.jmat.2015.09.001,26377,4(a),31991,Sn(1-x)MnxTe_ x=0.15,undefined,,1.71e+26,,,,0.00061667,,,0.0002191,,,,
18650,10.1016/j.jmat.2015.09.001,26377,4(a),31991,Sn(1-x)MnxTe_ x=0.15,undefined,,1.715e+26,,,,0.00061655,,,0.00021903,,,,
18650,10.1016/j.jmat.2015.09.001,26377,4(a),31991,Sn(1-x)MnxTe_ x=0.15,undefined,,1.72e+26,,,,0.00061643,,,0.00021896,,,,
18650,10.1016/j.jmat.2015.09.001,26377,4(a),31991,Sn(1-x)MnxTe_ x=0.15,undefined,,1.725e+26,,,,0.00061631,,,0.00021889,,,,
18650,10.1016/j.jmat.2015.09.001,26377,4(a),31991,Sn(1-x)MnxTe_ x=0.15,undefined,,1.73e+26,,,,0.00061619,,,0.00021883,,,,
18650,10.1016/j.jmat.2015.09.001,26377,4(a),31991,Sn(1-x)MnxTe_ x=0.15,undefined,,1.735e+26,,,,0.00061607,,,0.00021876,,,,
18650,10.1016/j.jmat.2015.09.001,26377,4(a),31991,Sn(1-x)MnxTe_ x=0.15,undefined,,1.74e+26,,,,0.00061595,,,0.00021869,,,,
18650,10.1016/j.jmat.2015.09.001,26377,4(a),31991,Sn(1-x)MnxTe_ x=0.15,undefined,,1.745e+26,,,,0.00061583,,,0.00021862,,,,
18650,10.1016/j.jmat.2015.09.001,26377,4(a),31991,Sn(1-x)MnxTe_ x=0.15,undefined,,1.75e+26,,,,0.0006157,,,0.00021856,,,,
18650,10.1016/j.jmat.2015.09.001,26377,4(a),31991,Sn(1-x)MnxTe_ x=0.15,undefined,,1.755e+26,,,,0.00061558,,,0.00021849,,,,
18650,10.1016/j.jmat.2015.09.001,26377,4(a),31991,Sn(1-x)MnxTe_ x=0.15,undefined,,1.76e+26,,,,0.00061546,,,0.00021842,,,,
18650,10.1016/j.jmat.2015.09.001,26377,4(a),31991,Sn(1-x)MnxTe_ x=0.15,undefined,,1.765e+26,,,,0.00061534,,,0.00021835,,,,
18650,10.1016/j.jmat.2015.09.001,26377,4(a),31991,Sn(1-x)MnxTe_ x=0.15,undefined,,1.77e+26,,,,0.00061522,,,0.00021829,,,,
18650,10.1016/j.jmat.2015.09.001,26377,4(a),31991,Sn(1-x)MnxTe_ x=0.15,undefined,,1.775e+26,,,,0.0006151,,,0.00021822,,,,
18650,10.1016/j.jmat.2015.09.001,26377,4(a),31991,Sn(1-x)MnxTe_ x=0.15,undefined,,1.78e+26,,,,0.00061498,,,0.00021815,,,,
18650,10.1016/j.jmat.2015.09.001,26377,4(a),31991,Sn(1-x)MnxTe_ x=0.15,undefined,,1.785e+26,,,,0.00061486,,,0.00021808,,,,
18650,10.1016/j.jmat.2015.09.001,26377,4(a),31991,Sn(1-x)MnxTe_ x=0.15,undefined,,1.79e+26,,,,0.00061473,,,0.00021801,,,,
18650,10.1016/j.jmat.2015.09.001,26377,4(a),31991,Sn(1-x)MnxTe_ x=0.15,undefined,,1.795e+26,,,,0.00061461,,,0.00021795,,,,
18650,10.1016/j.jmat.2015.09.001,26377,4(a),31991,Sn(1-x)MnxTe_ x=0.15,undefined,,1.8e+26,,,,0.00061449,,,0.00021788,,,,
18650,10.1016/j.jmat.2015.09.001,26377,4(a),31991,Sn(1-x)MnxTe_ x=0.15,undefined,,1.805e+26,,,,0.00061437,,,0.00021781,,,,
18650,10.1016/j.jmat.2015.09.001,26377,4(a),31991,Sn(1-x)MnxTe_ x=0.15,undefined,,1.81e+26,,,,0.00061425,,,0.00021774,,,,
18650,10.1016/j.jmat.2015.09.001,26377,4(a),31991,Sn(1-x)MnxTe_ x=0.15,undefined,,1.815e+26,,,,0.00061413,,,0.00021768,,,,
18650,10.1016/j.jmat.2015.09.001,26377,4(a),31991,Sn(1-x)MnxTe_ x=0.15,undefined,,1.82e+26,,,,0.00061401,,,0.00021761,,,,
18650,10.1016/j.jmat.2015.09.001,26377,4(a),31991,Sn(1-x)MnxTe_ x=0.15,undefined,,1.825e+26,,,,0.00061388,,,0.00021754,,,,
18650,10.1016/j.jmat.2015.09.001,26377,4(a),31991,Sn(1-x)MnxTe_ x=0.15,undefined,,1.83e+26,,,,0.00061376,,,0.00021747,,,,
18650,10.1016/j.jmat.2015.09.001,26377,4(a),31991,Sn(1-x)MnxTe_ x=0.15,undefined,,1.835e+26,,,,0.00061364,,,0.0002174,,,,
18650,10.1016/j.jmat.2015.09.001,26377,4(a),31991,Sn(1-x)MnxTe_ x=0.15,undefined,,1.84e+26,,,,0.00061352,,,0.00021734,,,,
18650,10.1016/j.jmat.2015.09.001,26377,4(a),31991,Sn(1-x)MnxTe_ x=0.15,undefined,,1.845e+26,,,,0.0006134,,,0.00021727,,,,
18650,10.1016/j.jmat.2015.09.001,26377,4(a),31991,Sn(1-x)MnxTe_ x=0.15,undefined,,1.85e+26,,,,0.00061328,,,0.0002172,,,,
18650,10.1016/j.jmat.2015.09.001,26377,4(a),31991,Sn(1-x)MnxTe_ x=0.15,undefined,,1.855e+26,,,,0.00061316,,,0.00021713,,,,
18650,10.1016/j.jmat.2015.09.001,26377,4(a),31991,Sn(1-x)MnxTe_ x=0.15,undefined,,1.86e+26,,,,0.00061304,,,0.00021707,,,,
18650,10.1016/j.jmat.2015.09.001,26377,4(a),31991,Sn(1-x)MnxTe_ x=0.15,undefined,,1.865e+26,,,,0.00061291,,,0.000217,,,,
18650,10.1016/j.jmat.2015.09.001,26377,4(a),31991,Sn(1-x)MnxTe_ x=0.15,undefined,,1.87e+26,,,,0.00061279,,,0.00021693,,,,
18650,10.1016/j.jmat.2015.09.001,26377,4(a),31991,Sn(1-x)MnxTe_ x=0.15,undefined,,1.875e+26,,,,0.00061267,,,0.00021686,,,,
18650,10.1016/j.jmat.2015.09.001,26377,4(a),31991,Sn(1-x)MnxTe_ x=0.15,undefined,,1.88e+26,,,,0.00061255,,,0.00021679,,,,
18650,10.1016/j.jmat.2015.09.001,26377,4(a),31991,Sn(1-x)MnxTe_ x=0.15,undefined,,1.885e+26,,,,0.00061243,,,0.00021673,,,,
18650,10.1016/j.jmat.2015.09.001,26377,4(a),31991,Sn(1-x)MnxTe_ x=0.15,undefined,,1.89e+26,,,,0.00061231,,,0.00021666,,,,
18650,10.1016/j.jmat.2015.09.001,26377,4(a),31991,Sn(1-x)MnxTe_ x=0.15,undefined,,1.895e+26,,,,0.00061219,,,0.00021659,,,,
18650,10.1016/j.jmat.2015.09.001,26377,4(a),31991,Sn(1-x)MnxTe_ x=0.15,undefined,,1.9e+26,,,,0.00061206,,,0.00021652,,,,
18650,10.1016/j.jmat.2015.09.001,26377,4(a),31991,Sn(1-x)MnxTe_ x=0.15,undefined,,1.905e+26,,,,0.00061194,,,0.00021646,,,,
18650,10.1016/j.jmat.2015.09.001,26377,4(a),31991,Sn(1-x)MnxTe_ x=0.15,undefined,,1.91e+26,,,,0.00061182,,,0.00021639,,,,
18650,10.1016/j.jmat.2015.09.001,26377,4(a),31991,Sn(1-x)MnxTe_ x=0.15,undefined,,1.915e+26,,,,0.0006117,,,0.00021632,,,,
18650,10.1016/j.jmat.2015.09.001,26377,4(a),31991,Sn(1-x)MnxTe_ x=0.15,undefined,,1.92e+26,,,,0.00061158,,,0.00021625,,,,
18650,10.1016/j.jmat.2015.09.001,26377,4(a),31991,Sn(1-x)MnxTe_ x=0.15,undefined,,1.925e+26,,,,0.00061146,,,0.00021618,,,,
18650,10.1016/j.jmat.2015.09.001,26377,4(a),31991,Sn(1-x)MnxTe_ x=0.15,undefined,,1.93e+26,,,,0.00061134,,,0.00021612,,,,
18650,10.1016/j.jmat.2015.09.001,26377,4(a),31991,Sn(1-x)MnxTe_ x=0.15,undefined,,1.935e+26,,,,0.00061122,,,0.00021605,,,,
18650,10.1016/j.jmat.2015.09.001,26377,4(a),31991,Sn(1-x)MnxTe_ x=0.15,undefined,,1.94e+26,,,,0.00061109,,,0.00021598,,,,
18650,10.1016/j.jmat.2015.09.001,26377,4(a),31991,Sn(1-x)MnxTe_ x=0.15,undefined,,1.945e+26,,,,0.00061097,,,0.00021591,,,,
18650,10.1016/j.jmat.2015.09.001,26377,4(a),31991,Sn(1-x)MnxTe_ x=0.15,undefined,,1.95e+26,,,,0.00061085,,,0.00021585,,,,
18650,10.1016/j.jmat.2015.09.001,26377,4(a),31991,Sn(1-x)MnxTe_ x=0.15,undefined,,1.955e+26,,,,0.00061073,,,0.00021578,,,,
18650,10.1016/j.jmat.2015.09.001,26377,4(a),31991,Sn(1-x)MnxTe_ x=0.15,undefined,,1.96e+26,,,,0.00061061,,,0.00021571,,,,
18650,10.1016/j.jmat.2015.09.001,26377,4(a),31991,Sn(1-x)MnxTe_ x=0.15,undefined,,1.965e+26,,,,0.00061049,,,0.00021564,,,,
18650,10.1016/j.jmat.2015.09.001,26377,4(a),31991,Sn(1-x)MnxTe_ x=0.15,undefined,,1.97e+26,,,,0.00061037,,,0.00021557,,,,
18650,10.1016/j.jmat.2015.09.001,26377,4(a),31991,Sn(1-x)MnxTe_ x=0.15,undefined,,1.975e+26,,,,0.00061024,,,0.00021551,,,,
18650,10.1016/j.jmat.2015.09.001,26377,4(a),31991,Sn(1-x)MnxTe_ x=0.15,undefined,,1.98e+26,,,,0.00061012,,,0.00021544,,,,
18650,10.1016/j.jmat.2015.09.001,26377,4(a),31991,Sn(1-x)MnxTe_ x=0.15,undefined,,1.985e+26,,,,0.00061,,,0.00021537,,,,
18650,10.1016/j.jmat.2015.09.001,26377,4(a),31991,Sn(1-x)MnxTe_ x=0.15,undefined,,1.99e+26,,,,0.00060988,,,0.0002153,,,,
18650,10.1016/j.jmat.2015.09.001,26377,4(a),31991,Sn(1-x)MnxTe_ x=0.15,undefined,,1.995e+26,,,,0.00060976,,,0.00021524,,,,
18650,10.1016/j.jmat.2015.09.001,26377,4(a),31991,Sn(1-x)MnxTe_ x=0.15,undefined,,2e+26,,,,0.00060964,,,0.00021517,,,,
18650,10.1016/j.jmat.2015.09.001,26377,4(a),31991,Sn(1-x)MnxTe_ x=0.15,undefined,,2.005e+26,,,,0.00060952,,,0.0002151,,,,
18650,10.1016/j.jmat.2015.09.001,26377,4(a),31991,Sn(1-x)MnxTe_ x=0.15,undefined,,2.01e+26,,,,0.0006094,,,0.00021503,,,,
18650,10.1016/j.jmat.2015.09.001,26377,4(a),31991,Sn(1-x)MnxTe_ x=0.15,undefined,,2.015e+26,,,,0.00060927,,,0.00021496,,,,
18650,10.1016/j.jmat.2015.09.001,26377,4(a),31991,Sn(1-x)MnxTe_ x=0.15,undefined,,2.02e+26,,,,0.00060915,,,0.0002149,,,,
18650,10.1016/j.jmat.2015.09.001,26377,4(a),31991,Sn(1-x)MnxTe_ x=0.15,undefined,,2.025e+26,,,,0.00060903,,,0.00021483,,,,
18650,10.1016/j.jmat.2015.09.001,26377,4(a),31991,Sn(1-x)MnxTe_ x=0.15,undefined,,2.03e+26,,,,0.00060891,,,0.00021476,,,,
18650,10.1016/j.jmat.2015.09.001,26377,4(a),31991,Sn(1-x)MnxTe_ x=0.15,undefined,,2.035e+26,,,,0.00060879,,,0.00021469,,,,
18650,10.1016/j.jmat.2015.09.001,26377,4(a),31991,Sn(1-x)MnxTe_ x=0.15,undefined,,2.04e+26,,,,0.00060867,,,0.00021463,,,,
18650,10.1016/j.jmat.2015.09.001,26377,4(a),31991,Sn(1-x)MnxTe_ x=0.15,undefined,,2.045e+26,,,,0.00060855,,,0.00021456,,,,