sid,DOI,figureid,fignum,sampleid,samplename,composition,Temperature,Carrier concentration,Electrical conductivity,Electrical resistivity,Hall coefficient,Hall movility,Lattice thermal conductivity,Power factor,Seebeck coefficient,Thermal conductivity,ZT,total thermal conductivity,Figure of merit Z
27946,10.1021/acsenergylett.6b00671,26385,3(a),33045,Sn0.91Mg0.12Te(Cu2Te)x,undefined,,1.955e+26,,,,0.0072871,,,0.000029335,,,,
27946,10.1021/acsenergylett.6b00671,26385,3(a),33045,Sn0.91Mg0.12Te(Cu2Te)x,undefined,,1.96e+26,,,,0.0072743,,,0.000029338,,,,
27946,10.1021/acsenergylett.6b00671,26385,3(a),33045,Sn0.91Mg0.12Te(Cu2Te)x,undefined,,1.965e+26,,,,0.0072615,,,0.00002934,,,,
27946,10.1021/acsenergylett.6b00671,26385,3(a),33045,Sn0.91Mg0.12Te(Cu2Te)x,undefined,,1.97e+26,,,,0.0072487,,,0.000029342,,,,
27946,10.1021/acsenergylett.6b00671,26385,3(a),33045,Sn0.91Mg0.12Te(Cu2Te)x,undefined,,1.975e+26,,,,0.0072359,,,0.000029345,,,,
27946,10.1021/acsenergylett.6b00671,26385,3(a),33045,Sn0.91Mg0.12Te(Cu2Te)x,undefined,,1.98e+26,,,,0.0072231,,,0.000029347,,,,
27946,10.1021/acsenergylett.6b00671,26385,3(a),33045,Sn0.91Mg0.12Te(Cu2Te)x,undefined,,1.985e+26,,,,0.0072103,,,0.000029349,,,,
27946,10.1021/acsenergylett.6b00671,26385,3(a),33045,Sn0.91Mg0.12Te(Cu2Te)x,undefined,,1.99e+26,,,,0.0071975,,,0.000029351,,,,
27946,10.1021/acsenergylett.6b00671,26385,3(a),33045,Sn0.91Mg0.12Te(Cu2Te)x,undefined,,1.995e+26,,,,0.0071847,,,0.000029354,,,,
27946,10.1021/acsenergylett.6b00671,26385,3(a),33045,Sn0.91Mg0.12Te(Cu2Te)x,undefined,,2e+26,,,,0.0071719,,,0.000029356,,,,
27946,10.1021/acsenergylett.6b00671,26385,3(a),33045,Sn0.91Mg0.12Te(Cu2Te)x,undefined,,2.005e+26,,,,0.0071591,,,0.000029358,,,,
27946,10.1021/acsenergylett.6b00671,26385,3(a),33045,Sn0.91Mg0.12Te(Cu2Te)x,undefined,,2.01e+26,,,,0.0071463,,,0.000029361,,,,
27946,10.1021/acsenergylett.6b00671,26385,3(a),33045,Sn0.91Mg0.12Te(Cu2Te)x,undefined,,2.015e+26,,,,0.0071335,,,0.000029363,,,,
27946,10.1021/acsenergylett.6b00671,26385,3(a),33045,Sn0.91Mg0.12Te(Cu2Te)x,undefined,,2.02e+26,,,,0.0071207,,,0.000029365,,,,
27946,10.1021/acsenergylett.6b00671,26385,3(a),33045,Sn0.91Mg0.12Te(Cu2Te)x,undefined,,2.025e+26,,,,0.0071079,,,0.000029368,,,,
27946,10.1021/acsenergylett.6b00671,26385,3(a),33045,Sn0.91Mg0.12Te(Cu2Te)x,undefined,,2.03e+26,,,,0.0070952,,,0.00002937,,,,
27946,10.1021/acsenergylett.6b00671,26385,3(a),33045,Sn0.91Mg0.12Te(Cu2Te)x,undefined,,2.035e+26,,,,0.0070824,,,0.000029372,,,,
27946,10.1021/acsenergylett.6b00671,26385,3(a),33045,Sn0.91Mg0.12Te(Cu2Te)x,undefined,,2.04e+26,,,,0.0070696,,,0.000029375,,,,
27946,10.1021/acsenergylett.6b00671,26385,3(a),33045,Sn0.91Mg0.12Te(Cu2Te)x,undefined,,2.045e+26,,,,0.0070568,,,0.000029377,,,,
27946,10.1021/acsenergylett.6b00671,26385,3(a),33045,Sn0.91Mg0.12Te(Cu2Te)x,undefined,,2.05e+26,,,,0.007044,,,0.000029379,,,,
27946,10.1021/acsenergylett.6b00671,26385,3(a),33045,Sn0.91Mg0.12Te(Cu2Te)x,undefined,,2.055e+26,,,,0.0070312,,,0.000029381,,,,
27946,10.1021/acsenergylett.6b00671,26385,3(a),33045,Sn0.91Mg0.12Te(Cu2Te)x,undefined,,2.06e+26,,,,0.0070184,,,0.000029384,,,,
27946,10.1021/acsenergylett.6b00671,26385,3(a),33045,Sn0.91Mg0.12Te(Cu2Te)x,undefined,,2.065e+26,,,,0.0070056,,,0.000029386,,,,
27946,10.1021/acsenergylett.6b00671,26385,3(a),33045,Sn0.91Mg0.12Te(Cu2Te)x,undefined,,2.07e+26,,,,0.0069928,,,0.000029388,,,,
27946,10.1021/acsenergylett.6b00671,26385,3(a),33045,Sn0.91Mg0.12Te(Cu2Te)x,undefined,,2.075e+26,,,,0.00698,,,0.000029391,,,,
27946,10.1021/acsenergylett.6b00671,26385,3(a),33045,Sn0.91Mg0.12Te(Cu2Te)x,undefined,,2.08e+26,,,,0.0069672,,,0.000029393,,,,
27946,10.1021/acsenergylett.6b00671,26385,3(a),33045,Sn0.91Mg0.12Te(Cu2Te)x,undefined,,2.085e+26,,,,0.0069544,,,0.000029395,,,,
27946,10.1021/acsenergylett.6b00671,26385,3(a),33045,Sn0.91Mg0.12Te(Cu2Te)x,undefined,,2.09e+26,,,,0.0069416,,,0.000029398,,,,
27946,10.1021/acsenergylett.6b00671,26385,3(a),33045,Sn0.91Mg0.12Te(Cu2Te)x,undefined,,2.095e+26,,,,0.0069288,,,0.0000294,,,,
27946,10.1021/acsenergylett.6b00671,26385,3(a),33045,Sn0.91Mg0.12Te(Cu2Te)x,undefined,,2.1e+26,,,,0.006916,,,0.000029402,,,,
27946,10.1021/acsenergylett.6b00671,26385,3(a),33045,Sn0.91Mg0.12Te(Cu2Te)x,undefined,,2.105e+26,,,,0.0069032,,,0.000029405,,,,
27946,10.1021/acsenergylett.6b00671,26385,3(a),33045,Sn0.91Mg0.12Te(Cu2Te)x,undefined,,2.11e+26,,,,0.0068904,,,0.000029407,,,,
27946,10.1021/acsenergylett.6b00671,26385,3(a),33045,Sn0.91Mg0.12Te(Cu2Te)x,undefined,,2.115e+26,,,,0.0068776,,,0.000029409,,,,
27946,10.1021/acsenergylett.6b00671,26385,3(a),33045,Sn0.91Mg0.12Te(Cu2Te)x,undefined,,2.12e+26,,,,0.0068648,,,0.000029411,,,,
27946,10.1021/acsenergylett.6b00671,26385,3(a),33045,Sn0.91Mg0.12Te(Cu2Te)x,undefined,,2.125e+26,,,,0.006852,,,0.000029414,,,,
27946,10.1021/acsenergylett.6b00671,26385,3(a),33045,Sn0.91Mg0.12Te(Cu2Te)x,undefined,,2.13e+26,,,,0.0068392,,,0.000029416,,,,
27946,10.1021/acsenergylett.6b00671,26385,3(a),33045,Sn0.91Mg0.12Te(Cu2Te)x,undefined,,2.135e+26,,,,0.0068264,,,0.000029418,,,,
27946,10.1021/acsenergylett.6b00671,26385,3(a),33045,Sn0.91Mg0.12Te(Cu2Te)x,undefined,,2.14e+26,,,,0.0068136,,,0.000029421,,,,
27946,10.1021/acsenergylett.6b00671,26385,3(a),33045,Sn0.91Mg0.12Te(Cu2Te)x,undefined,,2.145e+26,,,,0.0068008,,,0.000029423,,,,
27946,10.1021/acsenergylett.6b00671,26385,3(a),33045,Sn0.91Mg0.12Te(Cu2Te)x,undefined,,2.15e+26,,,,0.006788,,,0.000029425,,,,
27946,10.1021/acsenergylett.6b00671,26385,3(a),33045,Sn0.91Mg0.12Te(Cu2Te)x,undefined,,2.155e+26,,,,0.0067752,,,0.000029428,,,,
27946,10.1021/acsenergylett.6b00671,26385,3(a),33045,Sn0.91Mg0.12Te(Cu2Te)x,undefined,,2.16e+26,,,,0.0067625,,,0.00002943,,,,
27946,10.1021/acsenergylett.6b00671,26385,3(a),33045,Sn0.91Mg0.12Te(Cu2Te)x,undefined,,2.165e+26,,,,0.0067497,,,0.000029432,,,,
27946,10.1021/acsenergylett.6b00671,26385,3(a),33045,Sn0.91Mg0.12Te(Cu2Te)x,undefined,,2.17e+26,,,,0.0067369,,,0.000029434,,,,
27946,10.1021/acsenergylett.6b00671,26385,3(a),33045,Sn0.91Mg0.12Te(Cu2Te)x,undefined,,2.175e+26,,,,0.0067241,,,0.000029437,,,,
27946,10.1021/acsenergylett.6b00671,26385,3(a),33045,Sn0.91Mg0.12Te(Cu2Te)x,undefined,,2.18e+26,,,,0.0067113,,,0.000029439,,,,
27946,10.1021/acsenergylett.6b00671,26385,3(a),33045,Sn0.91Mg0.12Te(Cu2Te)x,undefined,,2.185e+26,,,,0.0066985,,,0.000029441,,,,
27946,10.1021/acsenergylett.6b00671,26385,3(a),33045,Sn0.91Mg0.12Te(Cu2Te)x,undefined,,2.19e+26,,,,0.0066857,,,0.000029444,,,,
27946,10.1021/acsenergylett.6b00671,26385,3(a),33045,Sn0.91Mg0.12Te(Cu2Te)x,undefined,,2.195e+26,,,,0.0066729,,,0.000029446,,,,
27946,10.1021/acsenergylett.6b00671,26385,3(a),33045,Sn0.91Mg0.12Te(Cu2Te)x,undefined,,2.2e+26,,,,0.0066601,,,0.000029448,,,,
27946,10.1021/acsenergylett.6b00671,26385,3(a),33045,Sn0.91Mg0.12Te(Cu2Te)x,undefined,,2.205e+26,,,,0.0066473,,,0.000029451,,,,
27946,10.1021/acsenergylett.6b00671,26385,3(a),33045,Sn0.91Mg0.12Te(Cu2Te)x,undefined,,2.21e+26,,,,0.0066345,,,0.000029453,,,,
27946,10.1021/acsenergylett.6b00671,26385,3(a),33045,Sn0.91Mg0.12Te(Cu2Te)x,undefined,,2.215e+26,,,,0.0066217,,,0.000029455,,,,
27946,10.1021/acsenergylett.6b00671,26385,3(a),33045,Sn0.91Mg0.12Te(Cu2Te)x,undefined,,2.22e+26,,,,0.0066089,,,0.000029458,,,,
27946,10.1021/acsenergylett.6b00671,26385,3(a),33045,Sn0.91Mg0.12Te(Cu2Te)x,undefined,,2.225e+26,,,,0.0065961,,,0.00002946,,,,
27946,10.1021/acsenergylett.6b00671,26385,3(a),33045,Sn0.91Mg0.12Te(Cu2Te)x,undefined,,2.23e+26,,,,0.0065833,,,0.000029462,,,,
27946,10.1021/acsenergylett.6b00671,26385,3(a),33045,Sn0.91Mg0.12Te(Cu2Te)x,undefined,,2.235e+26,,,,0.0065705,,,0.000029464,,,,
27946,10.1021/acsenergylett.6b00671,26385,3(a),33045,Sn0.91Mg0.12Te(Cu2Te)x,undefined,,2.24e+26,,,,0.0065577,,,0.000029467,,,,
27946,10.1021/acsenergylett.6b00671,26385,3(a),33045,Sn0.91Mg0.12Te(Cu2Te)x,undefined,,2.245e+26,,,,0.0065449,,,0.000029469,,,,
27946,10.1021/acsenergylett.6b00671,26385,3(a),33045,Sn0.91Mg0.12Te(Cu2Te)x,undefined,,2.25e+26,,,,0.0065321,,,0.000029471,,,,
27946,10.1021/acsenergylett.6b00671,26385,3(a),33045,Sn0.91Mg0.12Te(Cu2Te)x,undefined,,2.255e+26,,,,0.0065193,,,0.000029474,,,,
27946,10.1021/acsenergylett.6b00671,26385,3(a),33045,Sn0.91Mg0.12Te(Cu2Te)x,undefined,,2.26e+26,,,,0.0065065,,,0.000029476,,,,
27946,10.1021/acsenergylett.6b00671,26385,3(a),33045,Sn0.91Mg0.12Te(Cu2Te)x,undefined,,2.265e+26,,,,0.0064937,,,0.000029478,,,,
27946,10.1021/acsenergylett.6b00671,26385,3(a),33045,Sn0.91Mg0.12Te(Cu2Te)x,undefined,,2.27e+26,,,,0.0064809,,,0.000029481,,,,
27946,10.1021/acsenergylett.6b00671,26385,3(a),33045,Sn0.91Mg0.12Te(Cu2Te)x,undefined,,2.275e+26,,,,0.0064681,,,0.000029483,,,,
27946,10.1021/acsenergylett.6b00671,26385,3(a),33045,Sn0.91Mg0.12Te(Cu2Te)x,undefined,,2.28e+26,,,,0.0064553,,,0.000029485,,,,
27946,10.1021/acsenergylett.6b00671,26385,3(a),33045,Sn0.91Mg0.12Te(Cu2Te)x,undefined,,2.285e+26,,,,0.0064425,,,0.000029488,,,,
27946,10.1021/acsenergylett.6b00671,26385,3(a),33045,Sn0.91Mg0.12Te(Cu2Te)x,undefined,,2.29e+26,,,,0.0064298,,,0.00002949,,,,
27946,10.1021/acsenergylett.6b00671,26385,3(a),33045,Sn0.91Mg0.12Te(Cu2Te)x,undefined,,2.295e+26,,,,0.006417,,,0.000029492,,,,
27946,10.1021/acsenergylett.6b00671,26385,3(a),33045,Sn0.91Mg0.12Te(Cu2Te)x,undefined,,2.3e+26,,,,0.0064042,,,0.000029494,,,,
27946,10.1021/acsenergylett.6b00671,26385,3(a),33045,Sn0.91Mg0.12Te(Cu2Te)x,undefined,,2.305e+26,,,,0.0063914,,,0.000029497,,,,
27946,10.1021/acsenergylett.6b00671,26385,3(a),33045,Sn0.91Mg0.12Te(Cu2Te)x,undefined,,2.31e+26,,,,0.0063786,,,0.000029499,,,,
27946,10.1021/acsenergylett.6b00671,26385,3(a),33045,Sn0.91Mg0.12Te(Cu2Te)x,undefined,,2.315e+26,,,,0.0063658,,,0.000029501,,,,
27946,10.1021/acsenergylett.6b00671,26385,3(a),33045,Sn0.91Mg0.12Te(Cu2Te)x,undefined,,2.32e+26,,,,0.006353,,,0.000029504,,,,
27946,10.1021/acsenergylett.6b00671,26385,3(a),33045,Sn0.91Mg0.12Te(Cu2Te)x,undefined,,2.325e+26,,,,0.0063402,,,0.000029506,,,,
27946,10.1021/acsenergylett.6b00671,26385,3(a),33045,Sn0.91Mg0.12Te(Cu2Te)x,undefined,,2.33e+26,,,,0.0063274,,,0.000029508,,,,
27946,10.1021/acsenergylett.6b00671,26385,3(a),33045,Sn0.91Mg0.12Te(Cu2Te)x,undefined,,2.335e+26,,,,0.0063146,,,0.000029511,,,,
27946,10.1021/acsenergylett.6b00671,26385,3(a),33045,Sn0.91Mg0.12Te(Cu2Te)x,undefined,,2.34e+26,,,,0.0063018,,,0.000029513,,,,
27946,10.1021/acsenergylett.6b00671,26385,3(a),33045,Sn0.91Mg0.12Te(Cu2Te)x,undefined,,2.345e+26,,,,0.006289,,,0.000029515,,,,
27946,10.1021/acsenergylett.6b00671,26385,3(a),33045,Sn0.91Mg0.12Te(Cu2Te)x,undefined,,2.35e+26,,,,0.0062762,,,0.000029518,,,,
27946,10.1021/acsenergylett.6b00671,26385,3(a),33045,Sn0.91Mg0.12Te(Cu2Te)x,undefined,,2.355e+26,,,,0.0062634,,,0.00002952,,,,
27946,10.1021/acsenergylett.6b00671,26385,3(a),33045,Sn0.91Mg0.12Te(Cu2Te)x,undefined,,2.36e+26,,,,0.0062506,,,0.000029522,,,,
27946,10.1021/acsenergylett.6b00671,26385,3(a),33045,Sn0.91Mg0.12Te(Cu2Te)x,undefined,,2.365e+26,,,,0.0062378,,,0.000029524,,,,
27946,10.1021/acsenergylett.6b00671,26385,3(a),33045,Sn0.91Mg0.12Te(Cu2Te)x,undefined,,2.37e+26,,,,0.006225,,,0.000029527,,,,
27946,10.1021/acsenergylett.6b00671,26385,3(a),33045,Sn0.91Mg0.12Te(Cu2Te)x,undefined,,2.375e+26,,,,0.0062122,,,0.000029529,,,,
27946,10.1021/acsenergylett.6b00671,26385,3(a),33045,Sn0.91Mg0.12Te(Cu2Te)x,undefined,,2.38e+26,,,,0.0061994,,,0.000029531,,,,
27946,10.1021/acsenergylett.6b00671,26385,3(a),33045,Sn0.91Mg0.12Te(Cu2Te)x,undefined,,2.385e+26,,,,0.0061866,,,0.000029534,,,,
27946,10.1021/acsenergylett.6b00671,26385,3(a),33045,Sn0.91Mg0.12Te(Cu2Te)x,undefined,,2.39e+26,,,,0.0061738,,,0.000029536,,,,
27946,10.1021/acsenergylett.6b00671,26385,3(a),33045,Sn0.91Mg0.12Te(Cu2Te)x,undefined,,2.395e+26,,,,0.006161,,,0.000029538,,,,
27946,10.1021/acsenergylett.6b00671,26385,3(a),33045,Sn0.91Mg0.12Te(Cu2Te)x,undefined,,2.4e+26,,,,0.0061482,,,0.000029541,,,,
27946,10.1021/acsenergylett.6b00671,26385,3(a),33045,Sn0.91Mg0.12Te(Cu2Te)x,undefined,,2.405e+26,,,,0.0061354,,,0.000029543,,,,
27946,10.1021/acsenergylett.6b00671,26385,3(a),33045,Sn0.91Mg0.12Te(Cu2Te)x,undefined,,2.41e+26,,,,0.0061226,,,0.000029545,,,,
27946,10.1021/acsenergylett.6b00671,26385,3(a),33045,Sn0.91Mg0.12Te(Cu2Te)x,undefined,,2.415e+26,,,,0.0061098,,,0.000029548,,,,
27946,10.1021/acsenergylett.6b00671,26385,3(a),33045,Sn0.91Mg0.12Te(Cu2Te)x,undefined,,2.42e+26,,,,0.0060971,,,0.00002955,,,,
27946,10.1021/acsenergylett.6b00671,26385,3(a),33045,Sn0.91Mg0.12Te(Cu2Te)x,undefined,,2.425e+26,,,,0.0060843,,,0.000029552,,,,
27946,10.1021/acsenergylett.6b00671,26385,3(a),33045,Sn0.91Mg0.12Te(Cu2Te)x,undefined,,2.43e+26,,,,0.0060715,,,0.000029554,,,,
27946,10.1021/acsenergylett.6b00671,26385,3(a),33045,Sn0.91Mg0.12Te(Cu2Te)x,undefined,,2.435e+26,,,,0.0060587,,,0.000029557,,,,
27946,10.1021/acsenergylett.6b00671,26385,3(a),33045,Sn0.91Mg0.12Te(Cu2Te)x,undefined,,2.44e+26,,,,0.0060459,,,0.000029559,,,,
27946,10.1021/acsenergylett.6b00671,26385,3(a),33045,Sn0.91Mg0.12Te(Cu2Te)x,undefined,,2.445e+26,,,,0.0060331,,,0.000029561,,,,
27946,10.1021/acsenergylett.6b00671,26385,3(a),33045,Sn0.91Mg0.12Te(Cu2Te)x,undefined,,2.45e+26,,,,0.0060203,,,0.000029564,,,,
27946,10.1021/acsenergylett.6b00671,26385,3(a),33045,Sn0.91Mg0.12Te(Cu2Te)x,undefined,,2.455e+26,,,,0.0060075,,,0.000029566,,,,
27946,10.1021/acsenergylett.6b00671,26385,3(a),33045,Sn0.91Mg0.12Te(Cu2Te)x,undefined,,2.46e+26,,,,0.0059947,,,0.000029568,,,,
27946,10.1021/acsenergylett.6b00671,26385,3(a),33045,Sn0.91Mg0.12Te(Cu2Te)x,undefined,,2.465e+26,,,,0.0059819,,,0.000029571,,,,
27946,10.1021/acsenergylett.6b00671,26385,3(a),33045,Sn0.91Mg0.12Te(Cu2Te)x,undefined,,2.47e+26,,,,0.0059691,,,0.000029573,,,,
27946,10.1021/acsenergylett.6b00671,26385,3(a),33045,Sn0.91Mg0.12Te(Cu2Te)x,undefined,,2.475e+26,,,,0.0059563,,,0.000029575,,,,
27946,10.1021/acsenergylett.6b00671,26385,3(a),33045,Sn0.91Mg0.12Te(Cu2Te)x,undefined,,2.48e+26,,,,0.0059435,,,0.000029578,,,,
27946,10.1021/acsenergylett.6b00671,26385,3(a),33045,Sn0.91Mg0.12Te(Cu2Te)x,undefined,,2.485e+26,,,,0.0059307,,,0.00002958,,,,
27946,10.1021/acsenergylett.6b00671,26385,3(a),33045,Sn0.91Mg0.12Te(Cu2Te)x,undefined,,2.49e+26,,,,0.0059179,,,0.000029582,,,,
27946,10.1021/acsenergylett.6b00671,26385,3(a),33045,Sn0.91Mg0.12Te(Cu2Te)x,undefined,,2.495e+26,,,,0.0059051,,,0.000029584,,,,
27946,10.1021/acsenergylett.6b00671,26385,3(a),33045,Sn0.91Mg0.12Te(Cu2Te)x,undefined,,2.5e+26,,,,0.0058923,,,0.000029587,,,,
27946,10.1021/acsenergylett.6b00671,26385,3(a),33045,Sn0.91Mg0.12Te(Cu2Te)x,undefined,,2.505e+26,,,,0.0058795,,,0.000029589,,,,
27946,10.1021/acsenergylett.6b00671,26385,3(a),33045,Sn0.91Mg0.12Te(Cu2Te)x,undefined,,2.51e+26,,,,0.0058667,,,0.000029591,,,,
27946,10.1021/acsenergylett.6b00671,26385,3(a),33045,Sn0.91Mg0.12Te(Cu2Te)x,undefined,,2.515e+26,,,,0.0058539,,,0.000029594,,,,
27946,10.1021/acsenergylett.6b00671,26385,3(a),33045,Sn0.91Mg0.12Te(Cu2Te)x,undefined,,2.52e+26,,,,0.0058411,,,0.000029596,,,,
27946,10.1021/acsenergylett.6b00671,26385,3(a),33045,Sn0.91Mg0.12Te(Cu2Te)x,undefined,,2.525e+26,,,,0.0058283,,,0.000029598,,,,
27946,10.1021/acsenergylett.6b00671,26385,3(a),33045,Sn0.91Mg0.12Te(Cu2Te)x,undefined,,2.53e+26,,,,0.0058155,,,0.000029601,,,,
27946,10.1021/acsenergylett.6b00671,26385,3(a),33045,Sn0.91Mg0.12Te(Cu2Te)x,undefined,,2.535e+26,,,,0.0058027,,,0.000029603,,,,
27946,10.1021/acsenergylett.6b00671,26385,3(a),33045,Sn0.91Mg0.12Te(Cu2Te)x,undefined,,2.54e+26,,,,0.0057899,,,0.000029605,,,,
27946,10.1021/acsenergylett.6b00671,26385,3(a),33045,Sn0.91Mg0.12Te(Cu2Te)x,undefined,,2.545e+26,,,,0.0057771,,,0.000029607,,,,
27946,10.1021/acsenergylett.6b00671,26385,3(a),33045,Sn0.91Mg0.12Te(Cu2Te)x,undefined,,2.55e+26,,,,0.0057644,,,0.00002961,,,,
27946,10.1021/acsenergylett.6b00671,26385,3(a),33045,Sn0.91Mg0.12Te(Cu2Te)x,undefined,,2.555e+26,,,,0.0057516,,,0.000029612,,,,
27946,10.1021/acsenergylett.6b00671,26385,3(a),33045,Sn0.91Mg0.12Te(Cu2Te)x,undefined,,2.56e+26,,,,0.0057388,,,0.000029614,,,,
27946,10.1021/acsenergylett.6b00671,26385,3(a),33045,Sn0.91Mg0.12Te(Cu2Te)x,undefined,,2.565e+26,,,,0.005726,,,0.000029617,,,,
27946,10.1021/acsenergylett.6b00671,26385,3(a),33045,Sn0.91Mg0.12Te(Cu2Te)x,undefined,,2.57e+26,,,,0.0057132,,,0.000029619,,,,
27946,10.1021/acsenergylett.6b00671,26385,3(a),33045,Sn0.91Mg0.12Te(Cu2Te)x,undefined,,2.575e+26,,,,0.0057004,,,0.000029621,,,,
27946,10.1021/acsenergylett.6b00671,26385,3(a),33045,Sn0.91Mg0.12Te(Cu2Te)x,undefined,,2.58e+26,,,,0.0056876,,,0.000029624,,,,
27946,10.1021/acsenergylett.6b00671,26385,3(a),33045,Sn0.91Mg0.12Te(Cu2Te)x,undefined,,2.585e+26,,,,0.0056748,,,0.000029626,,,,
27946,10.1021/acsenergylett.6b00671,26385,3(a),33045,Sn0.91Mg0.12Te(Cu2Te)x,undefined,,2.59e+26,,,,0.005662,,,0.000029628,,,,
27946,10.1021/acsenergylett.6b00671,26385,3(a),33045,Sn0.91Mg0.12Te(Cu2Te)x,undefined,,2.595e+26,,,,0.0056492,,,0.000029631,,,,
27946,10.1021/acsenergylett.6b00671,26385,3(a),33045,Sn0.91Mg0.12Te(Cu2Te)x,undefined,,2.6e+26,,,,0.0056364,,,0.000029633,,,,
27946,10.1021/acsenergylett.6b00671,26385,3(a),33045,Sn0.91Mg0.12Te(Cu2Te)x,undefined,,2.605e+26,,,,0.0056236,,,0.000029635,,,,
27946,10.1021/acsenergylett.6b00671,26385,3(a),33045,Sn0.91Mg0.12Te(Cu2Te)x,undefined,,2.61e+26,,,,0.0056108,,,0.000029637,,,,
27946,10.1021/acsenergylett.6b00671,26385,3(a),33045,Sn0.91Mg0.12Te(Cu2Te)x,undefined,,2.615e+26,,,,0.005598,,,0.00002964,,,,
27946,10.1021/acsenergylett.6b00671,26385,3(a),33045,Sn0.91Mg0.12Te(Cu2Te)x,undefined,,2.62e+26,,,,0.0055852,,,0.000029642,,,,
27946,10.1021/acsenergylett.6b00671,26385,3(a),33045,Sn0.91Mg0.12Te(Cu2Te)x,undefined,,2.625e+26,,,,0.0055724,,,0.000029644,,,,
27946,10.1021/acsenergylett.6b00671,26385,3(a),33045,Sn0.91Mg0.12Te(Cu2Te)x,undefined,,2.63e+26,,,,0.0055596,,,0.000029647,,,,
27946,10.1021/acsenergylett.6b00671,26385,3(a),33045,Sn0.91Mg0.12Te(Cu2Te)x,undefined,,2.635e+26,,,,0.0055468,,,0.000029649,,,,
27946,10.1021/acsenergylett.6b00671,26385,3(a),33045,Sn0.91Mg0.12Te(Cu2Te)x,undefined,,2.64e+26,,,,0.005534,,,0.000029651,,,,
27946,10.1021/acsenergylett.6b00671,26385,3(a),33045,Sn0.91Mg0.12Te(Cu2Te)x,undefined,,2.645e+26,,,,0.0055212,,,0.000029654,,,,
27946,10.1021/acsenergylett.6b00671,26385,3(a),33045,Sn0.91Mg0.12Te(Cu2Te)x,undefined,,2.65e+26,,,,0.0055084,,,0.000029656,,,,
27946,10.1021/acsenergylett.6b00671,26385,3(a),33045,Sn0.91Mg0.12Te(Cu2Te)x,undefined,,2.655e+26,,,,0.0054956,,,0.000029658,,,,
27946,10.1021/acsenergylett.6b00671,26385,3(a),33045,Sn0.91Mg0.12Te(Cu2Te)x,undefined,,2.66e+26,,,,0.0054828,,,0.000029661,,,,
27946,10.1021/acsenergylett.6b00671,26385,3(a),33045,Sn0.91Mg0.12Te(Cu2Te)x,undefined,,2.665e+26,,,,0.00547,,,0.000029663,,,,
27946,10.1021/acsenergylett.6b00671,26385,3(a),33045,Sn0.91Mg0.12Te(Cu2Te)x,undefined,,2.67e+26,,,,0.0054572,,,0.000029665,,,,
27946,10.1021/acsenergylett.6b00671,26385,3(a),33045,Sn0.91Mg0.12Te(Cu2Te)x,undefined,,2.675e+26,,,,0.0054444,,,0.000029667,,,,
27946,10.1021/acsenergylett.6b00671,26385,3(a),33045,Sn0.91Mg0.12Te(Cu2Te)x,undefined,,2.68e+26,,,,0.0054317,,,0.00002967,,,,
27946,10.1021/acsenergylett.6b00671,26385,3(a),33045,Sn0.91Mg0.12Te(Cu2Te)x,undefined,,2.685e+26,,,,0.0054189,,,0.000029672,,,,
27946,10.1021/acsenergylett.6b00671,26385,3(a),33045,Sn0.91Mg0.12Te(Cu2Te)x,undefined,,2.69e+26,,,,0.0054061,,,0.000029674,,,,
27946,10.1021/acsenergylett.6b00671,26385,3(a),33045,Sn0.91Mg0.12Te(Cu2Te)x,undefined,,2.695e+26,,,,0.0053933,,,0.000029677,,,,
27946,10.1021/acsenergylett.6b00671,26385,3(a),33045,Sn0.91Mg0.12Te(Cu2Te)x,undefined,,2.7e+26,,,,0.0053805,,,0.000029679,,,,
27946,10.1021/acsenergylett.6b00671,26385,3(a),33045,Sn0.91Mg0.12Te(Cu2Te)x,undefined,,2.705e+26,,,,0.0053677,,,0.000029681,,,,
27946,10.1021/acsenergylett.6b00671,26385,3(a),33045,Sn0.91Mg0.12Te(Cu2Te)x,undefined,,2.71e+26,,,,0.0053549,,,0.000029684,,,,
27946,10.1021/acsenergylett.6b00671,26385,3(a),33045,Sn0.91Mg0.12Te(Cu2Te)x,undefined,,2.715e+26,,,,0.0053421,,,0.000029686,,,,
27946,10.1021/acsenergylett.6b00671,26385,3(a),33045,Sn0.91Mg0.12Te(Cu2Te)x,undefined,,2.72e+26,,,,0.0053293,,,0.000029688,,,,