sid,DOI,figureid,fignum,sampleid,samplename,composition,Temperature,Carrier concentration,Electrical conductivity,Electrical resistivity,Hall coefficient,Hall movility,Lattice thermal conductivity,Power factor,Seebeck coefficient,Thermal conductivity,ZT,total thermal conductivity,Figure of merit Z
27936,10.1021/acsami.7b08770,25519,7(a),31774,Sn1−xNaxS_ x=0.02_ 2nd measure_ heating,undefined,700,,1180.5,0.00084708,,,,0.00016021,0.00036839,,0.32208,,
27936,10.1021/acsami.7b08770,25519,7(a),31774,Sn1−xNaxS_ x=0.02_ 2nd measure_ heating,undefined,750,,1190.3,0.00084011,,,,0.00016962,0.00037749,,0.36623,,
27936,10.1021/acsami.7b08770,25519,7(a),31774,Sn1−xNaxS_ x=0.02_ 2nd measure_ heating,undefined,800,,1200.3,0.00083314,,,,0.0001794,0.0003866,,0.41037,,
27936,10.1021/acsami.7b08770,25523,7(d),31774,Sn1−xNaxS_ x=0.02_ 2nd measure_ heating,undefined,300,,,,,,,,,,-0.031071,,
27936,10.1021/acsami.7b08770,25523,7(d),31774,Sn1−xNaxS_ x=0.02_ 2nd measure_ heating,undefined,850,,,,,,,,,,0.45451,,
27936,10.1021/acsami.7b08770,25519,7(a),31775,Sn1−xNaxS_ x=0.02_ 2nd measure_ cooling,undefined,350,,708.32,0.0014118,,,,0.000079748,0.00033554,,0.0034992,,
27936,10.1021/acsami.7b08770,25519,7(a),31775,Sn1−xNaxS_ x=0.02_ 2nd measure_ cooling,undefined,400,,748.73,0.0013356,,,,0.000087518,0.00034189,,0.051393,,
27936,10.1021/acsami.7b08770,25519,7(a),31775,Sn1−xNaxS_ x=0.02_ 2nd measure_ cooling,undefined,450,,793.97,0.0012595,,,,0.000096286,0.00034824,,0.099287,,
27936,10.1021/acsami.7b08770,25519,7(a),31775,Sn1−xNaxS_ x=0.02_ 2nd measure_ cooling,undefined,500,,845.09,0.0011833,,,,0.00010626,0.00035459,,0.14718,,
27936,10.1021/acsami.7b08770,25519,7(a),31775,Sn1−xNaxS_ x=0.02_ 2nd measure_ cooling,undefined,550,,903.26,0.0011071,,,,0.00011767,0.00036094,,0.19507,,
27936,10.1021/acsami.7b08770,25519,7(a),31775,Sn1−xNaxS_ x=0.02_ 2nd measure_ cooling,undefined,600,,969.93,0.001031,,,,0.00013085,0.00036729,,0.24297,,
27936,10.1021/acsami.7b08770,25519,7(a),31775,Sn1−xNaxS_ x=0.02_ 2nd measure_ cooling,undefined,650,,1047.3,0.00095481,,,,0.00014621,0.00037364,,0.29086,,
27936,10.1021/acsami.7b08770,25519,7(a),31775,Sn1−xNaxS_ x=0.02_ 2nd measure_ cooling,undefined,700,,1138.1,0.00087865,,,,0.00016433,0.00037999,,0.33876,,
27936,10.1021/acsami.7b08770,25519,7(a),31775,Sn1−xNaxS_ x=0.02_ 2nd measure_ cooling,undefined,750,,1246.1,0.00080248,,,,0.00018599,0.00038634,,0.38665,,
27936,10.1021/acsami.7b08770,25519,7(a),31775,Sn1−xNaxS_ x=0.02_ 2nd measure_ cooling,undefined,800,,1376.8,0.00072632,,,,0.00021231,0.00039269,,0.43454,,
27936,10.1021/acsami.7b08770,25521,7(b),31775,Sn1−xNaxS_ x=0.02_ 2nd measure_ cooling,undefined,850,,1538.1,0.00065016,,,,,,,,,
27936,10.1021/acsami.7b08770,25523,7(d),31775,Sn1−xNaxS_ x=0.02_ 2nd measure_ cooling,undefined,300,,,,,,,,,,-0.044395,,
27936,10.1021/acsami.7b08770,25519,7(a),31776,Sn1−xNaxS_ x=0.03_ heating,undefined,350,,1320.7,0.00075716,,,,0.000073739,0.00023629,,-0.020296,,
27936,10.1021/acsami.7b08770,25519,7(a),31776,Sn1−xNaxS_ x=0.03_ heating,undefined,400,,1356,0.00073746,,,,0.000084669,0.00024988,,0.031568,,
27936,10.1021/acsami.7b08770,25519,7(a),31776,Sn1−xNaxS_ x=0.03_ heating,undefined,450,,1393.2,0.00071777,,,,0.000096711,0.00026347,,0.083433,,
27936,10.1021/acsami.7b08770,25519,7(a),31776,Sn1−xNaxS_ x=0.03_ heating,undefined,500,,1432.5,0.00069807,,,,0.00010996,0.00027706,,0.1353,,
27936,10.1021/acsami.7b08770,25519,7(a),31776,Sn1−xNaxS_ x=0.03_ heating,undefined,550,,1474.1,0.00067838,,,,0.00012453,0.00029065,,0.18716,,
27936,10.1021/acsami.7b08770,25519,7(a),31776,Sn1−xNaxS_ x=0.03_ heating,undefined,600,,1518.2,0.00065868,,,,0.00014053,0.00030424,,0.23903,,
27936,10.1021/acsami.7b08770,25519,7(a),31776,Sn1−xNaxS_ x=0.03_ heating,undefined,650,,1565,0.00063899,,,,0.00015808,0.00031782,,0.29089,,
27936,10.1021/acsami.7b08770,25519,7(a),31776,Sn1−xNaxS_ x=0.03_ heating,undefined,700,,1614.8,0.00061929,,,,0.00017736,0.00033141,,0.34275,,
27936,10.1021/acsami.7b08770,25519,7(a),31776,Sn1−xNaxS_ x=0.03_ heating,undefined,750,,1667.8,0.0005996,,,,0.00019851,0.000345,,0.39462,,
27936,10.1021/acsami.7b08770,25519,7(a),31776,Sn1−xNaxS_ x=0.03_ heating,undefined,800,,1724.4,0.0005799,,,,0.00022174,0.00035859,,0.44648,,
27936,10.1021/acsami.7b08770,25523,7(d),31776,Sn1−xNaxS_ x=0.03_ heating,undefined,850,,,,,,,,,,0.49835,,
27936,10.1021/acsami.7b08770,25519,7(a),31777,Sn1−xNaxS_ x=0.03_ cooling,undefined,350,,1128.9,0.0008858,,,,0.00010918,0.00031099,0.80764,-0.020952,,0.000135184
27936,10.1021/acsami.7b08770,25519,7(a),31777,Sn1−xNaxS_ x=0.03_ cooling,undefined,400,,1195.7,0.00083631,,,,0.00012025,0.00031713,0.76923,0.034899,,0.0001563252
27936,10.1021/acsami.7b08770,25519,7(a),31777,Sn1−xNaxS_ x=0.03_ cooling,undefined,450,,1270.9,0.00078683,,,,0.00013281,0.00032327,0.73082,0.09075,,0.0001817274
27936,10.1021/acsami.7b08770,25519,7(a),31777,Sn1−xNaxS_ x=0.03_ cooling,undefined,500,,1356.2,0.00073734,,,,0.00014715,0.0003294,0.69241,0.1466,,0.0002125186
27936,10.1021/acsami.7b08770,25519,7(a),31777,Sn1−xNaxS_ x=0.03_ cooling,undefined,550,,1453.8,0.00068786,,,,0.00016368,0.00033554,0.654,0.20245,,0.0002502752
27936,10.1021/acsami.7b08770,25519,7(a),31777,Sn1−xNaxS_ x=0.03_ cooling,undefined,600,,1566.5,0.00063837,,,,0.00018288,0.00034168,0.61559,0.2583,,0.0002970808
27936,10.1021/acsami.7b08770,25519,7(a),31777,Sn1−xNaxS_ x=0.03_ cooling,undefined,650,,1698.1,0.00058889,,,,0.00020542,0.00034781,0.57718,0.31415,,0.0003559028
27936,10.1021/acsami.7b08770,25519,7(a),31777,Sn1−xNaxS_ x=0.03_ cooling,undefined,700,,1853.9,0.0005394,,,,0.00023226,0.00035395,0.53877,0.37001,,0.000431093
27936,10.1021/acsami.7b08770,25519,7(a),31777,Sn1−xNaxS_ x=0.03_ cooling,undefined,750,,2041.1,0.00048992,,,,0.00026464,0.00036008,0.50036,0.42586,,0.0005288992
27936,10.1021/acsami.7b08770,25519,7(a),31777,Sn1−xNaxS_ x=0.03_ cooling,undefined,800,,2270.5,0.00044043,,,,0.00030451,0.00036622,0.46195,0.48171,,0.0006591839
27936,10.1021/acsami.7b08770,25519,7(a),31777,Sn1−xNaxS_ x=0.03_ cooling,undefined,850,,2557.9,0.00039095,,,,0.00035466,0.00037236,0.42354,0.71177,,0.0008373707
27936,10.1021/acsami.7b08770,25523,7(d),31777,Sn1−xNaxS_ x=0.03_ cooling,undefined,300,,,,,,,,,,-0.076803,,
27936,10.1021/acsami.7b08770,26260,3(c)(i),32927,Sn1−xNaxS,undefined,,9e+24,893.73,0.0011189,,,,0.000049566,0.0002355,,,,
27936,10.1021/acsami.7b08770,26260,3(c)(i),32927,Sn1−xNaxS,undefined,,9.5e+24,918.27,0.001089,,,,0.000049813,0.00023291,,,,
27936,10.1021/acsami.7b08770,26260,3(c)(i),32927,Sn1−xNaxS,undefined,,1e+25,944.29,0.001059,,,,0.000050088,0.00023031,,,,
27936,10.1021/acsami.7b08770,26260,3(c)(i),32927,Sn1−xNaxS,undefined,,1.05e+25,971.72,0.0010291,,,,0.000050385,0.00022771,,,,
27936,10.1021/acsami.7b08770,26260,3(c)(i),32927,Sn1−xNaxS,undefined,,1.1e+25,1000.8,0.00099916,,,,0.000050715,0.00022511,,,,
27936,10.1021/acsami.7b08770,26260,3(c)(i),32927,Sn1−xNaxS,undefined,,1.15e+25,1031.8,0.00096922,,,,0.000051085,0.00022251,,,,
27936,10.1021/acsami.7b08770,26260,3(c)(i),32927,Sn1−xNaxS,undefined,,1.2e+25,1064.6,0.00093929,,,,0.000051489,0.00021992,,,,
27936,10.1021/acsami.7b08770,26260,3(c)(i),32927,Sn1−xNaxS,undefined,,1.25e+25,1099.7,0.00090935,,,,0.000051937,0.00021732,,,,
27936,10.1021/acsami.7b08770,26260,3(c)(i),32927,Sn1−xNaxS,undefined,,1.3e+25,1137.1,0.00087942,,,,0.000052426,0.00021472,,,,
27936,10.1021/acsami.7b08770,26260,3(c)(i),32927,Sn1−xNaxS,undefined,,1.35e+25,1177.2,0.00084949,,,,0.000052968,0.00021212,,,,
27936,10.1021/acsami.7b08770,26260,3(c)(i),32927,Sn1−xNaxS,undefined,,1.4e+25,1220.2,0.00081955,,,,0.000053565,0.00020952,,,,
27936,10.1021/acsami.7b08770,26260,3(c)(i),32927,Sn1−xNaxS,undefined,,1.45e+25,1266.4,0.00078962,,,,0.000054227,0.00020693,,,,
27936,10.1021/acsami.7b08770,26260,3(c)(i),32927,Sn1−xNaxS,undefined,,1.5e+25,1316.3,0.00075969,,,,0.000054957,0.00020433,,,,
27936,10.1021/acsami.7b08770,26260,3(c)(i),32927,Sn1−xNaxS,undefined,,1.55e+25,1370.3,0.00072975,,,,0.000055764,0.00020173,,,,
27936,10.1021/acsami.7b08770,26260,3(c)(i),32927,Sn1−xNaxS,undefined,,1.6e+25,1428.9,0.00069982,,,,0.00005666,0.00019913,,,,
27936,10.1021/acsami.7b08770,26260,3(c)(i),32927,Sn1−xNaxS,undefined,,1.65e+25,1492.8,0.00066988,,,,0.000057658,0.00019653,,,,
27936,10.1021/acsami.7b08770,26260,3(c)(i),32927,Sn1−xNaxS,undefined,,1.7e+25,1562.6,0.00063995,,,,0.000058774,0.00019394,,,,
27936,10.1021/acsami.7b08770,26260,3(c)(i),32927,Sn1−xNaxS,undefined,,1.75e+25,1639.3,0.00061002,,,,0.000060016,0.00019134,,,,
27936,10.1021/acsami.7b08770,26260,3(c)(i),32927,Sn1−xNaxS,undefined,,1.8e+25,1723.9,0.00058008,,,,0.00006141,0.00018874,,,,
27936,10.1021/acsami.7b08770,26260,3(c)(i),32927,Sn1−xNaxS,undefined,,1.85e+25,1817.7,0.00055015,,,,0.00006298,0.00018614,,,,
27936,10.1021/acsami.7b08770,26260,3(c)(i),32927,Sn1−xNaxS,undefined,,1.9e+25,1922.3,0.00052021,,,,0.000064756,0.00018354,,,,
27936,10.1021/acsami.7b08770,26260,3(c)(i),32927,Sn1−xNaxS,undefined,,1.95e+25,2039.7,0.00049028,,,,0.000066778,0.00018094,,,,
27936,10.1021/acsami.7b08770,26262,4(e),32928,Sn1−xNaxS_ 500 K,undefined,,1e+24,,,,,,,0.00046005,,,,
27936,10.1021/acsami.7b08770,26262,4(e),32928,Sn1−xNaxS_ 500 K,undefined,,1.5e+24,,,,0.00098857,,,0.00045422,,0.048095,,
27936,10.1021/acsami.7b08770,26262,4(e),32928,Sn1−xNaxS_ 500 K,undefined,,2e+24,,,,0.00098711,,,0.0004484,,0.051233,,
27936,10.1021/acsami.7b08770,26262,4(e),32928,Sn1−xNaxS_ 500 K,undefined,,2.5e+24,,,,0.00098564,,,0.00044258,,0.054371,,
27936,10.1021/acsami.7b08770,26262,4(e),32928,Sn1−xNaxS_ 500 K,undefined,,3e+24,,,,0.00098418,,,0.00043676,,0.057509,,
27936,10.1021/acsami.7b08770,26262,4(e),32928,Sn1−xNaxS_ 500 K,undefined,,3.5e+24,,,,0.00098271,,,0.00043094,,0.060648,,
27936,10.1021/acsami.7b08770,26262,4(e),32928,Sn1−xNaxS_ 500 K,undefined,,4e+24,,,,0.00098125,,,0.00042511,,0.063786,,
27936,10.1021/acsami.7b08770,26262,4(e),32928,Sn1−xNaxS_ 500 K,undefined,,4.5e+24,,,,0.00097979,,,0.00041929,,0.066924,,
27936,10.1021/acsami.7b08770,26262,4(e),32928,Sn1−xNaxS_ 500 K,undefined,,5e+24,,,,0.00097832,,,0.00041347,,0.070062,,
27936,10.1021/acsami.7b08770,26262,4(e),32928,Sn1−xNaxS_ 500 K,undefined,,5.5e+24,,,,0.00097686,,,0.00040765,,0.073201,,
27936,10.1021/acsami.7b08770,26262,4(e),32928,Sn1−xNaxS_ 500 K,undefined,,6e+24,,,,0.00097539,,,0.00040182,,0.076339,,
27936,10.1021/acsami.7b08770,26262,4(e),32928,Sn1−xNaxS_ 500 K,undefined,,6.5e+24,,,,0.00097393,,,0.000396,,0.079477,,
27936,10.1021/acsami.7b08770,26262,4(e),32928,Sn1−xNaxS_ 500 K,undefined,,7e+24,,,,0.00097246,,,0.00039018,,0.082615,,
27936,10.1021/acsami.7b08770,26262,4(e),32928,Sn1−xNaxS_ 500 K,undefined,,7.5e+24,,,,0.000971,,,0.00038436,,0.085754,,
27936,10.1021/acsami.7b08770,26262,4(e),32928,Sn1−xNaxS_ 500 K,undefined,,8e+24,,,,0.00096954,,,0.00037854,,0.088892,,
27936,10.1021/acsami.7b08770,26262,4(e),32928,Sn1−xNaxS_ 500 K,undefined,,8.5e+24,,,,0.00096807,,,0.00037271,,0.09203,,
27936,10.1021/acsami.7b08770,26262,4(e),32928,Sn1−xNaxS_ 500 K,undefined,,9e+24,,,,0.00096661,,,0.00036689,,0.095168,,
27936,10.1021/acsami.7b08770,26262,4(e),32928,Sn1−xNaxS_ 500 K,undefined,,9.5e+24,,,,0.00096514,,,0.00036107,,0.098307,,
27936,10.1021/acsami.7b08770,26262,4(e),32928,Sn1−xNaxS_ 500 K,undefined,,1e+25,,,,0.00096368,,,0.00035525,,0.10144,,
27936,10.1021/acsami.7b08770,26262,4(e),32928,Sn1−xNaxS_ 500 K,undefined,,1.05e+25,,,,0.00096222,,,0.00034943,,0.10458,,
27936,10.1021/acsami.7b08770,26262,4(e),32928,Sn1−xNaxS_ 500 K,undefined,,1.1e+25,,,,0.00096075,,,0.0003436,,0.10772,,
27936,10.1021/acsami.7b08770,26262,4(e),32928,Sn1−xNaxS_ 500 K,undefined,,1.15e+25,,,,0.00095929,,,0.00033778,,0.11086,,
27936,10.1021/acsami.7b08770,26262,4(e),32928,Sn1−xNaxS_ 500 K,undefined,,1.2e+25,,,,0.00095782,,,0.00033196,,0.114,,
27936,10.1021/acsami.7b08770,26262,4(e),32928,Sn1−xNaxS_ 500 K,undefined,,1.25e+25,,,,0.00095636,,,0.00032614,,0.11714,,
27936,10.1021/acsami.7b08770,26262,4(e),32928,Sn1−xNaxS_ 500 K,undefined,,1.3e+25,,,,0.0009549,,,0.00032031,,0.12027,,
27936,10.1021/acsami.7b08770,26262,4(e),32928,Sn1−xNaxS_ 500 K,undefined,,1.35e+25,,,,0.00095343,,,0.00031449,,0.12341,,
27936,10.1021/acsami.7b08770,26262,4(e),32928,Sn1−xNaxS_ 500 K,undefined,,1.4e+25,,,,0.00095197,,,0.00030867,,0.12655,,
27936,10.1021/acsami.7b08770,26262,4(e),32928,Sn1−xNaxS_ 500 K,undefined,,1.45e+25,,,,0.0009505,,,0.00030285,,0.12969,,
27936,10.1021/acsami.7b08770,26262,4(e),32928,Sn1−xNaxS_ 500 K,undefined,,1.5e+25,,,,0.00094904,,,0.00029703,,0.13283,,
27936,10.1021/acsami.7b08770,26262,4(e),32928,Sn1−xNaxS_ 500 K,undefined,,1.55e+25,,,,0.00094757,,,0.0002912,,0.13597,,
27936,10.1021/acsami.7b08770,26262,4(e),32928,Sn1−xNaxS_ 500 K,undefined,,1.6e+25,,,,0.00094611,,,0.00028538,,0.1391,,
27936,10.1021/acsami.7b08770,26262,4(e),32928,Sn1−xNaxS_ 500 K,undefined,,1.65e+25,,,,0.00094465,,,0.00027956,,0.14224,,
27936,10.1021/acsami.7b08770,26262,4(e),32928,Sn1−xNaxS_ 500 K,undefined,,1.7e+25,,,,0.00094318,,,0.00027374,,0.14538,,
27936,10.1021/acsami.7b08770,26262,4(e),32928,Sn1−xNaxS_ 500 K,undefined,,1.75e+25,,,,0.00094172,,,0.00026792,,0.14852,,
27936,10.1021/acsami.7b08770,26262,4(e),32928,Sn1−xNaxS_ 500 K,undefined,,1.8e+25,,,,0.00094025,,,0.00026209,,0.15166,,
27936,10.1021/acsami.7b08770,26262,4(e),32928,Sn1−xNaxS_ 500 K,undefined,,1.85e+25,,,,0.00093879,,,0.00025627,,0.1548,,
27936,10.1021/acsami.7b08770,26262,4(e),32928,Sn1−xNaxS_ 500 K,undefined,,1.9e+25,,,,0.00093733,,,0.00025045,,0.15793,,
27936,10.1021/acsami.7b08770,26262,4(e),32928,Sn1−xNaxS_ 500 K,undefined,,1.95e+25,,,,0.00093586,,,0.00024463,,,,
27936,10.1021/acsami.7b08770,26262,4(e),32928,Sn1−xNaxS_ 500 K,undefined,,2e+25,,,,0.0009344,,,0.0002388,,,,
27936,10.1021/acsami.7b08770,26262,4(e),32929,Sn1−xNaxS_ 700 K,undefined,,2.5e+24,,,,,,,0.00046401,,,,
27936,10.1021/acsami.7b08770,26262,4(e),32929,Sn1−xNaxS_ 700 K,undefined,,3e+24,,,,,,,0.00045747,,0.10208,,
27936,10.1021/acsami.7b08770,26262,4(e),32929,Sn1−xNaxS_ 700 K,undefined,,3.5e+24,,,,,,,0.00045094,,0.11371,,
27936,10.1021/acsami.7b08770,26262,4(e),32929,Sn1−xNaxS_ 700 K,undefined,,4e+24,,,,,,,0.0004444,,0.12534,,
27936,10.1021/acsami.7b08770,26262,4(e),32929,Sn1−xNaxS_ 700 K,undefined,,4.5e+24,,,,,,,0.00043787,,0.13697,,
27936,10.1021/acsami.7b08770,26262,4(e),32929,Sn1−xNaxS_ 700 K,undefined,,5e+24,,,,0.00077465,,,0.00043133,,0.1486,,
27936,10.1021/acsami.7b08770,26262,4(e),32929,Sn1−xNaxS_ 700 K,undefined,,5.5e+24,,,,0.00077646,,,0.0004248,,0.16024,,
27936,10.1021/acsami.7b08770,26262,4(e),32929,Sn1−xNaxS_ 700 K,undefined,,6e+24,,,,0.00077828,,,0.00041826,,0.17187,,
27936,10.1021/acsami.7b08770,26262,4(e),32929,Sn1−xNaxS_ 700 K,undefined,,6.5e+24,,,,0.00078009,,,0.00041173,,0.1835,,
27936,10.1021/acsami.7b08770,26262,4(e),32929,Sn1−xNaxS_ 700 K,undefined,,7e+24,,,,0.00078191,,,0.00040519,,0.19513,,
27936,10.1021/acsami.7b08770,26262,4(e),32929,Sn1−xNaxS_ 700 K,undefined,,7.5e+24,,,,0.00078372,,,0.00039866,,0.20677,,
27936,10.1021/acsami.7b08770,26262,4(e),32929,Sn1−xNaxS_ 700 K,undefined,,8e+24,,,,0.00078554,,,0.00039212,,0.2184,,
27936,10.1021/acsami.7b08770,26262,4(e),32929,Sn1−xNaxS_ 700 K,undefined,,8.5e+24,,,,0.00078735,,,0.00038559,,0.23003,,
27936,10.1021/acsami.7b08770,26262,4(e),32929,Sn1−xNaxS_ 700 K,undefined,,9e+24,,,,0.00078916,,,0.00037905,,0.24166,,
27936,10.1021/acsami.7b08770,26262,4(e),32929,Sn1−xNaxS_ 700 K,undefined,,9.5e+24,,,,0.00079098,,,0.00037252,,0.25329,,
27936,10.1021/acsami.7b08770,26262,4(e),32929,Sn1−xNaxS_ 700 K,undefined,,1e+25,,,,0.00079279,,,0.00036598,,0.26493,,
27936,10.1021/acsami.7b08770,26262,4(e),32929,Sn1−xNaxS_ 700 K,undefined,,1.05e+25,,,,0.00079461,,,0.00035945,,0.27656,,
27936,10.1021/acsami.7b08770,26262,4(e),32929,Sn1−xNaxS_ 700 K,undefined,,1.1e+25,,,,0.00079642,,,0.00035291,,0.28819,,
27936,10.1021/acsami.7b08770,26262,4(e),32929,Sn1−xNaxS_ 700 K,undefined,,1.15e+25,,,,0.00079823,,,0.00034638,,0.29982,,
27936,10.1021/acsami.7b08770,26262,4(e),32929,Sn1−xNaxS_ 700 K,undefined,,1.2e+25,,,,0.00080005,,,0.00033984,,0.31146,,
27936,10.1021/acsami.7b08770,26264,6(d),32930,Sn1−xNaxS_ 850 K,undefined,,1.55e+25,,,,,,,,,0.58761,,
27936,10.1021/acsami.7b08770,26264,6(d),32930,Sn1−xNaxS_ 850 K,undefined,,1.6e+25,,,,,,,,,0.58876,,
27936,10.1021/acsami.7b08770,26264,6(d),32930,Sn1−xNaxS_ 850 K,undefined,,1.65e+25,,,,,,,,,0.58991,,
27936,10.1021/acsami.7b08770,26264,6(d),32930,Sn1−xNaxS_ 850 K,undefined,,1.7e+25,,,,,,,,,0.59106,,
27936,10.1021/acsami.7b08770,26264,6(d),32930,Sn1−xNaxS_ 850 K,undefined,,1.75e+25,,,,,,,,,0.59221,,
27936,10.1021/acsami.7b08770,26264,6(d),32930,Sn1−xNaxS_ 850 K,undefined,,1.8e+25,,,,,,,,,0.59336,,
27936,10.1021/acsami.7b08770,26264,6(d),32930,Sn1−xNaxS_ 850 K,undefined,,1.85e+25,,,,,,,,,0.59451,,
27936,10.1021/acsami.7b08770,26264,6(d),32930,Sn1−xNaxS_ 850 K,undefined,,1.9e+25,,,,,,,,,0.59567,,
27936,10.1021/acsami.7b08770,26264,6(d),32930,Sn1−xNaxS_ 850 K,undefined,,1.95e+25,,,,,,,,,0.59682,,
27936,10.1021/acsami.7b08770,26264,6(d),32930,Sn1−xNaxS_ 850 K,undefined,,2e+25,,,,,,,,,0.59797,,
27936,10.1021/acsami.7b08770,26264,6(d),32930,Sn1−xNaxS_ 850 K,undefined,,2.05e+25,,,,,,,,,0.59912,,
27936,10.1021/acsami.7b08770,26264,6(d),32930,Sn1−xNaxS_ 850 K,undefined,,2.1e+25,,,,,,,,,0.60027,,
27936,10.1021/acsami.7b08770,26264,6(d),32930,Sn1−xNaxS_ 850 K,undefined,,2.15e+25,,,,,,,,,0.60142,,
27936,10.1021/acsami.7b08770,26264,6(d),32930,Sn1−xNaxS_ 850 K,undefined,,2.2e+25,,,,,,,,,0.60257,,
27936,10.1021/acsami.7b08770,26264,6(d),32930,Sn1−xNaxS_ 850 K,undefined,,2.25e+25,,,,,,,,,0.60372,,
27936,10.1021/acsami.7b08770,26264,6(d),32930,Sn1−xNaxS_ 850 K,undefined,,2.3e+25,,,,,,,,,0.60487,,
27936,10.1021/acsami.7b08770,26264,6(d),32930,Sn1−xNaxS_ 850 K,undefined,,2.35e+25,,,,,,,,,0.60602,,
27936,10.1021/acsami.7b08770,26264,6(d),32930,Sn1−xNaxS_ 850 K,undefined,,2.4e+25,,,,,,,,,0.60718,,
27936,10.1021/acsami.7b08770,26264,6(d),32930,Sn1−xNaxS_ 850 K,undefined,,2.45e+25,,,,,,,,,0.60833,,
27936,10.1021/acsami.7b08770,26264,6(d),32930,Sn1−xNaxS_ 850 K,undefined,,2.5e+25,,,,,,,,,0.60948,,
27936,10.1021/acsami.7b08770,26264,6(d),32930,Sn1−xNaxS_ 850 K,undefined,,2.55e+25,,,,,,,,,0.61063,,
27936,10.1021/acsami.7b08770,26264,6(d),32930,Sn1−xNaxS_ 850 K,undefined,,2.6e+25,,,,,,,,,0.61178,,
27936,10.1021/acsami.7b08770,26264,6(d),32930,Sn1−xNaxS_ 850 K,undefined,,2.65e+25,,,,,,,,,0.61293,,
27936,10.1021/acsami.7b08770,26264,6(d),32930,Sn1−xNaxS_ 850 K,undefined,,2.7e+25,,,,,,,,,0.61408,,
27936,10.1021/acsami.7b08770,26264,6(d),32930,Sn1−xNaxS_ 850 K,undefined,,2.75e+25,,,,,,,,,0.61523,,
27936,10.1021/acsami.7b08770,26264,6(d),32930,Sn1−xNaxS_ 850 K,undefined,,2.8e+25,,,,,,,,,0.61638,,
27936,10.1021/acsami.7b08770,26264,6(d),32930,Sn1−xNaxS_ 850 K,undefined,,2.85e+25,,,,,,,,,0.61753,,
27936,10.1021/acsami.7b08770,26264,6(d),32930,Sn1−xNaxS_ 850 K,undefined,,2.9e+25,,,,,,,,,0.61869,,
27936,10.1021/acsami.7b08770,26264,6(d),32930,Sn1−xNaxS_ 850 K,undefined,,2.95e+25,,,,,,,,,0.61984,,
27936,10.1021/acsami.7b08770,26264,6(d),32930,Sn1−xNaxS_ 850 K,undefined,,3e+25,,,,,,,,,0.62099,,
27936,10.1021/acsami.7b08770,26264,6(d),32930,Sn1−xNaxS_ 850 K,undefined,,3.05e+25,,,,,,,,,0.62214,,
27936,10.1021/acsami.7b08770,26264,6(d),32930,Sn1−xNaxS_ 850 K,undefined,,3.1e+25,,,,,,,,,0.62329,,
27936,10.1021/acsami.7b08770,26264,6(d),32930,Sn1−xNaxS_ 850 K,undefined,,3.15e+25,,,,,,,,,0.62444,,
27936,10.1021/acsami.7b08770,26264,6(d),32930,Sn1−xNaxS_ 850 K,undefined,,3.2e+25,,,,,,,,,0.62559,,
27936,10.1021/acsami.7b08770,26264,6(d),32930,Sn1−xNaxS_ 850 K,undefined,,3.25e+25,,,,,,,,,0.62674,,
27936,10.1021/acsami.7b08770,26264,6(d),32930,Sn1−xNaxS_ 850 K,undefined,,3.3e+25,,,,,,,,,0.62789,,
27936,10.1021/acsami.7b08770,26264,6(d),32930,Sn1−xNaxS_ 850 K,undefined,,3.35e+25,,,,,,,,,0.62904,,
27936,10.1021/acsami.7b08770,26264,6(d),32930,Sn1−xNaxS_ 850 K,undefined,,3.4e+25,,,,,,,,,0.6302,,
27936,10.1021/acsami.7b08770,26264,6(d),32930,Sn1−xNaxS_ 850 K,undefined,,3.45e+25,,,,,,,,,0.63135,,
27936,10.1021/acsami.7b08770,26264,6(d),32930,Sn1−xNaxS_ 850 K,undefined,,3.5e+25,,,,,,,,,0.6325,,