sid,DOI,figureid,fignum,sampleid,samplename,composition,Temperature,Carrier concentration,Electrical conductivity,Electrical resistivity,Hall coefficient,Hall movility,Lattice thermal conductivity,Power factor,Seebeck coefficient,Thermal conductivity,ZT,total thermal conductivity,Figure of merit Z
27946,10.1021/acsenergylett.6b00671,26385,3(a),33046,Sn1.03−yMgyTe(Cu2Te)0.05,undefined,,2.315e+26,,,,0.0030985,,,0.00011611,,,,
27946,10.1021/acsenergylett.6b00671,26385,3(a),33046,Sn1.03−yMgyTe(Cu2Te)0.05,undefined,,2.32e+26,,,,0.0030933,,,0.00011605,,,,
27946,10.1021/acsenergylett.6b00671,26385,3(a),33046,Sn1.03−yMgyTe(Cu2Te)0.05,undefined,,2.325e+26,,,,0.003088,,,0.00011599,,,,
27946,10.1021/acsenergylett.6b00671,26385,3(a),33046,Sn1.03−yMgyTe(Cu2Te)0.05,undefined,,2.33e+26,,,,0.0030827,,,0.00011593,,,,
27946,10.1021/acsenergylett.6b00671,26385,3(a),33046,Sn1.03−yMgyTe(Cu2Te)0.05,undefined,,2.335e+26,,,,0.0030775,,,0.00011587,,,,
27946,10.1021/acsenergylett.6b00671,26385,3(a),33046,Sn1.03−yMgyTe(Cu2Te)0.05,undefined,,2.34e+26,,,,0.0030722,,,0.00011582,,,,
27946,10.1021/acsenergylett.6b00671,26385,3(a),33046,Sn1.03−yMgyTe(Cu2Te)0.05,undefined,,2.345e+26,,,,0.003067,,,0.00011576,,,,
27946,10.1021/acsenergylett.6b00671,26385,3(a),33046,Sn1.03−yMgyTe(Cu2Te)0.05,undefined,,2.35e+26,,,,0.0030617,,,0.0001157,,,,
27946,10.1021/acsenergylett.6b00671,26385,3(a),33046,Sn1.03−yMgyTe(Cu2Te)0.05,undefined,,2.355e+26,,,,0.0030565,,,0.00011564,,,,
27946,10.1021/acsenergylett.6b00671,26385,3(a),33046,Sn1.03−yMgyTe(Cu2Te)0.05,undefined,,2.36e+26,,,,0.0030512,,,0.00011558,,,,
27946,10.1021/acsenergylett.6b00671,26385,3(a),33046,Sn1.03−yMgyTe(Cu2Te)0.05,undefined,,2.365e+26,,,,0.0030459,,,0.00011552,,,,
27946,10.1021/acsenergylett.6b00671,26385,3(a),33046,Sn1.03−yMgyTe(Cu2Te)0.05,undefined,,2.37e+26,,,,0.0030407,,,0.00011547,,,,
27946,10.1021/acsenergylett.6b00671,26385,3(a),33046,Sn1.03−yMgyTe(Cu2Te)0.05,undefined,,2.375e+26,,,,0.0030354,,,0.00011541,,,,
27946,10.1021/acsenergylett.6b00671,26385,3(a),33046,Sn1.03−yMgyTe(Cu2Te)0.05,undefined,,2.38e+26,,,,0.0030302,,,0.00011535,,,,
27946,10.1021/acsenergylett.6b00671,26385,3(a),33046,Sn1.03−yMgyTe(Cu2Te)0.05,undefined,,2.385e+26,,,,0.0030249,,,0.00011529,,,,
27946,10.1021/acsenergylett.6b00671,26385,3(a),33046,Sn1.03−yMgyTe(Cu2Te)0.05,undefined,,2.39e+26,,,,0.0030196,,,0.00011523,,,,
27946,10.1021/acsenergylett.6b00671,26385,3(a),33046,Sn1.03−yMgyTe(Cu2Te)0.05,undefined,,2.395e+26,,,,0.0030144,,,0.00011517,,,,
27946,10.1021/acsenergylett.6b00671,26385,3(a),33046,Sn1.03−yMgyTe(Cu2Te)0.05,undefined,,2.4e+26,,,,0.0030091,,,0.00011511,,,,
27946,10.1021/acsenergylett.6b00671,26385,3(a),33046,Sn1.03−yMgyTe(Cu2Te)0.05,undefined,,2.405e+26,,,,0.0030039,,,0.00011506,,,,
27946,10.1021/acsenergylett.6b00671,26385,3(a),33046,Sn1.03−yMgyTe(Cu2Te)0.05,undefined,,2.41e+26,,,,0.0029986,,,0.000115,,,,
27946,10.1021/acsenergylett.6b00671,26385,3(a),33046,Sn1.03−yMgyTe(Cu2Te)0.05,undefined,,2.415e+26,,,,0.0029934,,,0.00011494,,,,
27946,10.1021/acsenergylett.6b00671,26385,3(a),33046,Sn1.03−yMgyTe(Cu2Te)0.05,undefined,,2.42e+26,,,,0.0029881,,,0.00011488,,,,
27946,10.1021/acsenergylett.6b00671,26385,3(a),33046,Sn1.03−yMgyTe(Cu2Te)0.05,undefined,,2.425e+26,,,,0.0029828,,,0.00011482,,,,
27946,10.1021/acsenergylett.6b00671,26385,3(a),33046,Sn1.03−yMgyTe(Cu2Te)0.05,undefined,,2.43e+26,,,,0.0029776,,,0.00011476,,,,
27946,10.1021/acsenergylett.6b00671,26385,3(a),33046,Sn1.03−yMgyTe(Cu2Te)0.05,undefined,,2.435e+26,,,,0.0029723,,,0.00011471,,,,
27946,10.1021/acsenergylett.6b00671,26385,3(a),33046,Sn1.03−yMgyTe(Cu2Te)0.05,undefined,,2.44e+26,,,,0.0029671,,,0.00011465,,,,
27946,10.1021/acsenergylett.6b00671,26385,3(a),33046,Sn1.03−yMgyTe(Cu2Te)0.05,undefined,,2.445e+26,,,,0.0029618,,,0.00011459,,,,
27946,10.1021/acsenergylett.6b00671,26385,3(a),33046,Sn1.03−yMgyTe(Cu2Te)0.05,undefined,,2.45e+26,,,,0.0029565,,,0.00011453,,,,
27946,10.1021/acsenergylett.6b00671,26385,3(a),33046,Sn1.03−yMgyTe(Cu2Te)0.05,undefined,,2.455e+26,,,,0.0029513,,,0.00011447,,,,
27946,10.1021/acsenergylett.6b00671,26385,3(a),33046,Sn1.03−yMgyTe(Cu2Te)0.05,undefined,,2.46e+26,,,,0.002946,,,0.00011441,,,,
27946,10.1021/acsenergylett.6b00671,26385,3(a),33046,Sn1.03−yMgyTe(Cu2Te)0.05,undefined,,2.465e+26,,,,0.0029408,,,0.00011435,,,,
27946,10.1021/acsenergylett.6b00671,26385,3(a),33046,Sn1.03−yMgyTe(Cu2Te)0.05,undefined,,2.47e+26,,,,0.0029355,,,0.0001143,,,,
27946,10.1021/acsenergylett.6b00671,26385,3(a),33046,Sn1.03−yMgyTe(Cu2Te)0.05,undefined,,2.475e+26,,,,0.0062135,,,0.00011424,,,,
27946,10.1021/acsenergylett.6b00671,26385,3(a),33046,Sn1.03−yMgyTe(Cu2Te)0.05,undefined,,2.48e+26,,,,0.0061968,,,0.00011418,,,,
27946,10.1021/acsenergylett.6b00671,26385,3(a),33046,Sn1.03−yMgyTe(Cu2Te)0.05,undefined,,2.485e+26,,,,0.0061801,,,0.00011412,,,,
27946,10.1021/acsenergylett.6b00671,26385,3(a),33046,Sn1.03−yMgyTe(Cu2Te)0.05,undefined,,2.49e+26,,,,0.0061633,,,0.000024937,,,,
27946,10.1021/acsenergylett.6b00671,26385,3(a),33046,Sn1.03−yMgyTe(Cu2Te)0.05,undefined,,2.495e+26,,,,0.0061466,,,0.000024945,,,,
27946,10.1021/acsenergylett.6b00671,26385,3(a),33046,Sn1.03−yMgyTe(Cu2Te)0.05,undefined,,2.5e+26,,,,0.0061299,,,0.000024954,,,,
27946,10.1021/acsenergylett.6b00671,26385,3(a),33046,Sn1.03−yMgyTe(Cu2Te)0.05,undefined,,2.505e+26,,,,0.0061132,,,0.000024962,,,,
27946,10.1021/acsenergylett.6b00671,26385,3(a),33046,Sn1.03−yMgyTe(Cu2Te)0.05,undefined,,2.51e+26,,,,0.0060964,,,0.000024971,,,,
27946,10.1021/acsenergylett.6b00671,26385,3(a),33046,Sn1.03−yMgyTe(Cu2Te)0.05,undefined,,2.515e+26,,,,0.0060797,,,0.000024979,,,,
27946,10.1021/acsenergylett.6b00671,26385,3(a),33046,Sn1.03−yMgyTe(Cu2Te)0.05,undefined,,2.52e+26,,,,0.006063,,,0.000024988,,,,
27946,10.1021/acsenergylett.6b00671,26385,3(a),33046,Sn1.03−yMgyTe(Cu2Te)0.05,undefined,,2.525e+26,,,,0.0060463,,,0.000024996,,,,
27946,10.1021/acsenergylett.6b00671,26385,3(a),33046,Sn1.03−yMgyTe(Cu2Te)0.05,undefined,,2.53e+26,,,,0.0060295,,,0.000025005,,,,
27946,10.1021/acsenergylett.6b00671,26385,3(a),33046,Sn1.03−yMgyTe(Cu2Te)0.05,undefined,,2.535e+26,,,,0.0060128,,,0.000025013,,,,
27946,10.1021/acsenergylett.6b00671,26385,3(a),33046,Sn1.03−yMgyTe(Cu2Te)0.05,undefined,,2.54e+26,,,,0.0059961,,,0.000025022,,,,
27946,10.1021/acsenergylett.6b00671,26385,3(a),33046,Sn1.03−yMgyTe(Cu2Te)0.05,undefined,,2.545e+26,,,,0.0059793,,,0.00002503,,,,
27946,10.1021/acsenergylett.6b00671,26385,3(a),33046,Sn1.03−yMgyTe(Cu2Te)0.05,undefined,,2.55e+26,,,,0.0059626,,,0.000025039,,,,
27946,10.1021/acsenergylett.6b00671,26385,3(a),33046,Sn1.03−yMgyTe(Cu2Te)0.05,undefined,,2.555e+26,,,,0.0059459,,,0.000025048,,,,
27946,10.1021/acsenergylett.6b00671,26385,3(a),33046,Sn1.03−yMgyTe(Cu2Te)0.05,undefined,,2.56e+26,,,,0.0059292,,,0.000025056,,,,
27946,10.1021/acsenergylett.6b00671,26385,3(a),33046,Sn1.03−yMgyTe(Cu2Te)0.05,undefined,,2.565e+26,,,,0.0059124,,,0.000025065,,,,
27946,10.1021/acsenergylett.6b00671,26385,3(a),33046,Sn1.03−yMgyTe(Cu2Te)0.05,undefined,,2.57e+26,,,,0.0058957,,,0.000025073,,,,
27946,10.1021/acsenergylett.6b00671,26385,3(a),33046,Sn1.03−yMgyTe(Cu2Te)0.05,undefined,,2.575e+26,,,,0.005879,,,0.000025082,,,,
27946,10.1021/acsenergylett.6b00671,26385,3(a),33046,Sn1.03−yMgyTe(Cu2Te)0.05,undefined,,2.58e+26,,,,0.0058622,,,0.00002509,,,,
27946,10.1021/acsenergylett.6b00671,26385,3(a),33046,Sn1.03−yMgyTe(Cu2Te)0.05,undefined,,2.585e+26,,,,0.0058455,,,0.000025099,,,,
27946,10.1021/acsenergylett.6b00671,26385,3(a),33046,Sn1.03−yMgyTe(Cu2Te)0.05,undefined,,2.59e+26,,,,0.0058288,,,0.000025107,,,,
27946,10.1021/acsenergylett.6b00671,26385,3(a),33046,Sn1.03−yMgyTe(Cu2Te)0.05,undefined,,2.595e+26,,,,0.0058121,,,0.000025116,,,,
27946,10.1021/acsenergylett.6b00671,26385,3(a),33046,Sn1.03−yMgyTe(Cu2Te)0.05,undefined,,2.6e+26,,,,0.0057953,,,0.000025124,,,,
27946,10.1021/acsenergylett.6b00671,26385,3(a),33046,Sn1.03−yMgyTe(Cu2Te)0.05,undefined,,2.605e+26,,,,0.0057786,,,0.000025133,,,,
27946,10.1021/acsenergylett.6b00671,26385,3(a),33046,Sn1.03−yMgyTe(Cu2Te)0.05,undefined,,2.61e+26,,,,0.0057619,,,0.000025141,,,,
27946,10.1021/acsenergylett.6b00671,26385,3(a),33046,Sn1.03−yMgyTe(Cu2Te)0.05,undefined,,2.615e+26,,,,0.0057452,,,0.00002515,,,,
27946,10.1021/acsenergylett.6b00671,26385,3(a),33046,Sn1.03−yMgyTe(Cu2Te)0.05,undefined,,2.62e+26,,,,0.0057284,,,0.000025159,,,,
27946,10.1021/acsenergylett.6b00671,26385,3(a),33046,Sn1.03−yMgyTe(Cu2Te)0.05,undefined,,2.625e+26,,,,0.0057117,,,0.000025167,,,,
27946,10.1021/acsenergylett.6b00671,26385,3(a),33046,Sn1.03−yMgyTe(Cu2Te)0.05,undefined,,2.63e+26,,,,0.005695,,,0.000025176,,,,
27946,10.1021/acsenergylett.6b00671,26385,3(a),33046,Sn1.03−yMgyTe(Cu2Te)0.05,undefined,,2.635e+26,,,,0.0056782,,,0.000025184,,,,
27946,10.1021/acsenergylett.6b00671,26385,3(a),33046,Sn1.03−yMgyTe(Cu2Te)0.05,undefined,,2.64e+26,,,,0.0056615,,,0.000025193,,,,
27946,10.1021/acsenergylett.6b00671,26385,3(a),33046,Sn1.03−yMgyTe(Cu2Te)0.05,undefined,,2.645e+26,,,,0.0056448,,,0.000025201,,,,
27946,10.1021/acsenergylett.6b00671,26385,3(a),33046,Sn1.03−yMgyTe(Cu2Te)0.05,undefined,,2.65e+26,,,,0.0056281,,,0.00002521,,,,
27946,10.1021/acsenergylett.6b00671,26385,3(a),33046,Sn1.03−yMgyTe(Cu2Te)0.05,undefined,,2.655e+26,,,,0.0056113,,,0.000025218,,,,
27946,10.1021/acsenergylett.6b00671,26385,3(a),33046,Sn1.03−yMgyTe(Cu2Te)0.05,undefined,,2.66e+26,,,,0.0055946,,,0.000025227,,,,
27946,10.1021/acsenergylett.6b00671,26385,3(a),33046,Sn1.03−yMgyTe(Cu2Te)0.05,undefined,,2.665e+26,,,,0.0055779,,,0.000025235,,,,
27946,10.1021/acsenergylett.6b00671,26385,3(a),33046,Sn1.03−yMgyTe(Cu2Te)0.05,undefined,,2.67e+26,,,,0.0055611,,,0.000025244,,,,
27946,10.1021/acsenergylett.6b00671,26385,3(a),33046,Sn1.03−yMgyTe(Cu2Te)0.05,undefined,,2.675e+26,,,,0.0055444,,,0.000025253,,,,
27946,10.1021/acsenergylett.6b00671,26385,3(a),33046,Sn1.03−yMgyTe(Cu2Te)0.05,undefined,,2.68e+26,,,,0.0055277,,,0.000025261,,,,
27946,10.1021/acsenergylett.6b00671,26385,3(a),33046,Sn1.03−yMgyTe(Cu2Te)0.05,undefined,,2.685e+26,,,,0.005511,,,0.00002527,,,,
27946,10.1021/acsenergylett.6b00671,26385,3(a),33046,Sn1.03−yMgyTe(Cu2Te)0.05,undefined,,2.69e+26,,,,0.0054942,,,0.000025278,,,,
27946,10.1021/acsenergylett.6b00671,26385,3(a),33046,Sn1.03−yMgyTe(Cu2Te)0.05,undefined,,2.695e+26,,,,0.0054775,,,0.000025287,,,,
27946,10.1021/acsenergylett.6b00671,26385,3(a),33046,Sn1.03−yMgyTe(Cu2Te)0.05,undefined,,2.7e+26,,,,0.0054608,,,0.000025295,,,,
27946,10.1021/acsenergylett.6b00671,26385,3(a),33046,Sn1.03−yMgyTe(Cu2Te)0.05,undefined,,2.705e+26,,,,0.0054441,,,0.000025304,,,,
27946,10.1021/acsenergylett.6b00671,26385,3(a),33046,Sn1.03−yMgyTe(Cu2Te)0.05,undefined,,2.71e+26,,,,0.0054273,,,0.000025312,,,,
27946,10.1021/acsenergylett.6b00671,26385,3(a),33046,Sn1.03−yMgyTe(Cu2Te)0.05,undefined,,2.715e+26,,,,0.0054106,,,0.000025321,,,,
27946,10.1021/acsenergylett.6b00671,26385,3(a),33046,Sn1.03−yMgyTe(Cu2Te)0.05,undefined,,2.72e+26,,,,0.0053939,,,0.000025329,,,,
27946,10.1021/acsenergylett.6b00671,26385,3(a),33046,Sn1.03−yMgyTe(Cu2Te)0.05,undefined,,2.725e+26,,,,0.0053771,,,0.000025338,,,,
27946,10.1021/acsenergylett.6b00671,26385,3(a),33046,Sn1.03−yMgyTe(Cu2Te)0.05,undefined,,2.73e+26,,,,0.0053604,,,0.000025346,,,,
27946,10.1021/acsenergylett.6b00671,26385,3(a),33046,Sn1.03−yMgyTe(Cu2Te)0.05,undefined,,2.735e+26,,,,0.0053437,,,0.000025355,,,,
27946,10.1021/acsenergylett.6b00671,26385,3(a),33046,Sn1.03−yMgyTe(Cu2Te)0.05,undefined,,2.74e+26,,,,0.005327,,,0.000025364,,,,
27946,10.1021/acsenergylett.6b00671,26385,3(a),33046,Sn1.03−yMgyTe(Cu2Te)0.05,undefined,,2.745e+26,,,,0.0053102,,,0.000025372,,,,
27946,10.1021/acsenergylett.6b00671,26385,3(a),33046,Sn1.03−yMgyTe(Cu2Te)0.05,undefined,,2.75e+26,,,,0.0052935,,,0.000025381,,,,
27946,10.1021/acsenergylett.6b00671,26385,3(a),33046,Sn1.03−yMgyTe(Cu2Te)0.05,undefined,,2.755e+26,,,,0.0052768,,,0.000025389,,,,
27946,10.1021/acsenergylett.6b00671,26385,3(a),33046,Sn1.03−yMgyTe(Cu2Te)0.05,undefined,,2.76e+26,,,,0.00526,,,0.000025398,,,,
27946,10.1021/acsenergylett.6b00671,26385,3(a),33046,Sn1.03−yMgyTe(Cu2Te)0.05,undefined,,2.765e+26,,,,0.0052433,,,0.000025406,,,,
27946,10.1021/acsenergylett.6b00671,26385,3(a),33046,Sn1.03−yMgyTe(Cu2Te)0.05,undefined,,2.77e+26,,,,0.0052266,,,0.000025415,,,,
27946,10.1021/acsenergylett.6b00671,26385,3(a),33046,Sn1.03−yMgyTe(Cu2Te)0.05,undefined,,2.775e+26,,,,0.0052099,,,0.000025423,,,,
27946,10.1021/acsenergylett.6b00671,26385,3(a),33046,Sn1.03−yMgyTe(Cu2Te)0.05,undefined,,2.78e+26,,,,0.0051931,,,0.000025432,,,,
27946,10.1021/acsenergylett.6b00671,26385,3(a),33046,Sn1.03−yMgyTe(Cu2Te)0.05,undefined,,2.785e+26,,,,0.0051764,,,0.00002544,,,,
27946,10.1021/acsenergylett.6b00671,26385,3(a),33046,Sn1.03−yMgyTe(Cu2Te)0.05,undefined,,2.79e+26,,,,0.0051597,,,0.000025449,,,,
27946,10.1021/acsenergylett.6b00671,26385,3(a),33046,Sn1.03−yMgyTe(Cu2Te)0.05,undefined,,2.795e+26,,,,0.005143,,,0.000025457,,,,
27946,10.1021/acsenergylett.6b00671,26385,3(a),33046,Sn1.03−yMgyTe(Cu2Te)0.05,undefined,,2.8e+26,,,,0.0051262,,,0.000025466,,,,
27946,10.1021/acsenergylett.6b00671,26385,3(a),33046,Sn1.03−yMgyTe(Cu2Te)0.05,undefined,,2.805e+26,,,,0.0051095,,,0.000025475,,,,
27946,10.1021/acsenergylett.6b00671,26385,3(a),33046,Sn1.03−yMgyTe(Cu2Te)0.05,undefined,,2.81e+26,,,,0.0050928,,,0.000025483,,,,
27946,10.1021/acsenergylett.6b00671,26385,3(a),33046,Sn1.03−yMgyTe(Cu2Te)0.05,undefined,,2.815e+26,,,,0.005076,,,0.000025492,,,,
27946,10.1021/acsenergylett.6b00671,26385,3(a),33046,Sn1.03−yMgyTe(Cu2Te)0.05,undefined,,2.82e+26,,,,0.0050593,,,0.0000255,,,,
27946,10.1021/acsenergylett.6b00671,26385,3(a),33046,Sn1.03−yMgyTe(Cu2Te)0.05,undefined,,2.825e+26,,,,0.0050426,,,0.000025509,,,,
27946,10.1021/acsenergylett.6b00671,26385,3(a),33046,Sn1.03−yMgyTe(Cu2Te)0.05,undefined,,2.83e+26,,,,0.0050259,,,0.000025517,,,,
27946,10.1021/acsenergylett.6b00671,26385,3(a),33046,Sn1.03−yMgyTe(Cu2Te)0.05,undefined,,2.835e+26,,,,0.0050091,,,0.000025526,,,,
27946,10.1021/acsenergylett.6b00671,26385,3(a),33046,Sn1.03−yMgyTe(Cu2Te)0.05,undefined,,2.84e+26,,,,0.0049924,,,0.000025534,,,,
27946,10.1021/acsenergylett.6b00671,26385,3(a),33046,Sn1.03−yMgyTe(Cu2Te)0.05,undefined,,2.845e+26,,,,0.0049757,,,0.000025543,,,,
27946,10.1021/acsenergylett.6b00671,26385,3(a),33046,Sn1.03−yMgyTe(Cu2Te)0.05,undefined,,2.85e+26,,,,0.0049589,,,0.000025551,,,,
27946,10.1021/acsenergylett.6b00671,26385,3(a),33046,Sn1.03−yMgyTe(Cu2Te)0.05,undefined,,2.855e+26,,,,0.0049422,,,0.00002556,,,,
27946,10.1021/acsenergylett.6b00671,26385,3(a),33046,Sn1.03−yMgyTe(Cu2Te)0.05,undefined,,2.86e+26,,,,0.0049255,,,0.000025569,,,,
27946,10.1021/acsenergylett.6b00671,26385,3(a),33046,Sn1.03−yMgyTe(Cu2Te)0.05,undefined,,2.865e+26,,,,0.0049088,,,0.000025577,,,,
27946,10.1021/acsenergylett.6b00671,26385,3(a),33046,Sn1.03−yMgyTe(Cu2Te)0.05,undefined,,2.87e+26,,,,0.004892,,,0.000025586,,,,
27946,10.1021/acsenergylett.6b00671,26385,3(a),33046,Sn1.03−yMgyTe(Cu2Te)0.05,undefined,,2.875e+26,,,,0.0048753,,,0.000025594,,,,
27946,10.1021/acsenergylett.6b00671,26385,3(a),33046,Sn1.03−yMgyTe(Cu2Te)0.05,undefined,,2.88e+26,,,,0.0048586,,,0.000025603,,,,
27946,10.1021/acsenergylett.6b00671,26385,3(a),33046,Sn1.03−yMgyTe(Cu2Te)0.05,undefined,,2.885e+26,,,,0.0048419,,,0.000025611,,,,
27946,10.1021/acsenergylett.6b00671,26385,3(a),33046,Sn1.03−yMgyTe(Cu2Te)0.05,undefined,,2.89e+26,,,,0.0048251,,,0.00002562,,,,
27946,10.1021/acsenergylett.6b00671,26385,3(a),33046,Sn1.03−yMgyTe(Cu2Te)0.05,undefined,,2.895e+26,,,,0.0048084,,,0.000025628,,,,
27946,10.1021/acsenergylett.6b00671,26385,3(a),33046,Sn1.03−yMgyTe(Cu2Te)0.05,undefined,,2.9e+26,,,,0.0047917,,,0.000025637,,,,
27946,10.1021/acsenergylett.6b00671,26385,3(a),33046,Sn1.03−yMgyTe(Cu2Te)0.05,undefined,,2.905e+26,,,,0.0047749,,,0.000025645,,,,
27946,10.1021/acsenergylett.6b00671,26385,3(a),33046,Sn1.03−yMgyTe(Cu2Te)0.05,undefined,,2.91e+26,,,,0.0047582,,,0.000025654,,,,
27946,10.1021/acsenergylett.6b00671,26385,3(a),33046,Sn1.03−yMgyTe(Cu2Te)0.05,undefined,,2.915e+26,,,,0.0047415,,,0.000025662,,,,
27946,10.1021/acsenergylett.6b00671,26385,3(a),33046,Sn1.03−yMgyTe(Cu2Te)0.05,undefined,,2.92e+26,,,,0.0047248,,,0.000025671,,,,
27946,10.1021/acsenergylett.6b00671,26385,3(a),33046,Sn1.03−yMgyTe(Cu2Te)0.05,undefined,,2.925e+26,,,,0.004708,,,0.00002568,,,,
27946,10.1021/acsenergylett.6b00671,26385,3(a),33046,Sn1.03−yMgyTe(Cu2Te)0.05,undefined,,2.93e+26,,,,0.0046913,,,0.000025688,,,,
27946,10.1021/acsenergylett.6b00671,26385,3(a),33046,Sn1.03−yMgyTe(Cu2Te)0.05,undefined,,2.935e+26,,,,0.0046746,,,0.000025697,,,,
27946,10.1021/acsenergylett.6b00671,26385,3(a),33046,Sn1.03−yMgyTe(Cu2Te)0.05,undefined,,2.94e+26,,,,0.0046579,,,0.000025705,,,,
27946,10.1021/acsenergylett.6b00671,26385,3(a),33046,Sn1.03−yMgyTe(Cu2Te)0.05,undefined,,2.945e+26,,,,0.0046411,,,0.000025714,,,,
27946,10.1021/acsenergylett.6b00671,26385,3(a),33046,Sn1.03−yMgyTe(Cu2Te)0.05,undefined,,2.95e+26,,,,0.0046244,,,0.000025722,,,,
27946,10.1021/acsenergylett.6b00671,26385,3(a),33046,Sn1.03−yMgyTe(Cu2Te)0.05,undefined,,2.955e+26,,,,0.0046077,,,0.000025731,,,,
27946,10.1021/acsenergylett.6b00671,26385,3(a),33046,Sn1.03−yMgyTe(Cu2Te)0.05,undefined,,2.96e+26,,,,0.0045909,,,0.000025739,,,,
27946,10.1021/acsenergylett.6b00671,26385,3(a),33046,Sn1.03−yMgyTe(Cu2Te)0.05,undefined,,2.965e+26,,,,0.0045742,,,0.000025748,,,,
27946,10.1021/acsenergylett.6b00671,26385,3(a),33046,Sn1.03−yMgyTe(Cu2Te)0.05,undefined,,2.97e+26,,,,0.0045575,,,0.000025756,,,,
27946,10.1021/acsenergylett.6b00671,26385,3(a),33046,Sn1.03−yMgyTe(Cu2Te)0.05,undefined,,2.975e+26,,,,0.0045408,,,0.000025765,,,,
27946,10.1021/acsenergylett.6b00671,26385,3(a),33046,Sn1.03−yMgyTe(Cu2Te)0.05,undefined,,2.98e+26,,,,0.004524,,,0.000025773,,,,
27946,10.1021/acsenergylett.6b00671,26385,3(a),33046,Sn1.03−yMgyTe(Cu2Te)0.05,undefined,,2.985e+26,,,,0.0045073,,,0.000025782,,,,
27946,10.1021/acsenergylett.6b00671,26385,3(a),33046,Sn1.03−yMgyTe(Cu2Te)0.05,undefined,,2.99e+26,,,,0.0044906,,,0.000025791,,,,
27946,10.1021/acsenergylett.6b00671,26385,3(a),33046,Sn1.03−yMgyTe(Cu2Te)0.05,undefined,,2.995e+26,,,,0.0044738,,,0.000025799,,,,
27946,10.1021/acsenergylett.6b00671,26385,3(a),33046,Sn1.03−yMgyTe(Cu2Te)0.05,undefined,,3e+26,,,,0.0044571,,,0.000025808,,,,
27946,10.1021/acsenergylett.6b00671,26385,3(a),33046,Sn1.03−yMgyTe(Cu2Te)0.05,undefined,,3.005e+26,,,,0.0044404,,,0.000025816,,,,
27946,10.1021/acsenergylett.6b00671,26385,3(a),33046,Sn1.03−yMgyTe(Cu2Te)0.05,undefined,,3.01e+26,,,,0.0044237,,,0.000025825,,,,
27946,10.1021/acsenergylett.6b00671,26385,3(a),33046,Sn1.03−yMgyTe(Cu2Te)0.05,undefined,,3.015e+26,,,,0.0044069,,,0.000025833,,,,
27946,10.1021/acsenergylett.6b00671,26385,3(a),33046,Sn1.03−yMgyTe(Cu2Te)0.05,undefined,,3.02e+26,,,,0.0043902,,,0.000025842,,,,
27946,10.1021/acsenergylett.6b00671,26385,3(a),33046,Sn1.03−yMgyTe(Cu2Te)0.05,undefined,,3.025e+26,,,,0.0043735,,,0.00002585,,,,
27946,10.1021/acsenergylett.6b00671,26385,3(a),33046,Sn1.03−yMgyTe(Cu2Te)0.05,undefined,,3.03e+26,,,,0.0043568,,,0.000025859,,,,
27946,10.1021/acsenergylett.6b00671,26385,3(a),33046,Sn1.03−yMgyTe(Cu2Te)0.05,undefined,,3.035e+26,,,,0.00434,,,0.000025867,,,,
27946,10.1021/acsenergylett.6b00671,26385,3(a),33046,Sn1.03−yMgyTe(Cu2Te)0.05,undefined,,3.04e+26,,,,0.0043233,,,0.000025876,,,,
27946,10.1021/acsenergylett.6b00671,26385,3(a),33046,Sn1.03−yMgyTe(Cu2Te)0.05,undefined,,3.045e+26,,,,0.0043066,,,0.000025885,,,,
27946,10.1021/acsenergylett.6b00671,26385,3(a),33046,Sn1.03−yMgyTe(Cu2Te)0.05,undefined,,3.05e+26,,,,0.0042898,,,0.000025893,,,,
27946,10.1021/acsenergylett.6b00671,26385,3(a),33046,Sn1.03−yMgyTe(Cu2Te)0.05,undefined,,3.055e+26,,,,0.0042731,,,0.000025902,,,,
27946,10.1021/acsenergylett.6b00671,26386,3(b),33046,Sn1.03−yMgyTe(Cu2Te)0.05,undefined,,6.95e+25,,,,,,,0.00013506,,,,
27946,10.1021/acsenergylett.6b00671,26386,3(b),33046,Sn1.03−yMgyTe(Cu2Te)0.05,undefined,,7e+25,,,,0.004797,,,0.000135,,,,
27946,10.1021/acsenergylett.6b00671,26386,3(b),33046,Sn1.03−yMgyTe(Cu2Te)0.05,undefined,,7.05e+25,,,,0.0047917,,,0.00013494,,,,