sid,DOI,figureid,fignum,sampleid,samplename,composition,Temperature,Carrier concentration,Electrical conductivity,Electrical resistivity,Hall coefficient,Hall movility,Lattice thermal conductivity,Power factor,Seebeck coefficient,Thermal conductivity,ZT,total thermal conductivity,Figure of merit Z
18603,10.1002/adma.201605887,1966,7(a),2972,x=0.14,Sn0.86Mn0.14Te(Cu2Te)0.05,850,,,,,,,,0.00022968,,,,
18603,10.1002/adma.201605887,1966,7(a),2972,x=0.14,Sn0.86Mn0.14Te(Cu2Te)0.05,900,,,,,,,,0.00022147,,,,
18603,10.1002/adma.201605887,1966,7(a),2973,y=0.14_4%Snexcess,Sn0.93Mn0.14Te(Cu2Te)0.05,350,,184740,0.000005413,,,,0.00036924,0.000044707,,0.074636,,
18603,10.1002/adma.201605887,1966,7(a),2973,y=0.14_4%Snexcess,Sn0.93Mn0.14Te(Cu2Te)0.05,400,,151540,0.0000065989,,,,0.00052346,0.000058773,,0.13578,,
18603,10.1002/adma.201605887,1966,7(a),2973,y=0.14_4%Snexcess,Sn0.93Mn0.14Te(Cu2Te)0.05,450,,123680,0.0000080853,,,,0.00068647,0.000074501,,0.21274,,
18603,10.1002/adma.201605887,1966,7(a),2973,y=0.14_4%Snexcess,Sn0.93Mn0.14Te(Cu2Te)0.05,500,,102580,0.0000097483,,,,0.00084082,0.000090536,,0.30253,,
18603,10.1002/adma.201605887,1966,7(a),2973,y=0.14_4%Snexcess,Sn0.93Mn0.14Te(Cu2Te)0.05,550,,85778,0.000011658,,,,0.00097474,0.0001066,,0.40567,,
18603,10.1002/adma.201605887,1966,7(a),2973,y=0.14_4%Snexcess,Sn0.93Mn0.14Te(Cu2Te)0.05,600,,71577,0.000013971,,,,0.0010832,0.00012302,,0.5245,,
18603,10.1002/adma.201605887,1966,7(a),2973,y=0.14_4%Snexcess,Sn0.93Mn0.14Te(Cu2Te)0.05,650,,59471,0.000016815,,,,0.0011711,0.00014033,,0.66142,,
18603,10.1002/adma.201605887,1966,7(a),2973,y=0.14_4%Snexcess,Sn0.93Mn0.14Te(Cu2Te)0.05,700,,49547,0.000020183,,,,0.0012494,0.0001588,,0.81718,,
18603,10.1002/adma.201605887,1966,7(a),2973,y=0.14_4%Snexcess,Sn0.93Mn0.14Te(Cu2Te)0.05,750,,41978,0.000023822,,,,0.0013294,0.00017796,,0.98921,,
18603,10.1002/adma.201605887,1966,7(a),2973,y=0.14_4%Snexcess,Sn0.93Mn0.14Te(Cu2Te)0.05,800,,36869,0.000027123,,,,0.0014198,0.00019624,,1.1698,,
18603,10.1002/adma.201605887,1966,7(a),2973,y=0.14_4%Snexcess,Sn0.93Mn0.14Te(Cu2Te)0.05,850,,34473,0.000029008,,,,0.0015263,0.00021042,,1.3447,,
18603,10.1002/adma.201605887,1966,7(a),2973,y=0.14_4%Snexcess,Sn0.93Mn0.14Te(Cu2Te)0.05,900,,35939,0.000027825,,,,0.0016659,0.0002153,,1.4907,,
18603,10.1002/adma.201605887,1969,7(d),2973,y=0.14_4%Snexcess,Sn0.93Mn0.14Te(Cu2Te)0.05,300,,,,,,,,,,0.037515,,
18603,10.1002/adma.201605887,1966,7(a),2974,y=0.14_5%Snexcess,Sn0.94Mn0.14Te(Cu2Te)0.05,350,,169900,0.0000058857,,,,0.00050285,0.000054403,,0.080875,,
18603,10.1002/adma.201605887,1966,7(a),2974,y=0.14_5%Snexcess,Sn0.94Mn0.14Te(Cu2Te)0.05,400,,142250,0.0000070301,,,,0.00074684,0.000072458,,0.15525,,
18603,10.1002/adma.201605887,1966,7(a),2974,y=0.14_5%Snexcess,Sn0.94Mn0.14Te(Cu2Te)0.05,450,,117160,0.0000085352,,,,0.001016,0.000093122,,0.26162,,
18603,10.1002/adma.201605887,1966,7(a),2974,y=0.14_5%Snexcess,Sn0.94Mn0.14Te(Cu2Te)0.05,500,,99187,0.000010082,,,,0.0012692,0.00011312,,0.38914,,
18603,10.1002/adma.201605887,1966,7(a),2974,y=0.14_5%Snexcess,Sn0.94Mn0.14Te(Cu2Te)0.05,550,,85339,0.000011718,,,,0.0014782,0.00013161,,0.53235,,
18603,10.1002/adma.201605887,1966,7(a),2974,y=0.14_5%Snexcess,Sn0.94Mn0.14Te(Cu2Te)0.05,600,,73089,0.000013682,,,,0.0016268,0.00014919,,0.68886,,
18603,10.1002/adma.201605887,1966,7(a),2974,y=0.14_5%Snexcess,Sn0.94Mn0.14Te(Cu2Te)0.05,650,,61573,0.000016241,,,,0.001717,0.00016699,,0.85708,,
18603,10.1002/adma.201605887,1966,7(a),2974,y=0.14_5%Snexcess,Sn0.94Mn0.14Te(Cu2Te)0.05,700,,51251,0.000019512,,,,0.0017668,0.00018567,,1.0339,,
18603,10.1002/adma.201605887,1966,7(a),2974,y=0.14_5%Snexcess,Sn0.94Mn0.14Te(Cu2Te)0.05,750,,42920,0.000023299,,,,0.0017949,0.0002045,,1.2125,,
18603,10.1002/adma.201605887,1966,7(a),2974,y=0.14_5%Snexcess,Sn0.94Mn0.14Te(Cu2Te)0.05,800,,37148,0.000026919,,,,0.0018039,0.00022036,,1.3799,,
18603,10.1002/adma.201605887,1966,7(a),2974,y=0.14_5%Snexcess,Sn0.94Mn0.14Te(Cu2Te)0.05,850,,34442,0.000029034,,,,0.0017721,0.00022683,,1.5147,,
18603,10.1002/adma.201605887,1966,7(a),2974,y=0.14_5%Snexcess,Sn0.94Mn0.14Te(Cu2Te)0.05,900,,36394,0.000027477,,,,0.0016544,0.00021321,,1.585,,
18603,10.1002/adma.201605887,1967,7(b),2969,y=0.06,Sn0.97Mn0.06Te(Cu2Te)0.05,300,,427750,0.0000023378,,,,,,,0.014359,,
18603,10.1002/adma.201605887,1967,7(b),2969,y=0.06,Sn0.97Mn0.06Te(Cu2Te)0.05,350,,382340,0.0000026155,,,,0.00028782,0.000027437,,0.014664,,
18603,10.1002/adma.201605887,1967,7(b),2969,y=0.06,Sn0.97Mn0.06Te(Cu2Te)0.05,400,,325670,0.0000030706,,,,0.00037052,0.00003373,,0.034217,,
18603,10.1002/adma.201605887,1967,7(b),2969,y=0.06,Sn0.97Mn0.06Te(Cu2Te)0.05,450,,278100,0.0000035958,,,,0.00051378,0.000042982,,0.0633,,
18603,10.1002/adma.201605887,1967,7(b),2969,y=0.06,Sn0.97Mn0.06Te(Cu2Te)0.05,500,,237410,0.0000042122,,,,0.00069301,0.000054028,,0.10242,,
18603,10.1002/adma.201605887,1967,7(b),2969,y=0.06,Sn0.97Mn0.06Te(Cu2Te)0.05,550,,198800,0.0000050301,,,,0.00089255,0.000067005,,0.15824,,
18603,10.1002/adma.201605887,1967,7(b),2969,y=0.06,Sn0.97Mn0.06Te(Cu2Te)0.05,600,,161050,0.0000062093,,,,0.0011007,0.000082671,,0.23956,,
18603,10.1002/adma.201605887,1967,7(b),2969,y=0.06,Sn0.97Mn0.06Te(Cu2Te)0.05,650,,126250,0.0000079206,,,,0.0013063,0.00010172,,0.35321,,
18603,10.1002/adma.201605887,1967,7(b),2969,y=0.06,Sn0.97Mn0.06Te(Cu2Te)0.05,700,,97031,0.000010306,,,,0.0014941,0.00012409,,0.50005,,
18603,10.1002/adma.201605887,1967,7(b),2969,y=0.06,Sn0.97Mn0.06Te(Cu2Te)0.05,750,,74416,0.000013438,,,,0.0016368,0.00014831,,0.67086,,
18603,10.1002/adma.201605887,1967,7(b),2969,y=0.06,Sn0.97Mn0.06Te(Cu2Te)0.05,800,,57854,0.000017285,,,,0.0016872,0.00017077,,0.84233,,
18603,10.1002/adma.201605887,1967,7(b),2969,y=0.06,Sn0.97Mn0.06Te(Cu2Te)0.05,850,,46157,0.000021665,,,,0.0015811,0.00018508,,0.97297,,
18603,10.1002/adma.201605887,1967,7(b),2970,y=0.09,Sn0.94Mn0.09Te(Cu2Te)0.05,350,,265580,0.0000037654,,,,0.00032252,0.000034848,,0.036065,,
18603,10.1002/adma.201605887,1967,7(b),2970,y=0.09,Sn0.94Mn0.09Te(Cu2Te)0.05,400,,229440,0.0000043585,,,,0.00052158,0.000047679,,0.068835,,
18603,10.1002/adma.201605887,1967,7(b),2970,y=0.09,Sn0.94Mn0.09Te(Cu2Te)0.05,450,,195100,0.0000051257,,,,0.00072713,0.000061049,,0.11471,,
18603,10.1002/adma.201605887,1967,7(b),2970,y=0.09,Sn0.94Mn0.09Te(Cu2Te)0.05,500,,163160,0.0000061288,,,,0.00091875,0.00007504,,0.17803,,
18603,10.1002/adma.201605887,1967,7(b),2970,y=0.09,Sn0.94Mn0.09Te(Cu2Te)0.05,550,,133600,0.0000074853,,,,0.0010973,0.000090627,,0.26155,,
18603,10.1002/adma.201605887,1967,7(b),2970,y=0.09,Sn0.94Mn0.09Te(Cu2Te)0.05,600,,107200,0.0000093283,,,,0.0012727,0.00010896,,0.36622,,
18603,10.1002/adma.201605887,1967,7(b),2970,y=0.09,Sn0.94Mn0.09Te(Cu2Te)0.05,650,,84983,0.000011767,,,,0.0014508,0.00013066,,0.49087,,
18603,10.1002/adma.201605887,1967,7(b),2970,y=0.09,Sn0.94Mn0.09Te(Cu2Te)0.05,700,,67354,0.000014847,,,,0.0016203,0.0001551,,0.63201,,
18603,10.1002/adma.201605887,1967,7(b),2970,y=0.09,Sn0.94Mn0.09Te(Cu2Te)0.05,750,,54022,0.000018511,,,,0.0017441,0.00017968,,0.78354,,
18603,10.1002/adma.201605887,1967,7(b),2970,y=0.09,Sn0.94Mn0.09Te(Cu2Te)0.05,800,,44330,0.000022558,,,,0.0017578,0.00019913,,0.93654,,
18603,10.1002/adma.201605887,1967,7(b),2970,y=0.09,Sn0.94Mn0.09Te(Cu2Te)0.05,850,,37588,0.000026604,,,,0.0015767,0.00020481,,1.0789,,
18603,10.1002/adma.201605887,1969,7(d),2970,y=0.09,Sn0.94Mn0.09Te(Cu2Te)0.05,300,,,,,,,,,,0.010742,,
18603,10.1002/adma.201605887,1967,7(b),2975,y=0.14,Sn0.89Mn0.14Te(Cu2Te)0.05,350,,176030,0.0000056807,,,,,,,0.032877,,
18603,10.1002/adma.201605887,1967,7(b),2975,y=0.14,Sn0.89Mn0.14Te(Cu2Te)0.05,400,,148250,0.0000067452,,,,,,,0.077932,,
18603,10.1002/adma.201605887,1967,7(b),2975,y=0.14,Sn0.89Mn0.14Te(Cu2Te)0.05,450,,125000,0.0000079998,,,,,,,0.14155,,
18603,10.1002/adma.201605887,1967,7(b),2975,y=0.14,Sn0.89Mn0.14Te(Cu2Te)0.05,500,,105740,0.0000094576,,,,,,,0.21175,,
18603,10.1002/adma.201605887,1967,7(b),2975,y=0.14,Sn0.89Mn0.14Te(Cu2Te)0.05,550,,88786,0.000011263,,,,,,,0.28546,,
18603,10.1002/adma.201605887,1967,7(b),2975,y=0.14,Sn0.89Mn0.14Te(Cu2Te)0.05,600,,73562,0.000013594,,,,,,,0.36612,,
18603,10.1002/adma.201605887,1967,7(b),2975,y=0.14,Sn0.89Mn0.14Te(Cu2Te)0.05,650,,60361,0.000016567,,,,,,,0.46129,,
18603,10.1002/adma.201605887,1967,7(b),2975,y=0.14,Sn0.89Mn0.14Te(Cu2Te)0.05,700,,49655,0.000020139,,,,,,,0.58022,,
18603,10.1002/adma.201605887,1967,7(b),2975,y=0.14,Sn0.89Mn0.14Te(Cu2Te)0.05,750,,41648,0.000024011,,,,,,,0.73146,,
18603,10.1002/adma.201605887,1967,7(b),2975,y=0.14,Sn0.89Mn0.14Te(Cu2Te)0.05,800,,36323,0.000027531,,,,,,,0.92046,,
18603,10.1002/adma.201605887,1967,7(b),2975,y=0.14,Sn0.89Mn0.14Te(Cu2Te)0.05,850,,33785,0.000029599,,,,,,,1.1471,,
18603,10.1002/adma.201605887,1967,7(b),2975,y=0.14,Sn0.89Mn0.14Te(Cu2Te)0.05,900,,35004,0.000028568,,,,,,,1.4035,,
18603,10.1002/adma.201605887,1968,7(c),2976,y=0.03_K,Sn1Mn0.03Te(Cu2Te)0.05,350,,,,,,,,,5.4136,,,
18603,10.1002/adma.201605887,1968,7(c),2976,y=0.03_K,Sn1Mn0.03Te(Cu2Te)0.05,400,,,,,,,,,5.0599,,,
18603,10.1002/adma.201605887,1968,7(c),2976,y=0.03_K,Sn1Mn0.03Te(Cu2Te)0.05,450,,,,,,,,,4.6472,,,
18603,10.1002/adma.201605887,1968,7(c),2976,y=0.03_K,Sn1Mn0.03Te(Cu2Te)0.05,500,,,,,,,,,4.1697,,,
18603,10.1002/adma.201605887,1968,7(c),2976,y=0.03_K,Sn1Mn0.03Te(Cu2Te)0.05,550,,,,,,,,,3.6562,,,
18603,10.1002/adma.201605887,1968,7(c),2976,y=0.03_K,Sn1Mn0.03Te(Cu2Te)0.05,600,,,,,,,,,3.1536,,,
18603,10.1002/adma.201605887,1968,7(c),2976,y=0.03_K,Sn1Mn0.03Te(Cu2Te)0.05,650,,,,,,,,,2.7098,,,
18603,10.1002/adma.201605887,1968,7(c),2976,y=0.03_K,Sn1Mn0.03Te(Cu2Te)0.05,700,,,,,,,,,2.3576,,,
18603,10.1002/adma.201605887,1968,7(c),2976,y=0.03_K,Sn1Mn0.03Te(Cu2Te)0.05,750,,,,,,,,,2.0977,,,
18603,10.1002/adma.201605887,1968,7(c),2976,y=0.03_K,Sn1Mn0.03Te(Cu2Te)0.05,800,,,,,,,,,1.882,,,
18603,10.1002/adma.201605887,1968,7(c),2976,y=0.03_K,Sn1Mn0.03Te(Cu2Te)0.05,850,,,,,,,,,1.597,,,
18603,10.1002/adma.201605887,1968,7(c),2978,y=0.09_K,Sn0.94Mn0.09Te(Cu2Te)0.05,350,,,,,,,,,3.5115,,,
18603,10.1002/adma.201605887,1968,7(c),2978,y=0.09_K,Sn0.94Mn0.09Te(Cu2Te)0.05,400,,,,,,,,,3.2756,,,
18603,10.1002/adma.201605887,1968,7(c),2978,y=0.09_K,Sn0.94Mn0.09Te(Cu2Te)0.05,450,,,,,,,,,3.0113,,,
18603,10.1002/adma.201605887,1968,7(c),2978,y=0.09_K,Sn0.94Mn0.09Te(Cu2Te)0.05,500,,,,,,,,,2.7196,,,
18603,10.1002/adma.201605887,1968,7(c),2978,y=0.09_K,Sn0.94Mn0.09Te(Cu2Te)0.05,550,,,,,,,,,2.4156,,,
18603,10.1002/adma.201605887,1968,7(c),2978,y=0.09_K,Sn0.94Mn0.09Te(Cu2Te)0.05,600,,,,,,,,,2.1209,,,
18603,10.1002/adma.201605887,1968,7(c),2978,y=0.09_K,Sn0.94Mn0.09Te(Cu2Te)0.05,650,,,,,,,,,1.8579,,,
18603,10.1002/adma.201605887,1968,7(c),2978,y=0.09_K,Sn0.94Mn0.09Te(Cu2Te)0.05,700,,,,,,,,,1.6422,,,
18603,10.1002/adma.201605887,1968,7(c),2978,y=0.09_K,Sn0.94Mn0.09Te(Cu2Te)0.05,750,,,,,,,,,1.4767,,,
18603,10.1002/adma.201605887,1968,7(c),2978,y=0.09_K,Sn0.94Mn0.09Te(Cu2Te)0.05,800,,,,,,,,,1.3448,,,
18603,10.1002/adma.201605887,1968,7(c),2978,y=0.09_K,Sn0.94Mn0.09Te(Cu2Te)0.05,850,,,,,,,,,1.2032,,,
18603,10.1002/adma.201605887,1968,7(c),2977,y=0.06_K,Sn0.97Mn0.06Te(Cu2Te)0.05,350,,,,,,,,,4.4378,,,
18603,10.1002/adma.201605887,1968,7(c),2977,y=0.06_K,Sn0.97Mn0.06Te(Cu2Te)0.05,400,,,,,,,,,4.169,,,
18603,10.1002/adma.201605887,1968,7(c),2977,y=0.06_K,Sn0.97Mn0.06Te(Cu2Te)0.05,450,,,,,,,,,3.8474,,,
18603,10.1002/adma.201605887,1968,7(c),2977,y=0.06_K,Sn0.97Mn0.06Te(Cu2Te)0.05,500,,,,,,,,,3.4984,,,
18603,10.1002/adma.201605887,1968,7(c),2977,y=0.06_K,Sn0.97Mn0.06Te(Cu2Te)0.05,550,,,,,,,,,3.1419,,,
18603,10.1002/adma.201605887,1968,7(c),2977,y=0.06_K,Sn0.97Mn0.06Te(Cu2Te)0.05,600,,,,,,,,,2.7926,,,
18603,10.1002/adma.201605887,1968,7(c),2977,y=0.06_K,Sn0.97Mn0.06Te(Cu2Te)0.05,650,,,,,,,,,2.4609,,,
18603,10.1002/adma.201605887,1968,7(c),2977,y=0.06_K,Sn0.97Mn0.06Te(Cu2Te)0.05,700,,,,,,,,,2.1539,,,
18603,10.1002/adma.201605887,1968,7(c),2977,y=0.06_K,Sn0.97Mn0.06Te(Cu2Te)0.05,750,,,,,,,,,1.8756,,,
18603,10.1002/adma.201605887,1968,7(c),2977,y=0.06_K,Sn0.97Mn0.06Te(Cu2Te)0.05,800,,,,,,,,,1.6282,,,
18603,10.1002/adma.201605887,1968,7(c),2977,y=0.06_K,Sn0.97Mn0.06Te(Cu2Te)0.05,850,,,,,,,,,1.4123,,,
18603,10.1002/adma.201605887,1968,7(c),2979,y=0.12_K,Sn0.91Mn0.12Te(Cu2Te)0.05,350,,,,,,,,,2.6601,,,
18603,10.1002/adma.201605887,1968,7(c),2979,y=0.12_K,Sn0.91Mn0.12Te(Cu2Te)0.05,400,,,,,,,,,2.4659,,,
18603,10.1002/adma.201605887,1968,7(c),2979,y=0.12_K,Sn0.91Mn0.12Te(Cu2Te)0.05,450,,,,,,,,,2.2415,,,
18603,10.1002/adma.201605887,1968,7(c),2979,y=0.12_K,Sn0.91Mn0.12Te(Cu2Te)0.05,500,,,,,,,,,2.0196,,,
18603,10.1002/adma.201605887,1968,7(c),2979,y=0.12_K,Sn0.91Mn0.12Te(Cu2Te)0.05,550,,,,,,,,,1.8193,,,
18603,10.1002/adma.201605887,1968,7(c),2979,y=0.12_K,Sn0.91Mn0.12Te(Cu2Te)0.05,600,,,,,,,,,1.6489,,,
18603,10.1002/adma.201605887,1968,7(c),2979,y=0.12_K,Sn0.91Mn0.12Te(Cu2Te)0.05,650,,,,,,,,,1.5082,,,
18603,10.1002/adma.201605887,1968,7(c),2979,y=0.12_K,Sn0.91Mn0.12Te(Cu2Te)0.05,700,,,,,,,,,1.3913,,,
18603,10.1002/adma.201605887,1968,7(c),2979,y=0.12_K,Sn0.91Mn0.12Te(Cu2Te)0.05,750,,,,,,,,,1.2885,,,
18603,10.1002/adma.201605887,1968,7(c),2979,y=0.12_K,Sn0.91Mn0.12Te(Cu2Te)0.05,800,,,,,,,,,1.1892,,,
18603,10.1002/adma.201605887,1968,7(c),2980,y=0.14_K,Sn0.89Mn0.14Te(Cu2Te)0.05,350,,,,,,,,,2.4959,,,
18603,10.1002/adma.201605887,1968,7(c),2980,y=0.14_K,Sn0.89Mn0.14Te(Cu2Te)0.05,400,,,,,,,,,2.317,,,
18603,10.1002/adma.201605887,1968,7(c),2980,y=0.14_K,Sn0.89Mn0.14Te(Cu2Te)0.05,450,,,,,,,,,2.1336,,,
18603,10.1002/adma.201605887,1968,7(c),2980,y=0.14_K,Sn0.89Mn0.14Te(Cu2Te)0.05,500,,,,,,,,,1.9624,,,
18603,10.1002/adma.201605887,1968,7(c),2980,y=0.14_K,Sn0.89Mn0.14Te(Cu2Te)0.05,550,,,,,,,,,1.8093,,,
18603,10.1002/adma.201605887,1968,7(c),2980,y=0.14_K,Sn0.89Mn0.14Te(Cu2Te)0.05,600,,,,,,,,,1.6729,,,
18603,10.1002/adma.201605887,1968,7(c),2980,y=0.14_K,Sn0.89Mn0.14Te(Cu2Te)0.05,650,,,,,,,,,1.5475,,,
18603,10.1002/adma.201605887,1968,7(c),2980,y=0.14_K,Sn0.89Mn0.14Te(Cu2Te)0.05,700,,,,,,,,,1.4264,,,
18603,10.1002/adma.201605887,1968,7(c),2980,y=0.14_K,Sn0.89Mn0.14Te(Cu2Te)0.05,750,,,,,,,,,1.3051,,,
18603,10.1002/adma.201605887,1968,7(c),2980,y=0.14_K,Sn0.89Mn0.14Te(Cu2Te)0.05,800,,,,,,,,,1.1849,,,
18603,10.1002/adma.201605887,1968,7(c),2980,y=0.14_K,Sn0.89Mn0.14Te(Cu2Te)0.05,850,,,,,,,,,1.0758,,,
18603,10.1002/adma.201605887,1968,7(c),2980,y=0.14_K,Sn0.89Mn0.14Te(Cu2Te)0.05,900,,,,,,,,,0.99972,,,
18603,10.1002/adma.201605887,1968,7(c),2981,y=0.14_4%Snexcess_K,Sn0.93Mn0.14Te(Cu2Te)0.05,350,,,,,,,,,2.7846,,,
18603,10.1002/adma.201605887,1968,7(c),2981,y=0.14_4%Snexcess_K,Sn0.93Mn0.14Te(Cu2Te)0.05,400,,,,,,,,,2.5416,,,
18603,10.1002/adma.201605887,1968,7(c),2981,y=0.14_4%Snexcess_K,Sn0.93Mn0.14Te(Cu2Te)0.05,450,,,,,,,,,2.3083,,,
18603,10.1002/adma.201605887,1968,7(c),2981,y=0.14_4%Snexcess_K,Sn0.93Mn0.14Te(Cu2Te)0.05,500,,,,,,,,,2.1013,,,
18603,10.1002/adma.201605887,1968,7(c),2981,y=0.14_4%Snexcess_K,Sn0.93Mn0.14Te(Cu2Te)0.05,550,,,,,,,,,1.9249,,,
18603,10.1002/adma.201605887,1968,7(c),2981,y=0.14_4%Snexcess_K,Sn0.93Mn0.14Te(Cu2Te)0.05,600,,,,,,,,,1.7746,,,
18603,10.1002/adma.201605887,1968,7(c),2981,y=0.14_4%Snexcess_K,Sn0.93Mn0.14Te(Cu2Te)0.05,650,,,,,,,,,1.6411,,,
18603,10.1002/adma.201605887,1968,7(c),2981,y=0.14_4%Snexcess_K,Sn0.93Mn0.14Te(Cu2Te)0.05,700,,,,,,,,,1.5139,,,
18603,10.1002/adma.201605887,1968,7(c),2981,y=0.14_4%Snexcess_K,Sn0.93Mn0.14Te(Cu2Te)0.05,750,,,,,,,,,1.3853,,,
18603,10.1002/adma.201605887,1968,7(c),2981,y=0.14_4%Snexcess_K,Sn0.93Mn0.14Te(Cu2Te)0.05,800,,,,,,,,,1.254,,,
18603,10.1002/adma.201605887,1968,7(c),2981,y=0.14_4%Snexcess_K,Sn0.93Mn0.14Te(Cu2Te)0.05,850,,,,,,,,,1.1289,,,
18603,10.1002/adma.201605887,1968,7(c),2981,y=0.14_4%Snexcess_K,Sn0.93Mn0.14Te(Cu2Te)0.05,900,,,,,,,,,1.0331,,,
18603,10.1002/adma.201605887,1968,7(c),2982,y=0.14_5%Snexcess_K,Sn0.94Mn0.14Te(Cu2Te)0.05,350,,,,,,,,,2.0573,,,
18603,10.1002/adma.201605887,1968,7(c),2982,y=0.14_5%Snexcess_K,Sn0.94Mn0.14Te(Cu2Te)0.05,400,,,,,,,,,1.9446,,,
18603,10.1002/adma.201605887,1968,7(c),2982,y=0.14_5%Snexcess_K,Sn0.94Mn0.14Te(Cu2Te)0.05,450,,,,,,,,,1.828,,,
18603,10.1002/adma.201605887,1968,7(c),2982,y=0.14_5%Snexcess_K,Sn0.94Mn0.14Te(Cu2Te)0.05,500,,,,,,,,,1.7069,,,
18603,10.1002/adma.201605887,1968,7(c),2982,y=0.14_5%Snexcess_K,Sn0.94Mn0.14Te(Cu2Te)0.05,550,,,,,,,,,1.5828,,,
18603,10.1002/adma.201605887,1968,7(c),2982,y=0.14_5%Snexcess_K,Sn0.94Mn0.14Te(Cu2Te)0.05,600,,,,,,,,,1.4584,,,
18603,10.1002/adma.201605887,1968,7(c),2982,y=0.14_5%Snexcess_K,Sn0.94Mn0.14Te(Cu2Te)0.05,650,,,,,,,,,1.3375,,,
18603,10.1002/adma.201605887,1968,7(c),2982,y=0.14_5%Snexcess_K,Sn0.94Mn0.14Te(Cu2Te)0.05,700,,,,,,,,,1.2246,,,
18603,10.1002/adma.201605887,1968,7(c),2982,y=0.14_5%Snexcess_K,Sn0.94Mn0.14Te(Cu2Te)0.05,750,,,,,,,,,1.1244,,,
18603,10.1002/adma.201605887,1968,7(c),2982,y=0.14_5%Snexcess_K,Sn0.94Mn0.14Te(Cu2Te)0.05,800,,,,,,,,,1.0416,,,
18603,10.1002/adma.201605887,1968,7(c),2982,y=0.14_5%Snexcess_K,Sn0.94Mn0.14Te(Cu2Te)0.05,850,,,,,,,,,0.98032,,,
18603,10.1002/adma.201605887,1968,7(c),2982,y=0.14_5%Snexcess_K,Sn0.94Mn0.14Te(Cu2Te)0.05,900,,,,,,,,,0.94395,,,
18603,10.1002/adma.201605887,1968,7(c),2983,y=0.03_KL,Sn1Mn0.03Te(Cu2Te)0.05,300,,,,,,,,,1.3074,,,
18603,10.1002/adma.201605887,1968,7(c),2983,y=0.03_KL,Sn1Mn0.03Te(Cu2Te)0.05,350,,,,,,,,,1.2133,,,
18603,10.1002/adma.201605887,1968,7(c),2983,y=0.03_KL,Sn1Mn0.03Te(Cu2Te)0.05,400,,,,,,,,,1.1479,,,
18603,10.1002/adma.201605887,1968,7(c),2983,y=0.03_KL,Sn1Mn0.03Te(Cu2Te)0.05,450,,,,,,,,,1.0901,,,
18603,10.1002/adma.201605887,1968,7(c),2983,y=0.03_KL,Sn1Mn0.03Te(Cu2Te)0.05,500,,,,,,,,,1.0273,,,
18603,10.1002/adma.201605887,1968,7(c),2983,y=0.03_KL,Sn1Mn0.03Te(Cu2Te)0.05,550,,,,,,,,,0.95376,,,
18603,10.1002/adma.201605887,1968,7(c),2983,y=0.03_KL,Sn1Mn0.03Te(Cu2Te)0.05,600,,,,,,,,,0.86967,,,
18603,10.1002/adma.201605887,1968,7(c),2983,y=0.03_KL,Sn1Mn0.03Te(Cu2Te)0.05,650,,,,,,,,,0.78016,,,
18603,10.1002/adma.201605887,1968,7(c),2983,y=0.03_KL,Sn1Mn0.03Te(Cu2Te)0.05,700,,,,,,,,,0.6942,,,
18603,10.1002/adma.201605887,1968,7(c),2983,y=0.03_KL,Sn1Mn0.03Te(Cu2Te)0.05,750,,,,,,,,,0.62351,,,
18603,10.1002/adma.201605887,1968,7(c),2983,y=0.03_KL,Sn1Mn0.03Te(Cu2Te)0.05,800,,,,,,,,,0.58155,,,
18603,10.1002/adma.201605887,1968,7(c),2983,y=0.03_KL,Sn1Mn0.03Te(Cu2Te)0.05,850,,,,,,,,,0.58236,,,
18603,10.1002/adma.201605887,1968,7(c),2984,y=0.06_KL,Sn0.97Mn0.06Te(Cu2Te)0.05,350,,,,,,,,,1.3689,,,
18603,10.1002/adma.201605887,1968,7(c),2984,y=0.06_KL,Sn0.97Mn0.06Te(Cu2Te)0.05,400,,,,,,,,,1.2632,,,
18603,10.1002/adma.201605887,1968,7(c),2984,y=0.06_KL,Sn0.97Mn0.06Te(Cu2Te)0.05,450,,,,,,,,,1.2141,,,
18603,10.1002/adma.201605887,1968,7(c),2984,y=0.06_KL,Sn0.97Mn0.06Te(Cu2Te)0.05,500,,,,,,,,,1.1801,,,
18603,10.1002/adma.201605887,1968,7(c),2984,y=0.06_KL,Sn0.97Mn0.06Te(Cu2Te)0.05,550,,,,,,,,,1.1416,,,
18603,10.1002/adma.201605887,1968,7(c),2984,y=0.06_KL,Sn0.97Mn0.06Te(Cu2Te)0.05,600,,,,,,,,,1.0945,,,
18603,10.1002/adma.201605887,1968,7(c),2984,y=0.06_KL,Sn0.97Mn0.06Te(Cu2Te)0.05,650,,,,,,,,,1.0436,,,
18603,10.1002/adma.201605887,1968,7(c),2984,y=0.06_KL,Sn0.97Mn0.06Te(Cu2Te)0.05,700,,,,,,,,,0.99635,,,
18603,10.1002/adma.201605887,1968,7(c),2984,y=0.06_KL,Sn0.97Mn0.06Te(Cu2Te)0.05,750,,,,,,,,,0.95581,,,
18603,10.1002/adma.201605887,1968,7(c),2984,y=0.06_KL,Sn0.97Mn0.06Te(Cu2Te)0.05,800,,,,,,,,,0.9145,,,
18603,10.1002/adma.201605887,1968,7(c),2984,y=0.06_KL,Sn0.97Mn0.06Te(Cu2Te)0.05,850,,,,,,,,,0.84769,,,
18603,10.1002/adma.201605887,1968,7(c),2985,y=0.09_KL,Sn0.94Mn0.09Te(Cu2Te)0.05,350,,,,,,,,,1.4276,,,
18603,10.1002/adma.201605887,1968,7(c),2985,y=0.09_KL,Sn0.94Mn0.09Te(Cu2Te)0.05,400,,,,,,,,,1.3507,,,
18603,10.1002/adma.201605887,1968,7(c),2985,y=0.09_KL,Sn0.94Mn0.09Te(Cu2Te)0.05,450,,,,,,,,,1.2711,,,
18603,10.1002/adma.201605887,1968,7(c),2985,y=0.09_KL,Sn0.94Mn0.09Te(Cu2Te)0.05,500,,,,,,,,,1.1956,,,
18603,10.1002/adma.201605887,1968,7(c),2985,y=0.09_KL,Sn0.94Mn0.09Te(Cu2Te)0.05,550,,,,,,,,,1.1267,,,
18603,10.1002/adma.201605887,1968,7(c),2985,y=0.09_KL,Sn0.94Mn0.09Te(Cu2Te)0.05,600,,,,,,,,,1.0637,,,