sid,DOI,figureid,fignum,sampleid,samplename,composition,Temperature,Electrical resistivity,Power factor,Seebeck coefficient,Thermal conductivity,ZT,Electrical conductivity,Figure of merit Z
4120,10.1016/j.nanoen.2014.11.027,11853,2a,14060,x=0.0075,Mg0.9925Na0.0075Ag0.97Sb0.99,486.5,0.000019797,0.0021955,0.0002074,0.89291,1.1964,50512.7039450422,0.0024588144
4120,10.1016/j.nanoen.2014.11.027,11853,2a,14060,x=0.0075,Mg0.9925Na0.0075Ag0.97Sb0.99,487,0.000019771,0.002196,0.0002073,0.89328,1.1974,50579.1310505286,0.0024583557
4120,10.1016/j.nanoen.2014.11.027,11853,2a,14060,x=0.0075,Mg0.9925Na0.0075Ag0.97Sb0.99,487.5,0.000019745,0.0021965,0.00020719,0.89366,1.1985,50645.7330969866,0.0024578699
4120,10.1016/j.nanoen.2014.11.027,11853,2a,14060,x=0.0075,Mg0.9925Na0.0075Ag0.97Sb0.99,488,0.000019719,0.002197,0.00020709,0.89403,1.1995,50712.5107764085,0.0024574119
4120,10.1016/j.nanoen.2014.11.027,11853,2a,14060,x=0.0075,Mg0.9925Na0.0075Ag0.97Sb0.99,488.5,0.000019693,0.0021975,0.00020699,0.8944,1.2005,50779.4647844412,0.0024569544
4120,10.1016/j.nanoen.2014.11.027,11853,2a,14060,x=0.0075,Mg0.9925Na0.0075Ag0.97Sb0.99,489,0.000019667,0.002198,0.00020688,0.89477,1.2016,50846.5958204098,0.0024564972
4120,10.1016/j.nanoen.2014.11.027,11853,2a,14060,x=0.0075,Mg0.9925Na0.0075Ag0.97Sb0.99,489.5,0.000019641,0.0021985,0.00020678,0.89515,1.2026,50913.9045873428,0.002456013
4120,10.1016/j.nanoen.2014.11.027,11853,2a,14060,x=0.0075,Mg0.9925Na0.0075Ag0.97Sb0.99,490,0.000019616,0.002199,0.00020668,0.89552,1.2037,50978.792822186,0.0024555565
4120,10.1016/j.nanoen.2014.11.027,11853,2a,14060,x=0.0075,Mg0.9925Na0.0075Ag0.97Sb0.99,490.5,0.00001959,0.0021994,0.00020658,0.89589,1.2047,51046.4522715671,0.0024549889
4120,10.1016/j.nanoen.2014.11.027,11853,2a,14060,x=0.0075,Mg0.9925Na0.0075Ag0.97Sb0.99,491,0.000019564,0.0021999,0.00020647,0.89627,1.2057,51114.291555919,0.0024545059
4120,10.1016/j.nanoen.2014.11.027,11853,2a,14060,x=0.0075,Mg0.9925Na0.0075Ag0.97Sb0.99,491.5,0.000019538,0.0022004,0.00020637,0.89664,1.2068,51182.3113931825,0.0024540507
4120,10.1016/j.nanoen.2014.11.027,11853,2a,14060,x=0.0075,Mg0.9925Na0.0075Ag0.97Sb0.99,492,0.000019512,0.0022009,0.00020627,0.89701,1.2078,51250.5125051251,0.0024535958
4120,10.1016/j.nanoen.2014.11.027,11853,2a,14060,x=0.0075,Mg0.9925Na0.0075Ag0.97Sb0.99,492.5,0.000019486,0.0022014,0.00020616,0.89738,1.2089,51318.8956173663,0.0024531414
4120,10.1016/j.nanoen.2014.11.027,11853,2a,14060,x=0.0075,Mg0.9925Na0.0075Ag0.97Sb0.99,493,0.00001946,0.0022019,0.00020606,0.89776,1.2099,51387.4614594039,0.00245266
4120,10.1016/j.nanoen.2014.11.027,11853,2a,14060,x=0.0075,Mg0.9925Na0.0075Ag0.97Sb0.99,493.5,0.000019434,0.0022024,0.00020596,0.89813,1.211,51456.2107646393,0.0024522063
4120,10.1016/j.nanoen.2014.11.027,11853,2a,14060,x=0.0075,Mg0.9925Na0.0075Ag0.97Sb0.99,494,0.000019408,0.0022029,0.00020586,0.8985,1.212,51525.144270404,0.0024517529
4120,10.1016/j.nanoen.2014.11.027,11853,2a,14060,x=0.0075,Mg0.9925Na0.0075Ag0.97Sb0.99,494.5,0.000019382,0.0022034,0.00020575,0.89888,1.213,51594.2627179858,0.0024512727
4120,10.1016/j.nanoen.2014.11.027,11853,2a,14060,x=0.0075,Mg0.9925Na0.0075Ag0.97Sb0.99,495,0.000019357,0.0022039,0.00020565,0.89925,1.2141,51660.8978664049,0.0024508201
4120,10.1016/j.nanoen.2014.11.027,11853,2a,14060,x=0.0075,Mg0.9925Na0.0075Ag0.97Sb0.99,495.5,0.000019331,0.0022044,0.00020555,0.89962,1.2151,51730.3812529098,0.0024503679
4120,10.1016/j.nanoen.2014.11.027,11853,2a,14060,x=0.0075,Mg0.9925Na0.0075Ag0.97Sb0.99,496,0.000019305,0.0022049,0.00020544,0.89999,1.2162,51800.0518000518,0.0024499161
4120,10.1016/j.nanoen.2014.11.027,11853,2a,14060,x=0.0075,Mg0.9925Na0.0075Ag0.97Sb0.99,496.5,0.000019279,0.0022054,0.00020534,0.90037,1.2172,51869.9102650552,0.0024494375
4120,10.1016/j.nanoen.2014.11.027,11853,2a,14060,x=0.0075,Mg0.9925Na0.0075Ag0.97Sb0.99,497,0.000019253,0.0022059,0.00020524,0.90074,1.2182,51939.9574092349,0.0024489864
4120,10.1016/j.nanoen.2014.11.027,11853,2a,14060,x=0.0075,Mg0.9925Na0.0075Ag0.97Sb0.99,497.5,0.000019227,0.0022064,0.00020514,0.90111,1.2193,52010.1939980236,0.0024485357
4120,10.1016/j.nanoen.2014.11.027,11853,2a,14060,x=0.0075,Mg0.9925Na0.0075Ag0.97Sb0.99,498,0.000019201,0.0022069,0.00020503,0.90149,1.2203,52080.6208009999,0.0024480582
4120,10.1016/j.nanoen.2014.11.027,11853,2a,14060,x=0.0075,Mg0.9925Na0.0075Ag0.97Sb0.99,498.5,0.000019175,0.0022074,0.00020493,0.90186,1.2214,52151.2385919166,0.0024476083
4120,10.1016/j.nanoen.2014.11.027,11853,2a,14060,x=0.0075,Mg0.9925Na0.0075Ag0.97Sb0.99,499,0.000019149,0.0022079,0.00020483,0.90223,1.2224,52222.0481487284,0.0024471587
4120,10.1016/j.nanoen.2014.11.027,11853,2a,14060,x=0.0075,Mg0.9925Na0.0075Ag0.97Sb0.99,499.5,0.000019123,0.0022084,0.00020472,0.9026,1.2234,52293.0502536213,0.0024467095
4120,10.1016/j.nanoen.2014.11.027,11853,2a,14060,x=0.0075,Mg0.9925Na0.0075Ag0.97Sb0.99,500,0.000019098,0.0022089,0.00020462,0.90298,1.2245,52361.5038223898,0.0024462336
4120,10.1016/j.nanoen.2014.11.027,11853,2a,14060,x=0.0075,Mg0.9925Na0.0075Ag0.97Sb0.99,500.5,0.000019072,0.0022094,0.00020452,0.90335,1.2255,52432.8859060403,0.0024457851
4120,10.1016/j.nanoen.2014.11.027,11853,2a,14060,x=0.0075,Mg0.9925Na0.0075Ag0.97Sb0.99,501,0.000019046,0.0022099,0.00020441,0.90372,1.2266,52504.4628793447,0.0024453371
4120,10.1016/j.nanoen.2014.11.027,11853,2a,14060,x=0.0075,Mg0.9925Na0.0075Ag0.97Sb0.99,501.5,0.00001902,0.0022104,0.00020431,0.9041,1.2276,52576.2355415352,0.0024448623
4120,10.1016/j.nanoen.2014.11.027,11853,2a,14060,x=0.0075,Mg0.9925Na0.0075Ag0.97Sb0.99,502,0.000018994,0.0022109,0.00020421,0.90447,1.2287,52648.2046962199,0.002444415
4120,10.1016/j.nanoen.2014.11.027,11853,2a,14060,x=0.0075,Mg0.9925Na0.0075Ag0.97Sb0.99,502.5,0.000018968,0.0022114,0.00020411,0.90484,1.2297,52720.3711514129,0.002443968
4120,10.1016/j.nanoen.2014.11.027,11853,2a,14060,x=0.0075,Mg0.9925Na0.0075Ag0.97Sb0.99,503,0.000018942,0.0022119,0.000204,0.90521,1.2307,52792.735719565,0.0024435214
4120,10.1016/j.nanoen.2014.11.027,11853,2a,14060,x=0.0075,Mg0.9925Na0.0075Ag0.97Sb0.99,503.5,0.000018916,0.0022124,0.0002039,0.90559,1.2318,52865.2992175936,0.0024430482
4120,10.1016/j.nanoen.2014.11.027,11853,2a,14060,x=0.0075,Mg0.9925Na0.0075Ag0.97Sb0.99,504,0.00001889,0.0022129,0.0002038,0.90596,1.2328,52938.0624669137,0.0024426023
4120,10.1016/j.nanoen.2014.11.027,11853,2a,14060,x=0.0075,Mg0.9925Na0.0075Ag0.97Sb0.99,504.5,0.000018864,0.0022133,0.00020369,0.90633,1.2339,53011.026293469,0.0024420465
4120,10.1016/j.nanoen.2014.11.027,11853,2a,14060,x=0.0075,Mg0.9925Na0.0075Ag0.97Sb0.99,505,0.000018839,0.0022138,0.00020359,0.90671,1.2349,53081.3737459525,0.0024415745
4120,10.1016/j.nanoen.2014.11.027,11853,2a,14060,x=0.0075,Mg0.9925Na0.0075Ag0.97Sb0.99,505.5,0.000018813,0.0022143,0.00020349,0.90708,1.2359,53154.7334290119,0.0024411298
4120,10.1016/j.nanoen.2014.11.027,11853,2a,14060,x=0.0075,Mg0.9925Na0.0075Ag0.97Sb0.99,506,0.000018787,0.0022148,0.00020339,0.90745,1.237,53228.2961622398,0.0024406854
4120,10.1016/j.nanoen.2014.11.027,11853,2a,14060,x=0.0075,Mg0.9925Na0.0075Ag0.97Sb0.99,506.5,0.000018761,0.0022153,0.00020328,0.90783,1.238,53302.06278983,0.0024402146
4120,10.1016/j.nanoen.2014.11.027,11853,2a,14060,x=0.0075,Mg0.9925Na0.0075Ag0.97Sb0.99,507,0.000018735,0.0022158,0.00020318,0.9082,1.2391,53376.0341606619,0.002439771
4120,10.1016/j.nanoen.2014.11.027,11853,2a,14060,x=0.0075,Mg0.9925Na0.0075Ag0.97Sb0.99,507.5,0.000018709,0.0022163,0.00020308,0.90857,1.2401,53450.211128334,0.0024393277
4120,10.1016/j.nanoen.2014.11.027,11853,2a,14060,x=0.0075,Mg0.9925Na0.0075Ag0.97Sb0.99,508,0.000018683,0.0022168,0.00020297,0.90894,1.2412,53524.5945511963,0.0024388849
4120,10.1016/j.nanoen.2014.11.027,11853,2a,14060,x=0.0075,Mg0.9925Na0.0075Ag0.97Sb0.99,508.5,0.000018657,0.0022173,0.00020287,0.90932,1.2422,53599.1852923836,0.0024384155
4120,10.1016/j.nanoen.2014.11.027,11853,2a,14060,x=0.0075,Mg0.9925Na0.0075Ag0.97Sb0.99,509,0.000018631,0.0022178,0.00020277,0.90969,1.2432,53673.9842198486,0.0024379734
4120,10.1016/j.nanoen.2014.11.027,11853,2a,14060,x=0.0075,Mg0.9925Na0.0075Ag0.97Sb0.99,509.5,0.000018605,0.0022183,0.00020267,0.91006,1.2443,53748.9922063961,0.0024375316
4120,10.1016/j.nanoen.2014.11.027,11853,2a,14060,x=0.0075,Mg0.9925Na0.0075Ag0.97Sb0.99,510,0.00001858,0.0022188,0.00020256,0.91044,1.2453,53821.3132400431,0.0024370634
4120,10.1016/j.nanoen.2014.11.027,11853,2a,14060,x=0.0075,Mg0.9925Na0.0075Ag0.97Sb0.99,510.5,0.000018554,0.0022193,0.00020246,0.91081,1.2464,53896.7338579282,0.0024366223
4120,10.1016/j.nanoen.2014.11.027,11853,2a,14060,x=0.0075,Mg0.9925Na0.0075Ag0.97Sb0.99,511,0.000018528,0.0022198,0.00020236,0.91118,1.2474,53972.366148532,0.0024361817
4120,10.1016/j.nanoen.2014.11.027,11853,2a,14060,x=0.0075,Mg0.9925Na0.0075Ag0.97Sb0.99,511.5,0.000018502,0.0022203,0.00020225,0.91155,1.2484,54048.2110042158,0.0024357413
4120,10.1016/j.nanoen.2014.11.027,11853,2a,14060,x=0.0075,Mg0.9925Na0.0075Ag0.97Sb0.99,512,0.000018476,0.0022208,0.00020215,0.91193,1.2495,54124.2693223641,0.0024352746
4120,10.1016/j.nanoen.2014.11.027,11853,2a,14060,x=0.0075,Mg0.9925Na0.0075Ag0.97Sb0.99,512.5,0.00001845,0.0022213,0.00020205,0.9123,1.2505,54200.5420054201,0.002434835
4120,10.1016/j.nanoen.2014.11.027,11853,2a,14060,x=0.0075,Mg0.9925Na0.0075Ag0.97Sb0.99,513,0.000018424,0.0022218,0.00020195,0.91267,1.2516,54277.0299609205,0.0024343958
4120,10.1016/j.nanoen.2014.11.027,11853,2a,14060,x=0.0075,Mg0.9925Na0.0075Ag0.97Sb0.99,513.5,0.000018398,0.0022223,0.00020184,0.91305,1.2526,54353.7341015328,0.0024339302
4120,10.1016/j.nanoen.2014.11.027,11853,2a,14060,x=0.0075,Mg0.9925Na0.0075Ag0.97Sb0.99,514,0.000018372,0.0022228,0.00020174,0.91342,1.2536,54430.6553450904,0.0024334917
4120,10.1016/j.nanoen.2014.11.027,11853,2a,14060,x=0.0075,Mg0.9925Na0.0075Ag0.97Sb0.99,514.5,0.000018346,0.0022233,0.00020164,0.91379,1.2547,54507.7946146299,0.0024330535
4120,10.1016/j.nanoen.2014.11.027,11853,2a,14060,x=0.0075,Mg0.9925Na0.0075Ag0.97Sb0.99,515,0.000018321,0.0022238,0.00020153,0.91416,1.2557,54582.1734621473,0.0024326157
4120,10.1016/j.nanoen.2014.11.027,11853,2a,14060,x=0.0075,Mg0.9925Na0.0075Ag0.97Sb0.99,515.5,0.000018295,0.0022243,0.00020143,0.91454,1.2568,54659.7430992074,0.0024321517
4120,10.1016/j.nanoen.2014.11.027,11853,2a,14060,x=0.0075,Mg0.9925Na0.0075Ag0.97Sb0.99,516,0.000018269,0.0022248,0.00020133,0.91491,1.2578,54737.5335267393,0.0024317146
4120,10.1016/j.nanoen.2014.11.027,11853,2a,14060,x=0.0075,Mg0.9925Na0.0075Ag0.97Sb0.99,516.5,0.000018243,0.0022253,0.00020122,0.91528,1.2589,54815.5456887573,0.0024312779
4120,10.1016/j.nanoen.2014.11.027,11853,2a,14060,x=0.0075,Mg0.9925Na0.0075Ag0.97Sb0.99,517,0.000018217,0.0022258,0.00020112,0.91566,1.2599,54893.7805346654,0.0024308149
4120,10.1016/j.nanoen.2014.11.027,11853,2a,14060,x=0.0075,Mg0.9925Na0.0075Ag0.97Sb0.99,517.5,0.000018191,0.0022263,0.00020102,0.91603,1.2609,54972.2390192953,0.0024303789
4120,10.1016/j.nanoen.2014.11.027,11853,2a,14060,x=0.0075,Mg0.9925Na0.0075Ag0.97Sb0.99,518,0.000018165,0.0022268,0.00020092,0.9164,1.262,55050.9221029452,0.0024299433
4120,10.1016/j.nanoen.2014.11.027,11853,2a,14060,x=0.0075,Mg0.9925Na0.0075Ag0.97Sb0.99,518.5,0.000018139,0.0022272,0.00020081,0.91677,1.263,55129.8307514196,0.0024293989
4120,10.1016/j.nanoen.2014.11.027,11853,2a,14060,x=0.0075,Mg0.9925Na0.0075Ag0.97Sb0.99,519,0.000018113,0.0022277,0.00020071,0.91715,1.2641,55208.965936068,0.0024289375
4120,10.1016/j.nanoen.2014.11.027,11853,2a,14060,x=0.0075,Mg0.9925Na0.0075Ag0.97Sb0.99,519.5,0.000018087,0.0022282,0.00020061,0.91752,1.2651,55288.3286338254,0.0024285029
4120,10.1016/j.nanoen.2014.11.027,11853,2a,14060,x=0.0075,Mg0.9925Na0.0075Ag0.97Sb0.99,520,0.000018062,0.0022287,0.0002005,0.91789,1.2661,55364.8543904329,0.0024280687
4120,10.1016/j.nanoen.2014.11.027,11853,2a,14060,x=0.0075,Mg0.9925Na0.0075Ag0.97Sb0.99,520.5,0.000018036,0.0022292,0.0002004,0.91827,1.2672,55444.6662231093,0.0024276084
4120,10.1016/j.nanoen.2014.11.027,11853,2a,14060,x=0.0075,Mg0.9925Na0.0075Ag0.97Sb0.99,521,0.00001801,0.0022297,0.0002003,0.91864,1.2682,55524.7084952804,0.002427175
4120,10.1016/j.nanoen.2014.11.027,11853,2a,14060,x=0.0075,Mg0.9925Na0.0075Ag0.97Sb0.99,521.5,0.000017984,0.0022302,0.0002002,0.91901,1.2693,55604.9822064057,0.0024267418
4120,10.1016/j.nanoen.2014.11.027,11853,2a,14060,x=0.0075,Mg0.9925Na0.0075Ag0.97Sb0.99,522,0.000017958,0.0022307,0.00020009,0.91938,1.2703,55685.4883617329,0.002426309
4120,10.1016/j.nanoen.2014.11.027,11853,2a,14060,x=0.0075,Mg0.9925Na0.0075Ag0.97Sb0.99,522.5,0.000017932,0.0022312,0.00019999,0.91976,1.2713,55766.2279723399,0.0024258502
4120,10.1016/j.nanoen.2014.11.027,11853,2a,14060,x=0.0075,Mg0.9925Na0.0075Ag0.97Sb0.99,523,0.000017906,0.0022317,0.00019989,0.92013,1.2724,55847.202055177,0.0024254181
4120,10.1016/j.nanoen.2014.11.027,11853,2a,14060,x=0.0075,Mg0.9925Na0.0075Ag0.97Sb0.99,523.5,0.00001788,0.0022322,0.00019978,0.9205,1.2734,55928.4116331096,0.0024249864
4120,10.1016/j.nanoen.2014.11.027,11853,2a,14060,x=0.0075,Mg0.9925Na0.0075Ag0.97Sb0.99,524,0.000017854,0.0022327,0.00019968,0.92088,1.2745,56009.8577349614,0.0024245287
4120,10.1016/j.nanoen.2014.11.027,11853,2a,14060,x=0.0075,Mg0.9925Na0.0075Ag0.97Sb0.99,524.5,0.000017828,0.0022332,0.00019958,0.92125,1.2755,56091.5413955575,0.0024240977
4120,10.1016/j.nanoen.2014.11.027,11853,2a,14060,x=0.0075,Mg0.9925Na0.0075Ag0.97Sb0.99,525,0.000017803,0.0022337,0.00019948,0.92162,1.2766,56170.308374993,0.002423667
4120,10.1016/j.nanoen.2014.11.027,11853,2a,14060,x=0.0075,Mg0.9925Na0.0075Ag0.97Sb0.99,525.5,0.000017777,0.0022342,0.00019937,0.92199,1.2776,56252.4610451707,0.0024232367
4120,10.1016/j.nanoen.2014.11.027,11853,2a,14060,x=0.0075,Mg0.9925Na0.0075Ag0.97Sb0.99,526,0.000017751,0.0022347,0.00019927,0.92237,1.2786,56334.8543744014,0.0024227804
4120,10.1016/j.nanoen.2014.11.027,11853,2a,14060,x=0.0075,Mg0.9925Na0.0075Ag0.97Sb0.99,526.5,0.000017725,0.0022352,0.00019917,0.92274,1.2797,56417.4894217207,0.0024223508
4120,10.1016/j.nanoen.2014.11.027,11853,2a,14060,x=0.0075,Mg0.9925Na0.0075Ag0.97Sb0.99,527,0.000017699,0.0022357,0.00019906,0.92311,1.2807,56500.3672523871,0.0024219215
4120,10.1016/j.nanoen.2014.11.027,11853,2a,14060,x=0.0075,Mg0.9925Na0.0075Ag0.97Sb0.99,527.5,0.000017673,0.0022362,0.00019896,0.92349,1.2818,56583.4889379279,0.0024214664
4120,10.1016/j.nanoen.2014.11.027,11853,2a,14060,x=0.0075,Mg0.9925Na0.0075Ag0.97Sb0.99,528,0.000017647,0.0022367,0.00019886,0.92386,1.2828,56666.8555561852,0.0024210378
4120,10.1016/j.nanoen.2014.11.027,11853,2a,14060,x=0.0075,Mg0.9925Na0.0075Ag0.97Sb0.99,528.5,0.000017621,0.0022372,0.00019876,0.92423,1.2838,56750.4681913626,0.0024206096
4120,10.1016/j.nanoen.2014.11.027,11853,2a,14060,x=0.0075,Mg0.9925Na0.0075Ag0.97Sb0.99,529,0.000017595,0.0022377,0.00019865,0.9246,1.2849,56834.3279340722,0.0024201817
4120,10.1016/j.nanoen.2014.11.027,11853,2a,14060,x=0.0075,Mg0.9925Na0.0075Ag0.97Sb0.99,529.5,0.000017569,0.0022382,0.00019855,0.92498,1.2859,56918.435881382,0.002419728
4120,10.1016/j.nanoen.2014.11.027,11853,2a,14060,x=0.0075,Mg0.9925Na0.0075Ag0.97Sb0.99,530,0.000017544,0.0022387,0.00019845,0.92535,1.287,56999.544003648,0.0024193008
4120,10.1016/j.nanoen.2014.11.027,11853,2a,14060,x=0.0075,Mg0.9925Na0.0075Ag0.97Sb0.99,530.5,0.000017518,0.0022392,0.00019834,0.92572,1.288,57084.1420253454,0.002418874
4120,10.1016/j.nanoen.2014.11.027,11853,2a,14060,x=0.0075,Mg0.9925Na0.0075Ag0.97Sb0.99,531,0.000017492,0.0022397,0.00019824,0.9261,1.289,57168.9915389892,0.0024184213
4120,10.1016/j.nanoen.2014.11.027,11853,2a,14060,x=0.0075,Mg0.9925Na0.0075Ag0.97Sb0.99,531.5,0.000017466,0.0022402,0.00019814,0.92647,1.2901,57254.0936676972,0.0024179952
4120,10.1016/j.nanoen.2014.11.027,11853,2a,14060,x=0.0075,Mg0.9925Na0.0075Ag0.97Sb0.99,532,0.00001744,0.0022407,0.00019803,0.92684,1.2911,57339.4495412844,0.0024175694
4120,10.1016/j.nanoen.2014.11.027,11853,2a,14060,x=0.0075,Mg0.9925Na0.0075Ag0.97Sb0.99,532.5,0.000017414,0.0022411,0.00019793,0.92722,1.2922,57425.0602963133,0.00241701
4120,10.1016/j.nanoen.2014.11.027,11853,2a,14060,x=0.0075,Mg0.9925Na0.0075Ag0.97Sb0.99,533,0.000017388,0.0022416,0.00019783,0.92759,1.2932,57510.9270761445,0.0024165849
4120,10.1016/j.nanoen.2014.11.027,11853,2a,14060,x=0.0075,Mg0.9925Na0.0075Ag0.97Sb0.99,533.5,0.000017362,0.0022421,0.00019773,0.92796,1.2943,57597.0510309872,0.0024161602
4120,10.1016/j.nanoen.2014.11.027,11853,2a,14060,x=0.0075,Mg0.9925Na0.0075Ag0.97Sb0.99,534,0.000017336,0.0022426,0.00019762,0.92833,1.2953,57683.4333179511,0.0024157358
4120,10.1016/j.nanoen.2014.11.027,11853,2a,14060,x=0.0075,Mg0.9925Na0.0075Ag0.97Sb0.99,534.5,0.00001731,0.0022431,0.00019752,0.92871,1.2963,57770.0751010976,0.0024152857
4120,10.1016/j.nanoen.2014.11.027,11853,2a,14060,x=0.0075,Mg0.9925Na0.0075Ag0.97Sb0.99,535,0.000017285,0.0022436,0.00019742,0.92908,1.2974,57853.6303153023,0.002414862
4120,10.1016/j.nanoen.2014.11.027,11853,2a,14060,x=0.0075,Mg0.9925Na0.0075Ag0.97Sb0.99,535.5,0.000017259,0.0022441,0.00019731,0.92945,1.2984,57940.7845182224,0.0024144386
4120,10.1016/j.nanoen.2014.11.027,11853,2a,14060,x=0.0075,Mg0.9925Na0.0075Ag0.97Sb0.99,536,0.000017233,0.0022446,0.00019721,0.92983,1.2995,58028.2017060291,0.0024139897
4120,10.1016/j.nanoen.2014.11.027,11853,2a,14060,x=0.0075,Mg0.9925Na0.0075Ag0.97Sb0.99,536.5,0.000017207,0.0022451,0.00019711,0.9302,1.3005,58115.8830708433,0.002413567
4120,10.1016/j.nanoen.2014.11.027,11853,2a,14060,x=0.0075,Mg0.9925Na0.0075Ag0.97Sb0.99,537,0.000017181,0.0022456,0.00019701,0.93057,1.3015,58203.8298120016,0.0024131446
4120,10.1016/j.nanoen.2014.11.027,11853,2a,14060,x=0.0075,Mg0.9925Na0.0075Ag0.97Sb0.99,537.5,0.000017155,0.0022461,0.0001969,0.93094,1.3026,58292.0431361119,0.0024127226
4120,10.1016/j.nanoen.2014.11.027,11853,2a,14060,x=0.0075,Mg0.9925Na0.0075Ag0.97Sb0.99,538,0.000017129,0.0022466,0.0001968,0.93132,1.3036,58380.5242571078,0.0024122751
4120,10.1016/j.nanoen.2014.11.027,11853,2a,14060,x=0.0075,Mg0.9925Na0.0075Ag0.97Sb0.99,538.5,0.000017103,0.0022471,0.0001967,0.93169,1.3047,58469.2743963047,0.0024118537
4120,10.1016/j.nanoen.2014.11.027,11853,2a,14060,x=0.0075,Mg0.9925Na0.0075Ag0.97Sb0.99,539,0.000017077,0.0022476,0.00019659,0.93206,1.3057,58558.2947824559,0.0024114327
4120,10.1016/j.nanoen.2014.11.027,11853,2a,14060,x=0.0075,Mg0.9925Na0.0075Ag0.97Sb0.99,539.5,0.000017051,0.0022481,0.00019649,0.93244,1.3068,58647.5866518093,0.0024109862
4120,10.1016/j.nanoen.2014.11.027,11853,2a,14060,x=0.0075,Mg0.9925Na0.0075Ag0.97Sb0.99,540,0.000017026,0.0022486,0.00019639,0.93281,1.3078,58733.7013978621,0.0024105659
4120,10.1016/j.nanoen.2014.11.027,11853,2a,14060,x=0.0075,Mg0.9925Na0.0075Ag0.97Sb0.99,540.5,0.000017,0.0022491,0.00019629,0.93318,1.3088,58823.5294117647,0.002410146
4120,10.1016/j.nanoen.2014.11.027,11853,2a,14060,x=0.0075,Mg0.9925Na0.0075Ag0.97Sb0.99,541,0.000016974,0.0022496,0.00019618,0.93355,1.3099,58913.632614587,0.0024097263
4120,10.1016/j.nanoen.2014.11.027,11853,2a,14060,x=0.0075,Mg0.9925Na0.0075Ag0.97Sb0.99,541.5,0.000016948,0.0022501,0.00019608,0.93393,1.3109,59004.0122728346,0.0024092812
4120,10.1016/j.nanoen.2014.11.027,11853,2a,14060,x=0.0075,Mg0.9925Na0.0075Ag0.97Sb0.99,542,0.000016922,0.0022506,0.00019598,0.9343,1.312,59094.6696607966,0.0024088622
4120,10.1016/j.nanoen.2014.11.027,11853,2a,14060,x=0.0075,Mg0.9925Na0.0075Ag0.97Sb0.99,542.5,0.000016896,0.0022511,0.00019587,0.93467,1.313,59185.6060606061,0.0024084436
4120,10.1016/j.nanoen.2014.11.027,11853,2a,14060,x=0.0075,Mg0.9925Na0.0075Ag0.97Sb0.99,543,0.00001687,0.0022516,0.00019577,0.93505,1.314,59276.8227622999,0.0024079996
4120,10.1016/j.nanoen.2014.11.027,11853,2a,14060,x=0.0075,Mg0.9925Na0.0075Ag0.97Sb0.99,543.5,0.000016844,0.0022521,0.00019567,0.93542,1.3151,59368.3210638803,0.0024075816
4120,10.1016/j.nanoen.2014.11.027,11853,2a,14060,x=0.0075,Mg0.9925Na0.0075Ag0.97Sb0.99,544,0.000016818,0.0022526,0.00019557,0.93579,1.3161,59460.1022713759,0.002407164
4120,10.1016/j.nanoen.2014.11.027,11853,2a,14060,x=0.0075,Mg0.9925Na0.0075Ag0.97Sb0.99,544.5,0.000016792,0.0022531,0.00019546,0.93616,1.3172,59552.1676989042,0.0024067467