sid,DOI,figureid,fignum,sampleid,samplename,composition,Temperature,Electrical resistivity,Power factor,Seebeck coefficient,Thermal conductivity,ZT,Electrical conductivity,Figure of merit Z
4120,10.1016/j.nanoen.2014.11.027,11853,2a,14059,x=0.005,Mg0.995Na0.005Ag0.97Sb0.99,432.5,0.000027108,0.0021079,0.00022905,0.84521,1.0771,36889.4791205548,0.0024939364
4120,10.1016/j.nanoen.2014.11.027,11853,2a,14059,x=0.005,Mg0.995Na0.005Ag0.97Sb0.99,433,0.000027073,0.0021084,0.00022893,0.84557,1.0782,36937.1698740443,0.0024934659
4120,10.1016/j.nanoen.2014.11.027,11853,2a,14059,x=0.005,Mg0.995Na0.005Ag0.97Sb0.99,433.5,0.000027039,0.0021089,0.00022881,0.84593,1.0793,36983.6162579977,0.0024929959
4120,10.1016/j.nanoen.2014.11.027,11853,2a,14059,x=0.005,Mg0.995Na0.005Ag0.97Sb0.99,434,0.000027004,0.0021094,0.0002287,0.84629,1.0803,37031.5508813509,0.0024925262
4120,10.1016/j.nanoen.2014.11.027,11853,2a,14059,x=0.005,Mg0.995Na0.005Ag0.97Sb0.99,434.5,0.000026969,0.0021099,0.00022858,0.84665,1.0814,37079.6099225036,0.0024920569
4120,10.1016/j.nanoen.2014.11.027,11853,2a,14059,x=0.005,Mg0.995Na0.005Ag0.97Sb0.99,435,0.000026934,0.0021104,0.00022847,0.84701,1.0824,37127.7938664885,0.0024915881
4120,10.1016/j.nanoen.2014.11.027,11853,2a,14059,x=0.005,Mg0.995Na0.005Ag0.97Sb0.99,435.5,0.000026899,0.0021109,0.00022835,0.84737,1.0835,37176.1032008625,0.0024911196
4120,10.1016/j.nanoen.2014.11.027,11853,2a,14059,x=0.005,Mg0.995Na0.005Ag0.97Sb0.99,436,0.000026864,0.0021114,0.00022824,0.84773,1.0846,37224.5384157236,0.0024906515
4120,10.1016/j.nanoen.2014.11.027,11853,2a,14059,x=0.005,Mg0.995Na0.005Ag0.97Sb0.99,436.5,0.000026828,0.0021119,0.00022812,0.84809,1.0856,37274.489339496,0.0024901838
4120,10.1016/j.nanoen.2014.11.027,11853,2a,14059,x=0.005,Mg0.995Na0.005Ag0.97Sb0.99,437,0.000026793,0.0021124,0.000228,0.84845,1.0867,37323.1814279849,0.0024897165
4120,10.1016/j.nanoen.2014.11.027,11853,2a,14059,x=0.005,Mg0.995Na0.005Ag0.97Sb0.99,437.5,0.000026757,0.0021129,0.00022789,0.84881,1.0877,37373.3976155772,0.0024892497
4120,10.1016/j.nanoen.2014.11.027,11853,2a,14059,x=0.005,Mg0.995Na0.005Ag0.97Sb0.99,438,0.000026721,0.0021134,0.00022777,0.84917,1.0888,37423.749111186,0.0024887832
4120,10.1016/j.nanoen.2014.11.027,11853,2a,14059,x=0.005,Mg0.995Na0.005Ag0.97Sb0.99,438.5,0.000026685,0.0021139,0.00022766,0.84952,1.0899,37474.2364624321,0.0024883464
4120,10.1016/j.nanoen.2014.11.027,11853,2a,14059,x=0.005,Mg0.995Na0.005Ag0.97Sb0.99,439,0.000026649,0.0021144,0.00022754,0.84988,1.0909,37524.8602198957,0.0024878806
4120,10.1016/j.nanoen.2014.11.027,11853,2a,14059,x=0.005,Mg0.995Na0.005Ag0.97Sb0.99,439.5,0.000026613,0.0021149,0.00022743,0.85024,1.092,37575.620937136,0.0024874153
4120,10.1016/j.nanoen.2014.11.027,11853,2a,14059,x=0.005,Mg0.995Na0.005Ag0.97Sb0.99,440,0.000026576,0.0021154,0.00022731,0.8506,1.093,37627.9349789284,0.0024869504
4120,10.1016/j.nanoen.2014.11.027,11853,2a,14059,x=0.005,Mg0.995Na0.005Ag0.97Sb0.99,440.5,0.00002654,0.0021159,0.00022719,0.85096,1.0941,37678.9751318764,0.0024864859
4120,10.1016/j.nanoen.2014.11.027,11853,2a,14059,x=0.005,Mg0.995Na0.005Ag0.97Sb0.99,441,0.000026503,0.0021164,0.00022708,0.85132,1.0952,37731.5775572577,0.0024860217
4120,10.1016/j.nanoen.2014.11.027,11853,2a,14059,x=0.005,Mg0.995Na0.005Ag0.97Sb0.99,441.5,0.000026466,0.0021169,0.00022696,0.85168,1.0962,37784.327061135,0.002485558
4120,10.1016/j.nanoen.2014.11.027,11853,2a,14059,x=0.005,Mg0.995Na0.005Ag0.97Sb0.99,442,0.000026429,0.0021174,0.00022685,0.85204,1.0973,37837.2242612282,0.0024850946
4120,10.1016/j.nanoen.2014.11.027,11853,2a,14059,x=0.005,Mg0.995Na0.005Ag0.97Sb0.99,442.5,0.000026392,0.0021179,0.00022673,0.8524,1.0983,37890.2697787208,0.0024846316
4120,10.1016/j.nanoen.2014.11.027,11853,2a,14059,x=0.005,Mg0.995Na0.005Ag0.97Sb0.99,443,0.000026355,0.0021184,0.00022662,0.85276,1.0994,37943.464238285,0.0024841691
4120,10.1016/j.nanoen.2014.11.027,11853,2a,14059,x=0.005,Mg0.995Na0.005Ag0.97Sb0.99,443.5,0.000026317,0.0021189,0.0002265,0.85312,1.1005,37998.2520804043,0.0024837069
4120,10.1016/j.nanoen.2014.11.027,11853,2a,14059,x=0.005,Mg0.995Na0.005Ag0.97Sb0.99,444,0.00002628,0.0021194,0.00022638,0.85348,1.1015,38051.7503805175,0.0024832451
4120,10.1016/j.nanoen.2014.11.027,11853,2a,14059,x=0.005,Mg0.995Na0.005Ag0.97Sb0.99,444.5,0.000026242,0.0021199,0.00022627,0.85384,1.1026,38106.8516119198,0.0024827837
4120,10.1016/j.nanoen.2014.11.027,11853,2a,14059,x=0.005,Mg0.995Na0.005Ag0.97Sb0.99,445,0.000026204,0.0021204,0.00022615,0.8542,1.1036,38162.1126545566,0.0024823226
4120,10.1016/j.nanoen.2014.11.027,11853,2a,14059,x=0.005,Mg0.995Na0.005Ag0.97Sb0.99,445.5,0.000026166,0.0021209,0.00022604,0.85456,1.1047,38217.5342046931,0.002481862
4120,10.1016/j.nanoen.2014.11.027,11853,2a,14059,x=0.005,Mg0.995Na0.005Ag0.97Sb0.99,446,0.000026128,0.0021214,0.00022592,0.85492,1.1058,38273.1169626454,0.0024814018
4120,10.1016/j.nanoen.2014.11.027,11853,2a,14059,x=0.005,Mg0.995Na0.005Ag0.97Sb0.99,446.5,0.000026089,0.0021219,0.00022581,0.85528,1.1068,38330.3307907547,0.0024809419
4120,10.1016/j.nanoen.2014.11.027,11853,2a,14059,x=0.005,Mg0.995Na0.005Ag0.97Sb0.99,447,0.000026051,0.0021224,0.00022569,0.85563,1.1079,38386.2423707343,0.0024805114
4120,10.1016/j.nanoen.2014.11.027,11853,2a,14059,x=0.005,Mg0.995Na0.005Ag0.97Sb0.99,447.5,0.000026012,0.0021229,0.00022557,0.85599,1.1089,38443.7951714593,0.0024800523
4120,10.1016/j.nanoen.2014.11.027,11853,2a,14059,x=0.005,Mg0.995Na0.005Ag0.97Sb0.99,448,0.000025974,0.0021234,0.00022546,0.85635,1.11,38500.0385000385,0.0024795936
4120,10.1016/j.nanoen.2014.11.027,11853,2a,14059,x=0.005,Mg0.995Na0.005Ag0.97Sb0.99,448.5,0.000025935,0.0021239,0.00022534,0.85671,1.1111,38557.9332947754,0.0024791353
4120,10.1016/j.nanoen.2014.11.027,11853,2a,14059,x=0.005,Mg0.995Na0.005Ag0.97Sb0.99,449,0.000025896,0.0021244,0.00022523,0.85707,1.1121,38616.0024714242,0.0024786774
4120,10.1016/j.nanoen.2014.11.027,11853,2a,14059,x=0.005,Mg0.995Na0.005Ag0.97Sb0.99,449.5,0.000025856,0.0021249,0.00022511,0.85743,1.1132,38675.7425742574,0.0024782198
4120,10.1016/j.nanoen.2014.11.027,11853,2a,14059,x=0.005,Mg0.995Na0.005Ag0.97Sb0.99,450,0.000025817,0.0021254,0.000225,0.85779,1.1142,38734.1674090715,0.0024777626
4120,10.1016/j.nanoen.2014.11.027,11853,2a,14059,x=0.005,Mg0.995Na0.005Ag0.97Sb0.99,450.5,0.000025778,0.0021259,0.00022488,0.85815,1.1153,38792.7690278532,0.0024773058
4120,10.1016/j.nanoen.2014.11.027,11853,2a,14059,x=0.005,Mg0.995Na0.005Ag0.97Sb0.99,451,0.000025738,0.0021264,0.00022476,0.85851,1.1164,38853.0577356438,0.0024768494
4120,10.1016/j.nanoen.2014.11.027,11853,2a,14059,x=0.005,Mg0.995Na0.005Ag0.97Sb0.99,451.5,0.000025698,0.0021269,0.00022465,0.85887,1.1174,38913.5341271694,0.0024763934
4120,10.1016/j.nanoen.2014.11.027,11853,2a,14059,x=0.005,Mg0.995Na0.005Ag0.97Sb0.99,452,0.000025658,0.0021274,0.00022453,0.85923,1.1185,38974.1990802089,0.0024759378
4120,10.1016/j.nanoen.2014.11.027,11853,2a,14059,x=0.005,Mg0.995Na0.005Ag0.97Sb0.99,452.5,0.000025618,0.0021279,0.00022442,0.85959,1.1196,39035.0534780233,0.0024754825
4120,10.1016/j.nanoen.2014.11.027,11853,2a,14059,x=0.005,Mg0.995Na0.005Ag0.97Sb0.99,453,0.000025578,0.0021284,0.0002243,0.85995,1.1206,39096.0982093987,0.0024750276
4120,10.1016/j.nanoen.2014.11.027,11853,2a,14059,x=0.005,Mg0.995Na0.005Ag0.97Sb0.99,453.5,0.000025538,0.0021289,0.00022419,0.86031,1.1217,39157.3341686898,0.0024745731
4120,10.1016/j.nanoen.2014.11.027,11853,2a,14059,x=0.005,Mg0.995Na0.005Ag0.97Sb0.99,454,0.000025497,0.0021294,0.00022407,0.86067,1.1227,39220.3004275013,0.002474119
4120,10.1016/j.nanoen.2014.11.027,11853,2a,14059,x=0.005,Mg0.995Na0.005Ag0.97Sb0.99,454.5,0.000025457,0.0021299,0.00022395,0.86103,1.1238,39281.92638567,0.0024736653
4120,10.1016/j.nanoen.2014.11.027,11853,2a,14059,x=0.005,Mg0.995Na0.005Ag0.97Sb0.99,455,0.000025416,0.0021304,0.00022384,0.86139,1.1249,39345.2943028014,0.0024732119
4120,10.1016/j.nanoen.2014.11.027,11853,2a,14059,x=0.005,Mg0.995Na0.005Ag0.97Sb0.99,455.5,0.000025375,0.0021309,0.00022372,0.86174,1.1259,39408.8669950739,0.0024727876
4120,10.1016/j.nanoen.2014.11.027,11853,2a,14059,x=0.005,Mg0.995Na0.005Ag0.97Sb0.99,456,0.000025334,0.0021315,0.00022361,0.8621,1.127,39472.6454566985,0.002472451
4120,10.1016/j.nanoen.2014.11.027,11853,2a,14059,x=0.005,Mg0.995Na0.005Ag0.97Sb0.99,456.5,0.000025293,0.002132,0.00022349,0.86246,1.128,39536.6306883327,0.0024719987
4120,10.1016/j.nanoen.2014.11.027,11853,2a,14059,x=0.005,Mg0.995Na0.005Ag0.97Sb0.99,457,0.000025251,0.0021325,0.00022338,0.86282,1.1291,39602.3919844759,0.0024715468
4120,10.1016/j.nanoen.2014.11.027,11853,2a,14059,x=0.005,Mg0.995Na0.005Ag0.97Sb0.99,457.5,0.00002521,0.002133,0.00022326,0.86318,1.1302,39666.7988893296,0.0024710953
4120,10.1016/j.nanoen.2014.11.027,11853,2a,14059,x=0.005,Mg0.995Na0.005Ag0.97Sb0.99,458,0.000025168,0.0021335,0.00022314,0.86354,1.1312,39732.9942784488,0.0024706441
4120,10.1016/j.nanoen.2014.11.027,11853,2a,14059,x=0.005,Mg0.995Na0.005Ag0.97Sb0.99,458.5,0.000025127,0.002134,0.00022303,0.8639,1.1323,39797.8270386437,0.0024701933
4120,10.1016/j.nanoen.2014.11.027,11853,2a,14059,x=0.005,Mg0.995Na0.005Ag0.97Sb0.99,459,0.000025085,0.0021345,0.00022291,0.86426,1.1333,39864.4608331672,0.0024697429
4120,10.1016/j.nanoen.2014.11.027,11853,2a,14059,x=0.005,Mg0.995Na0.005Ag0.97Sb0.99,459.5,0.000025043,0.002135,0.0002228,0.86462,1.1344,39931.3181328116,0.0024692929
4120,10.1016/j.nanoen.2014.11.027,11853,2a,14059,x=0.005,Mg0.995Na0.005Ag0.97Sb0.99,460,0.000025,0.0021355,0.00022268,0.86498,1.1355,40000,0.0024688432
4120,10.1016/j.nanoen.2014.11.027,11853,2a,14059,x=0.005,Mg0.995Na0.005Ag0.97Sb0.99,460.5,0.000024958,0.002136,0.00022257,0.86534,1.1365,40067.3130859845,0.0024683939
4120,10.1016/j.nanoen.2014.11.027,11853,2a,14059,x=0.005,Mg0.995Na0.005Ag0.97Sb0.99,461,0.000024915,0.0021365,0.00022245,0.8657,1.1376,40136.4639775236,0.002467945
4120,10.1016/j.nanoen.2014.11.027,11853,2a,14059,x=0.005,Mg0.995Na0.005Ag0.97Sb0.99,461.5,0.000024873,0.002137,0.00022233,0.86606,1.1386,40204.2375266353,0.0024674965
4120,10.1016/j.nanoen.2014.11.027,11853,2a,14059,x=0.005,Mg0.995Na0.005Ag0.97Sb0.99,462,0.00002483,0.0021375,0.00022222,0.86642,1.1397,40273.8622633911,0.0024670483
4120,10.1016/j.nanoen.2014.11.027,11853,2a,14059,x=0.005,Mg0.995Na0.005Ag0.97Sb0.99,462.5,0.000024787,0.002138,0.0002221,0.86678,1.1408,40343.7285673942,0.0024666005
4120,10.1016/j.nanoen.2014.11.027,11853,2a,14059,x=0.005,Mg0.995Na0.005Ag0.97Sb0.99,463,0.000024744,0.0021385,0.00022199,0.86714,1.1418,40413.8376980278,0.0024661531
4120,10.1016/j.nanoen.2014.11.027,11853,2a,14059,x=0.005,Mg0.995Na0.005Ag0.97Sb0.99,463.5,0.000024701,0.002139,0.00022187,0.8675,1.1429,40484.1909234444,0.0024657061
4120,10.1016/j.nanoen.2014.11.027,11853,2a,14059,x=0.005,Mg0.995Na0.005Ag0.97Sb0.99,464,0.000024657,0.0021395,0.00022176,0.86785,1.1439,40556.4342782982,0.0024652878
4120,10.1016/j.nanoen.2014.11.027,11853,2a,14059,x=0.005,Mg0.995Na0.005Ag0.97Sb0.99,464.5,0.000024614,0.00214,0.00022164,0.86821,1.145,40627.2852847973,0.0024648415
4120,10.1016/j.nanoen.2014.11.027,11853,2a,14059,x=0.005,Mg0.995Na0.005Ag0.97Sb0.99,465,0.00002457,0.0021405,0.00022152,0.86857,1.1461,40700.0407000407,0.0024643955
4120,10.1016/j.nanoen.2014.11.027,11853,2a,14059,x=0.005,Mg0.995Na0.005Ag0.97Sb0.99,465.5,0.000024526,0.002141,0.00022141,0.86893,1.1471,40773.0571638261,0.0024639499
4120,10.1016/j.nanoen.2014.11.027,11853,2a,14059,x=0.005,Mg0.995Na0.005Ag0.97Sb0.99,466,0.000024483,0.0021415,0.00022129,0.86929,1.1482,40844.667728628,0.0024635047
4120,10.1016/j.nanoen.2014.11.027,11853,2a,14059,x=0.005,Mg0.995Na0.005Ag0.97Sb0.99,466.5,0.000024438,0.002142,0.00022118,0.86965,1.1492,40919.8788771585,0.0024630599
4120,10.1016/j.nanoen.2014.11.027,11853,2a,14059,x=0.005,Mg0.995Na0.005Ag0.97Sb0.99,467,0.000024394,0.0021425,0.00022106,0.87001,1.1503,40993.6869722063,0.0024626154
4120,10.1016/j.nanoen.2014.11.027,11853,2a,14059,x=0.005,Mg0.995Na0.005Ag0.97Sb0.99,467.5,0.00002435,0.002143,0.00022095,0.87037,1.1514,41067.7618069815,0.0024621713
4120,10.1016/j.nanoen.2014.11.027,11853,2a,14059,x=0.005,Mg0.995Na0.005Ag0.97Sb0.99,468,0.000024305,0.0021435,0.00022083,0.87073,1.1524,41143.7975725159,0.0024617275
4120,10.1016/j.nanoen.2014.11.027,11853,2a,14059,x=0.005,Mg0.995Na0.005Ag0.97Sb0.99,468.5,0.000024261,0.002144,0.00022072,0.87109,1.1535,41218.4163884424,0.0024612841
4120,10.1016/j.nanoen.2014.11.027,11853,2a,14059,x=0.005,Mg0.995Na0.005Ag0.97Sb0.99,469,0.000024216,0.0021445,0.0002206,0.87145,1.1546,41295.0115626032,0.0024608411
4120,10.1016/j.nanoen.2014.11.027,11853,2a,14059,x=0.005,Mg0.995Na0.005Ag0.97Sb0.99,469.5,0.000024171,0.002145,0.00022048,0.87181,1.1556,41371.8919366183,0.0024603985
4120,10.1016/j.nanoen.2014.11.027,11853,2a,14059,x=0.005,Mg0.995Na0.005Ag0.97Sb0.99,470,0.000024126,0.0021455,0.00022037,0.87217,1.1567,41449.0591063583,0.0024599562
4120,10.1016/j.nanoen.2014.11.027,11853,2a,14059,x=0.005,Mg0.995Na0.005Ag0.97Sb0.99,470.5,0.000024081,0.002146,0.00022025,0.87253,1.1577,41526.5146796229,0.0024595143
4120,10.1016/j.nanoen.2014.11.027,11853,2a,14059,x=0.005,Mg0.995Na0.005Ag0.97Sb0.99,471,0.000024035,0.0021465,0.00022014,0.87289,1.1588,41605.9912627418,0.0024590727
4120,10.1016/j.nanoen.2014.11.027,11853,2a,14059,x=0.005,Mg0.995Na0.005Ag0.97Sb0.99,471.5,0.00002399,0.002147,0.00022002,0.87325,1.1599,41684.0350145894,0.0024586315
4120,10.1016/j.nanoen.2014.11.027,11853,2a,14059,x=0.005,Mg0.995Na0.005Ag0.97Sb0.99,472,0.000023944,0.0021475,0.00021991,0.87361,1.1609,41764.1162712997,0.0024581907
4120,10.1016/j.nanoen.2014.11.027,11853,2a,14059,x=0.005,Mg0.995Na0.005Ag0.97Sb0.99,472.5,0.000023898,0.002148,0.00021979,0.87397,1.162,41844.5058163863,0.0024577503
4120,10.1016/j.nanoen.2014.11.027,11853,2a,14059,x=0.005,Mg0.995Na0.005Ag0.97Sb0.99,473,0.000023852,0.0021485,0.00021967,0.87432,1.163,41925.2054335066,0.0024573383
4120,10.1016/j.nanoen.2014.11.027,11853,2a,14059,x=0.005,Mg0.995Na0.005Ag0.97Sb0.99,473.5,0.000023806,0.002149,0.00021956,0.87468,1.1641,42006.2169201042,0.0024568985
4120,10.1016/j.nanoen.2014.11.027,11853,2a,14059,x=0.005,Mg0.995Na0.005Ag0.97Sb0.99,474,0.00002376,0.0021495,0.00021944,0.87504,1.1652,42087.5420875421,0.0024564591
4120,10.1016/j.nanoen.2014.11.027,11853,2a,14059,x=0.005,Mg0.995Na0.005Ag0.97Sb0.99,474.5,0.000023713,0.00215,0.00021933,0.8754,1.1662,42170.9610762029,0.0024560201
4120,10.1016/j.nanoen.2014.11.027,11853,2a,14059,x=0.005,Mg0.995Na0.005Ag0.97Sb0.99,475,0.000023667,0.0021505,0.00021921,0.87576,1.1673,42252.9260151265,0.0024555814
4120,10.1016/j.nanoen.2014.11.027,11853,2a,14059,x=0.005,Mg0.995Na0.005Ag0.97Sb0.99,475.5,0.00002362,0.002151,0.0002191,0.87612,1.1683,42337.0025402201,0.0024551431
4120,10.1016/j.nanoen.2014.11.027,11853,2a,14059,x=0.005,Mg0.995Na0.005Ag0.97Sb0.99,476,0.000023573,0.0021515,0.00021898,0.87648,1.1694,42421.4143299538,0.0024547052
4120,10.1016/j.nanoen.2014.11.027,11853,2a,14059,x=0.005,Mg0.995Na0.005Ag0.97Sb0.99,476.5,0.000023526,0.002152,0.00021886,0.87684,1.1705,42506.1633936921,0.0024542676
4120,10.1016/j.nanoen.2014.11.027,11853,2a,14059,x=0.005,Mg0.995Na0.005Ag0.97Sb0.99,477,0.000023479,0.0021525,0.00021875,0.8772,1.1715,42591.2517568891,0.0024538304
4120,10.1016/j.nanoen.2014.11.027,11853,2a,14059,x=0.005,Mg0.995Na0.005Ag0.97Sb0.99,477.5,0.000023432,0.002153,0.00021863,0.87756,1.1726,42676.6814612496,0.0024533935
4120,10.1016/j.nanoen.2014.11.027,11853,2a,14059,x=0.005,Mg0.995Na0.005Ag0.97Sb0.99,478,0.000023385,0.0021535,0.00021852,0.87792,1.1736,42762.454564892,0.002452957
4120,10.1016/j.nanoen.2014.11.027,11853,2a,14059,x=0.005,Mg0.995Na0.005Ag0.97Sb0.99,478.5,0.000023337,0.002154,0.0002184,0.87828,1.1747,42850.4092214081,0.0024525208
4120,10.1016/j.nanoen.2014.11.027,11853,2a,14059,x=0.005,Mg0.995Na0.005Ag0.97Sb0.99,479,0.000023289,0.0021545,0.00021829,0.87864,1.1758,42938.7264373739,0.002452085
4120,10.1016/j.nanoen.2014.11.027,11853,2a,14059,x=0.005,Mg0.995Na0.005Ag0.97Sb0.99,479.5,0.000023242,0.002155,0.00021817,0.879,1.1768,43025.5571809655,0.0024516496
4120,10.1016/j.nanoen.2014.11.027,11853,2a,14059,x=0.005,Mg0.995Na0.005Ag0.97Sb0.99,480,0.000023194,0.0021555,0.00021805,0.87936,1.1779,43114.598603087,0.0024512145
4120,10.1016/j.nanoen.2014.11.027,11853,2a,14059,x=0.005,Mg0.995Na0.005Ag0.97Sb0.99,480.5,0.000023145,0.002156,0.00021794,0.87972,1.1789,43205.8759991359,0.0024507798
4120,10.1016/j.nanoen.2014.11.027,11853,2a,14059,x=0.005,Mg0.995Na0.005Ag0.97Sb0.99,481,0.000023097,0.0021565,0.00021782,0.88008,1.18,43295.666103823,0.0024503454
4120,10.1016/j.nanoen.2014.11.027,11853,2a,14059,x=0.005,Mg0.995Na0.005Ag0.97Sb0.99,481.5,0.000023049,0.002157,0.00021771,0.88043,1.1811,43385.8301878606,0.0024499392
4120,10.1016/j.nanoen.2014.11.027,11853,2a,14059,x=0.005,Mg0.995Na0.005Ag0.97Sb0.99,482,0.000023,0.0021575,0.00021759,0.88079,1.1821,43478.2608695652,0.0024495056
4120,10.1016/j.nanoen.2014.11.027,11853,2a,14059,x=0.005,Mg0.995Na0.005Ag0.97Sb0.99,482.5,0.000022952,0.002158,0.00021748,0.88115,1.1832,43569.1878703381,0.0024490722
4120,10.1016/j.nanoen.2014.11.027,11853,2a,14059,x=0.005,Mg0.995Na0.005Ag0.97Sb0.99,483,0.000022903,0.0021585,0.00021736,0.88151,1.1842,43662.4023053748,0.0024486393
4120,10.1016/j.nanoen.2014.11.027,11853,2a,14059,x=0.005,Mg0.995Na0.005Ag0.97Sb0.99,483.5,0.000022854,0.0021591,0.00021724,0.88187,1.1853,43756.0164522622,0.00244832
4120,10.1016/j.nanoen.2014.11.027,11853,2a,14059,x=0.005,Mg0.995Na0.005Ag0.97Sb0.99,484,0.000022805,0.0021596,0.00021713,0.88223,1.1864,43850.0328875247,0.0024478877
4120,10.1016/j.nanoen.2014.11.027,11853,2a,14059,x=0.005,Mg0.995Na0.005Ag0.97Sb0.99,484.5,0.000022755,0.0021601,0.00021701,0.88259,1.1874,43946.3854098,0.0024474558
4120,10.1016/j.nanoen.2014.11.027,11853,2a,14059,x=0.005,Mg0.995Na0.005Ag0.97Sb0.99,485,0.000022706,0.0021606,0.0002169,0.88295,1.1885,44041.2225843389,0.0024470242
4120,10.1016/j.nanoen.2014.11.027,11853,2a,14059,x=0.005,Mg0.995Na0.005Ag0.97Sb0.99,485.5,0.000022656,0.0021611,0.00021678,0.88331,1.1896,44138.418079096,0.0024465929
4120,10.1016/j.nanoen.2014.11.027,11853,2a,14059,x=0.005,Mg0.995Na0.005Ag0.97Sb0.99,486,0.000022607,0.0021616,0.00021667,0.88367,1.1906,44234.0867872783,0.002446162
4120,10.1016/j.nanoen.2014.11.027,11853,2a,14059,x=0.005,Mg0.995Na0.005Ag0.97Sb0.99,486.5,0.000022557,0.0021621,0.00021655,0.88403,1.1917,44332.1363656515,0.0024457315
4120,10.1016/j.nanoen.2014.11.027,11853,2a,14059,x=0.005,Mg0.995Na0.005Ag0.97Sb0.99,487,0.000022507,0.0021626,0.00021643,0.88439,1.1927,44430.621584396,0.0024453013
4120,10.1016/j.nanoen.2014.11.027,11853,2a,14059,x=0.005,Mg0.995Na0.005Ag0.97Sb0.99,487.5,0.000022457,0.0021631,0.00021632,0.88475,1.1938,44529.5453533419,0.0024448714
4120,10.1016/j.nanoen.2014.11.027,11853,2a,14059,x=0.005,Mg0.995Na0.005Ag0.97Sb0.99,488,0.000022406,0.0021636,0.0002162,0.88511,1.1949,44630.9024368473,0.0024444419
4120,10.1016/j.nanoen.2014.11.027,11853,2a,14059,x=0.005,Mg0.995Na0.005Ag0.97Sb0.99,488.5,0.000022356,0.0021641,0.00021609,0.88547,1.1959,44730.7210592235,0.0024440128
4120,10.1016/j.nanoen.2014.11.027,11853,2a,14059,x=0.005,Mg0.995Na0.005Ag0.97Sb0.99,489,0.000022305,0.0021646,0.00021597,0.88583,1.197,44832.9970858552,0.002443584
4120,10.1016/j.nanoen.2014.11.027,11853,2a,14059,x=0.005,Mg0.995Na0.005Ag0.97Sb0.99,489.5,0.000022255,0.0021651,0.00021586,0.88619,1.198,44933.7227589306,0.0024431555
4120,10.1016/j.nanoen.2014.11.027,11853,2a,14059,x=0.005,Mg0.995Na0.005Ag0.97Sb0.99,490,0.000022204,0.0021656,0.00021574,0.88654,1.1991,45036.9302828319,0.002442755
4120,10.1016/j.nanoen.2014.11.027,11853,2a,14059,x=0.005,Mg0.995Na0.005Ag0.97Sb0.99,490.5,0.000022153,0.0021661,0.00021562,0.8869,1.2002,45140.6130095247,0.0024423272
4120,10.1016/j.nanoen.2014.11.027,11853,2a,14059,x=0.005,Mg0.995Na0.005Ag0.97Sb0.99,491,0.000022102,0.0021666,0.00021551,0.88726,1.2012,45244.7742285766,0.0024418998
4120,10.1016/j.nanoen.2014.11.027,11853,2a,14059,x=0.005,Mg0.995Na0.005Ag0.97Sb0.99,491.5,0.00002205,0.0021671,0.00021539,0.88762,1.2023,45351.4739229025,0.0024414727