sid,DOI,figureid,fignum,sampleid,samplename,composition,Temperature,Electrical resistivity,Power factor,Seebeck coefficient,Thermal conductivity,ZT,Electrical conductivity,Figure of merit Z
4120,10.1016/j.nanoen.2014.11.027,11853,2a,14059,x=0.005,Mg0.995Na0.005Ag0.97Sb0.99,492,0.000021999,0.0021676,0.00021528,0.88798,1.2033,45456.6116641666,0.002441046
4120,10.1016/j.nanoen.2014.11.027,11853,2a,14059,x=0.005,Mg0.995Na0.005Ag0.97Sb0.99,492.5,0.000021947,0.0021681,0.00021516,0.88834,1.2044,45564.3140292523,0.0024406196
4120,10.1016/j.nanoen.2014.11.027,11853,2a,14059,x=0.005,Mg0.995Na0.005Ag0.97Sb0.99,493,0.000021895,0.0021686,0.00021505,0.8887,1.2055,45672.5279744234,0.0024401935
4120,10.1016/j.nanoen.2014.11.027,11853,2a,14059,x=0.005,Mg0.995Na0.005Ag0.97Sb0.99,493.5,0.000021844,0.0021691,0.00021493,0.88906,1.2065,45779.1613257645,0.0024397678
4120,10.1016/j.nanoen.2014.11.027,11853,2a,14059,x=0.005,Mg0.995Na0.005Ag0.97Sb0.99,494,0.000021792,0.0021696,0.00021481,0.88942,1.2076,45888.3994126285,0.0024393425
4120,10.1016/j.nanoen.2014.11.027,11853,2a,14059,x=0.005,Mg0.995Na0.005Ag0.97Sb0.99,494.5,0.000021739,0.0021701,0.0002147,0.88978,1.2086,46000.276001656,0.0024389175
4120,10.1016/j.nanoen.2014.11.027,11853,2a,14059,x=0.005,Mg0.995Na0.005Ag0.97Sb0.99,495,0.000021687,0.0021706,0.00021458,0.89014,1.2097,46110.5731544243,0.0024384928
4120,10.1016/j.nanoen.2014.11.027,11853,2a,14059,x=0.005,Mg0.995Na0.005Ag0.97Sb0.99,495.5,0.000021635,0.0021711,0.00021447,0.8905,1.2108,46221.4005084354,0.0024380685
4120,10.1016/j.nanoen.2014.11.027,11853,2a,14059,x=0.005,Mg0.995Na0.005Ag0.97Sb0.99,496,0.000021582,0.0021716,0.00021435,0.89086,1.2118,46334.9087202298,0.0024376445
4120,10.1016/j.nanoen.2014.11.027,11853,2a,14059,x=0.005,Mg0.995Na0.005Ag0.97Sb0.99,496.5,0.000021529,0.0021721,0.00021424,0.89122,1.2129,46448.9758000836,0.0024372209
4120,10.1016/j.nanoen.2014.11.027,11853,2a,14059,x=0.005,Mg0.995Na0.005Ag0.97Sb0.99,497,0.000021476,0.0021726,0.00021412,0.89158,1.2139,46563.6058856398,0.0024367976
4120,10.1016/j.nanoen.2014.11.027,11853,2a,14059,x=0.005,Mg0.995Na0.005Ag0.97Sb0.99,497.5,0.000021423,0.0021731,0.000214,0.89194,1.215,46678.8031554871,0.0024363746
4120,10.1016/j.nanoen.2014.11.027,11853,2a,14059,x=0.005,Mg0.995Na0.005Ag0.97Sb0.99,498,0.00002137,0.0021736,0.00021389,0.8923,1.2161,46794.5718296678,0.002435952
4120,10.1016/j.nanoen.2014.11.027,11853,2a,14059,x=0.005,Mg0.995Na0.005Ag0.97Sb0.99,498.5,0.000021317,0.0021741,0.00021377,0.89265,1.2171,46910.9161701928,0.002435557
4120,10.1016/j.nanoen.2014.11.027,11853,2a,14059,x=0.005,Mg0.995Na0.005Ag0.97Sb0.99,499,0.000021263,0.0021746,0.00021366,0.89301,1.2182,47030.0522033579,0.0024351351
4120,10.1016/j.nanoen.2014.11.027,11853,2a,14059,x=0.005,Mg0.995Na0.005Ag0.97Sb0.99,499.5,0.00002121,0.0021751,0.00021354,0.89337,1.2192,47147.5719000472,0.0024347135
4120,10.1016/j.nanoen.2014.11.027,11853,2a,14059,x=0.005,Mg0.995Na0.005Ag0.97Sb0.99,500,0.000021156,0.0021756,0.00021343,0.89373,1.2203,47267.9145396105,0.0024342922
4120,10.1016/j.nanoen.2014.11.027,11853,2a,14059,x=0.005,Mg0.995Na0.005Ag0.97Sb0.99,500.5,0.000021102,0.0021761,0.00021331,0.89409,1.2214,47388.8730925979,0.0024338713
4120,10.1016/j.nanoen.2014.11.027,11853,2a,14059,x=0.005,Mg0.995Na0.005Ag0.97Sb0.99,501,0.000021048,0.0021766,0.00021319,0.89445,1.2224,47510.4522995059,0.0024334507
4120,10.1016/j.nanoen.2014.11.027,11853,2a,14059,x=0.005,Mg0.995Na0.005Ag0.97Sb0.99,501.5,0.000020994,0.0021771,0.00021308,0.89481,1.2235,47632.6569496047,0.0024330305
4120,10.1016/j.nanoen.2014.11.027,11853,2a,14059,x=0.005,Mg0.995Na0.005Ag0.97Sb0.99,502,0.00002094,0.0021776,0.00021296,0.89517,1.2246,47755.4918815664,0.0024326106
4120,10.1016/j.nanoen.2014.11.027,11853,2a,14059,x=0.005,Mg0.995Na0.005Ag0.97Sb0.99,502.5,0.000020885,0.0021781,0.00021285,0.89553,1.2256,47881.2544888676,0.002432191
4120,10.1016/j.nanoen.2014.11.027,11853,2a,14059,x=0.005,Mg0.995Na0.005Ag0.97Sb0.99,503,0.000020831,0.0021786,0.00021273,0.89589,1.2267,48005.3766021794,0.0024317718
4120,10.1016/j.nanoen.2014.11.027,11853,2a,14059,x=0.005,Mg0.995Na0.005Ag0.97Sb0.99,503.5,0.000020776,0.0021791,0.00021262,0.89625,1.2277,48132.4605313824,0.0024313529
4120,10.1016/j.nanoen.2014.11.027,11853,2a,14059,x=0.005,Mg0.995Na0.005Ag0.97Sb0.99,504,0.000020721,0.0021796,0.0002125,0.89661,1.2288,48260.2191013947,0.0024309343
4120,10.1016/j.nanoen.2014.11.027,11853,2a,14059,x=0.005,Mg0.995Na0.005Ag0.97Sb0.99,504.5,0.000020666,0.0021801,0.00021238,0.89697,1.2299,48388.6576986354,0.0024305161
4120,10.1016/j.nanoen.2014.11.027,11853,2a,14059,x=0.005,Mg0.995Na0.005Ag0.97Sb0.99,505,0.000020611,0.0021806,0.00021227,0.89733,1.2309,48517.7817670176,0.0024300982
4120,10.1016/j.nanoen.2014.11.027,11853,2a,14059,x=0.005,Mg0.995Na0.005Ag0.97Sb0.99,505.5,0.000020555,0.0021811,0.00021215,0.89769,1.232,48649.9635125274,0.0024296806
4120,10.1016/j.nanoen.2014.11.027,11853,2a,14059,x=0.005,Mg0.995Na0.005Ag0.97Sb0.99,506,0.0000205,0.0021816,0.00021204,0.89805,1.233,48780.487804878,0.0024292634
4120,10.1016/j.nanoen.2014.11.027,11853,2a,14059,x=0.005,Mg0.995Na0.005Ag0.97Sb0.99,506.5,0.000020444,0.0021821,0.00021192,0.89841,1.2341,48914.1068284093,0.0024288465
4120,10.1016/j.nanoen.2014.11.027,11853,2a,14059,x=0.005,Mg0.995Na0.005Ag0.97Sb0.99,507,0.000020388,0.0021826,0.00021181,0.89876,1.2352,49048.4598783598,0.002428457
4120,10.1016/j.nanoen.2014.11.027,11853,2a,14059,x=0.005,Mg0.995Na0.005Ag0.97Sb0.99,507.5,0.000020333,0.0021831,0.00021169,0.89912,1.2362,49181.1341169527,0.0024280408
4120,10.1016/j.nanoen.2014.11.027,11853,2a,14059,x=0.005,Mg0.995Na0.005Ag0.97Sb0.99,508,0.000020276,0.0021836,0.00021157,0.89948,1.2373,49319.3923850858,0.0024276248
4120,10.1016/j.nanoen.2014.11.027,11853,2a,14059,x=0.005,Mg0.995Na0.005Ag0.97Sb0.99,508.5,0.00002022,0.0021841,0.00021146,0.89984,1.2383,49455.9841740851,0.0024272093
4120,10.1016/j.nanoen.2014.11.027,11853,2a,14059,x=0.005,Mg0.995Na0.005Ag0.97Sb0.99,509,0.000020164,0.0021846,0.00021134,0.9002,1.2394,49593.3346558223,0.002426794
4120,10.1016/j.nanoen.2014.11.027,11853,2a,14059,x=0.005,Mg0.995Na0.005Ag0.97Sb0.99,509.5,0.000020107,0.0021851,0.00021123,0.90056,1.2405,49733.9235092256,0.0024263791
4120,10.1016/j.nanoen.2014.11.027,11853,2a,14059,x=0.005,Mg0.995Na0.005Ag0.97Sb0.99,510,0.000020051,0.0021856,0.00021111,0.90092,1.2415,49872.82429804,0.0024259646
4120,10.1016/j.nanoen.2014.11.027,11853,2a,14059,x=0.005,Mg0.995Na0.005Ag0.97Sb0.99,510.5,0.000019994,0.0021861,0.000211,0.90128,1.2426,50015.0045013504,0.0024255503
4120,10.1016/j.nanoen.2014.11.027,11853,2a,14059,x=0.005,Mg0.995Na0.005Ag0.97Sb0.99,511,0.000019937,0.0021866,0.00021088,0.90164,1.2436,50157.9976927321,0.0024251364
4120,10.1016/j.nanoen.2014.11.027,11853,2a,14059,x=0.005,Mg0.995Na0.005Ag0.97Sb0.99,511.5,0.00001988,0.0021872,0.00021076,0.902,1.2447,50301.8108651911,0.0024248337
4120,10.1016/j.nanoen.2014.11.027,11853,2a,14059,x=0.005,Mg0.995Na0.005Ag0.97Sb0.99,512,0.000019823,0.0021877,0.00021065,0.90236,1.2458,50446.4510921657,0.0024244204
4120,10.1016/j.nanoen.2014.11.027,11853,2a,14059,x=0.005,Mg0.995Na0.005Ag0.97Sb0.99,512.5,0.000019765,0.0021882,0.00021053,0.90272,1.2468,50594.4852011131,0.0024240074
4120,10.1016/j.nanoen.2014.11.027,11853,2a,14059,x=0.005,Mg0.995Na0.005Ag0.97Sb0.99,513,0.000019708,0.0021887,0.00021042,0.90308,1.2479,50740.8159123199,0.0024235948
4120,10.1016/j.nanoen.2014.11.027,11853,2a,14059,x=0.005,Mg0.995Na0.005Ag0.97Sb0.99,513.5,0.00001965,0.0021892,0.0002103,0.90344,1.2489,50890.5852417303,0.0024231825
4120,10.1016/j.nanoen.2014.11.027,11853,2a,14059,x=0.005,Mg0.995Na0.005Ag0.97Sb0.99,514,0.000019593,0.0021897,0.00021019,0.9038,1.25,51038.6362476395,0.0024227705
4120,10.1016/j.nanoen.2014.11.027,11853,2a,14059,x=0.005,Mg0.995Na0.005Ag0.97Sb0.99,514.5,0.000019535,0.0021902,0.00021007,0.90416,1.2511,51190.1714870745,0.0024223589
4120,10.1016/j.nanoen.2014.11.027,11853,2a,14059,x=0.005,Mg0.995Na0.005Ag0.97Sb0.99,515,0.000019477,0.0021907,0.00020995,0.90452,1.2521,51342.6092314011,0.0024219476
4120,10.1016/j.nanoen.2014.11.027,11853,2a,14059,x=0.005,Mg0.995Na0.005Ag0.97Sb0.99,515.5,0.000019418,0.0021912,0.00020984,0.90487,1.2532,51498.6095375425,0.0024215633
4120,10.1016/j.nanoen.2014.11.027,11853,2a,14059,x=0.005,Mg0.995Na0.005Ag0.97Sb0.99,516,0.00001936,0.0021917,0.00020972,0.90523,1.2542,51652.8925619835,0.0024211526
4120,10.1016/j.nanoen.2014.11.027,11853,2a,14059,x=0.005,Mg0.995Na0.005Ag0.97Sb0.99,516.5,0.000019301,0.0021922,0.00020961,0.90559,1.2553,51810.7870058546,0.0024207423
4120,10.1016/j.nanoen.2014.11.027,11853,2a,14059,x=0.005,Mg0.995Na0.005Ag0.97Sb0.99,517,0.000019243,0.0021927,0.00020949,0.90595,1.2564,51966.949020423,0.0024203322
4120,10.1016/j.nanoen.2014.11.027,11853,2a,14059,x=0.005,Mg0.995Na0.005Ag0.97Sb0.99,517.5,0.000019184,0.0021932,0.00020938,0.90631,1.2574,52126.7723102585,0.0024199225
4120,10.1016/j.nanoen.2014.11.027,11853,2a,14059,x=0.005,Mg0.995Na0.005Ag0.97Sb0.99,518,0.000019125,0.0021937,0.00020926,0.90667,1.2585,52287.5816993464,0.0024195132
4120,10.1016/j.nanoen.2014.11.027,11853,2a,14059,x=0.005,Mg0.995Na0.005Ag0.97Sb0.99,518.5,0.000019066,0.0021942,0.00020914,0.90703,1.2596,52449.3863421798,0.0024191041
4120,10.1016/j.nanoen.2014.11.027,11853,2a,14059,x=0.005,Mg0.995Na0.005Ag0.97Sb0.99,519,0.000019007,0.0021947,0.00020903,0.90739,1.2606,52612.1955069185,0.0024186954
4120,10.1016/j.nanoen.2014.11.027,11853,2a,14059,x=0.005,Mg0.995Na0.005Ag0.97Sb0.99,519.5,0.000018947,0.0021952,0.00020891,0.90775,1.2617,52778.8040323006,0.002418287
4120,10.1016/j.nanoen.2014.11.027,11853,2a,14059,x=0.005,Mg0.995Na0.005Ag0.97Sb0.99,520,0.000018888,0.0021957,0.0002088,0.90811,1.2627,52943.6679373147,0.0024178789
4120,10.1016/j.nanoen.2014.11.027,11853,2a,14059,x=0.005,Mg0.995Na0.005Ag0.97Sb0.99,520.5,0.000018828,0.0021962,0.00020868,0.90847,1.2638,53112.3858083705,0.0024174711
4120,10.1016/j.nanoen.2014.11.027,11853,2a,14059,x=0.005,Mg0.995Na0.005Ag0.97Sb0.99,521,0.000018768,0.0021967,0.00020857,0.90883,1.2649,53282.1824381927,0.0024170637
4120,10.1016/j.nanoen.2014.11.027,11853,2a,14059,x=0.005,Mg0.995Na0.005Ag0.97Sb0.99,521.5,0.000018708,0.0021972,0.00020845,0.90919,1.2659,53453.068206115,0.0024166566
4120,10.1016/j.nanoen.2014.11.027,11853,2a,14059,x=0.005,Mg0.995Na0.005Ag0.97Sb0.99,522,0.000018648,0.0021977,0.00020833,0.90955,1.267,53625.0536250536,0.0024162498
4120,10.1016/j.nanoen.2014.11.027,11853,2a,14059,x=0.005,Mg0.995Na0.005Ag0.97Sb0.99,522.5,0.000018588,0.0021982,0.00020822,0.90991,1.268,53798.1493436626,0.0024158433
4120,10.1016/j.nanoen.2014.11.027,11853,2a,14059,x=0.005,Mg0.995Na0.005Ag0.97Sb0.99,523,0.000018528,0.0021987,0.0002081,0.91027,1.2691,53972.366148532,0.0024154372
4120,10.1016/j.nanoen.2014.11.027,11853,2a,14059,x=0.005,Mg0.995Na0.005Ag0.97Sb0.99,523.5,0.000018467,0.0021992,0.00020799,0.91063,1.2702,54150.6471002328,0.0024150314
4120,10.1016/j.nanoen.2014.11.027,11853,2a,14059,x=0.005,Mg0.995Na0.005Ag0.97Sb0.99,524,0.000018406,0.0021997,0.00020787,0.91098,1.2712,54330.1097468217,0.0024146524
4120,10.1016/j.nanoen.2014.11.027,11853,2a,14059,x=0.005,Mg0.995Na0.005Ag0.97Sb0.99,524.5,0.000018346,0.0022002,0.00020776,0.91134,1.2723,54507.7946146299,0.0024142472
4120,10.1016/j.nanoen.2014.11.027,11853,2a,14059,x=0.005,Mg0.995Na0.005Ag0.97Sb0.99,525,0.000018285,0.0022007,0.00020764,0.9117,1.2733,54689.6363139185,0.0024138423
4120,10.1016/j.nanoen.2014.11.027,11853,2a,14059,x=0.005,Mg0.995Na0.005Ag0.97Sb0.99,525.5,0.000018224,0.0022012,0.00020752,0.91206,1.2744,54872.6953467954,0.0024134377
4120,10.1016/j.nanoen.2014.11.027,11853,2a,14059,x=0.005,Mg0.995Na0.005Ag0.97Sb0.99,526,0.000018162,0.0022017,0.00020741,0.91242,1.2755,55060.0154168043,0.0024130335
4120,10.1016/j.nanoen.2014.11.027,11853,2a,14059,x=0.005,Mg0.995Na0.005Ag0.97Sb0.99,526.5,0.000018101,0.0022022,0.00020729,0.91278,1.2765,55245.5665432849,0.0024126295
4120,10.1016/j.nanoen.2014.11.027,11853,2a,14059,x=0.005,Mg0.995Na0.005Ag0.97Sb0.99,527,0.000018039,0.0022027,0.00020718,0.91314,1.2776,55435.445423804,0.0024122259
4120,10.1016/j.nanoen.2014.11.027,11853,2a,14059,x=0.005,Mg0.995Na0.005Ag0.97Sb0.99,527.5,0.000017978,0.0022032,0.00020706,0.9135,1.2786,55623.5398820781,0.0024118227
4120,10.1016/j.nanoen.2014.11.027,11853,2a,14059,x=0.005,Mg0.995Na0.005Ag0.97Sb0.99,528,0.000017916,0.0022037,0.00020695,0.91386,1.2797,55816.0303639205,0.0024114197
4120,10.1016/j.nanoen.2014.11.027,11853,2a,14059,x=0.005,Mg0.995Na0.005Ag0.97Sb0.99,528.5,0.000017854,0.0022042,0.00020683,0.91422,1.2808,56009.8577349614,0.002411017
4120,10.1016/j.nanoen.2014.11.027,11853,2a,14059,x=0.005,Mg0.995Na0.005Ag0.97Sb0.99,529,0.000017792,0.0022047,0.00020671,0.91458,1.2818,56205.035971223,0.0024106147
4120,10.1016/j.nanoen.2014.11.027,11853,2a,14059,x=0.005,Mg0.995Na0.005Ag0.97Sb0.99,529.5,0.00001773,0.0022052,0.0002066,0.91494,1.2829,56401.5792442188,0.0024102127
4120,10.1016/j.nanoen.2014.11.027,11853,2a,14059,x=0.005,Mg0.995Na0.005Ag0.97Sb0.99,530,0.000017667,0.0022057,0.00020648,0.9153,1.2839,56602.7056093281,0.002409811
4120,10.1016/j.nanoen.2014.11.027,11853,2a,14059,x=0.005,Mg0.995Na0.005Ag0.97Sb0.99,530.5,0.000017605,0.0022062,0.00020637,0.91566,1.285,56802.0448736155,0.0024094096
4120,10.1016/j.nanoen.2014.11.027,11853,2a,14059,x=0.005,Mg0.995Na0.005Ag0.97Sb0.99,531,0.000017542,0.0022067,0.00020625,0.91602,1.2861,57006.0426405199,0.0024090085
4120,10.1016/j.nanoen.2014.11.027,11853,2a,14059,x=0.005,Mg0.995Na0.005Ag0.97Sb0.99,531.5,0.000017479,0.0022072,0.00020614,0.91638,1.2871,57211.5109560043,0.0024086078
4120,10.1016/j.nanoen.2014.11.027,11853,2a,14059,x=0.005,Mg0.995Na0.005Ag0.97Sb0.99,532,0.000017416,0.0022077,0.00020602,0.91674,1.2882,57418.4657785944,0.0024082073
4120,10.1016/j.nanoen.2014.11.027,11853,2a,14059,x=0.005,Mg0.995Na0.005Ag0.97Sb0.99,532.5,0.000017353,0.0022082,0.0002059,0.9171,1.2892,57626.9232985651,0.0024078072
4120,10.1016/j.nanoen.2014.11.027,11853,2a,14059,x=0.005,Mg0.995Na0.005Ag0.97Sb0.99,533,0.00001729,0.0022087,0.00020579,0.91745,1.2903,57836.8999421631,0.0024074336
4120,10.1016/j.nanoen.2014.11.027,11853,2a,14059,x=0.005,Mg0.995Na0.005Ag0.97Sb0.99,533.5,0.000017226,0.0022092,0.00020567,0.91781,1.2914,58051.7821897132,0.0024070341
4120,10.1016/j.nanoen.2014.11.027,11853,2a,14059,x=0.005,Mg0.995Na0.005Ag0.97Sb0.99,534,0.000017163,0.0022097,0.00020556,0.91817,1.2924,58264.8721086057,0.0024066349
4120,10.1016/j.nanoen.2014.11.027,11853,2a,14059,x=0.005,Mg0.995Na0.005Ag0.97Sb0.99,534.5,0.000017099,0.0022102,0.00020544,0.91853,1.2935,58482.952219428,0.0024062361
4120,10.1016/j.nanoen.2014.11.027,11853,2a,14059,x=0.005,Mg0.995Na0.005Ag0.97Sb0.99,535,0.000017035,0.0022107,0.00020533,0.91889,1.2945,58702.6709715292,0.0024058375
4120,10.1016/j.nanoen.2014.11.027,11853,2a,14059,x=0.005,Mg0.995Na0.005Ag0.97Sb0.99,535.5,0.000016971,0.0022112,0.00020521,0.91925,1.2956,58924.0469035413,0.0024054392
4120,10.1016/j.nanoen.2014.11.027,11853,2a,14059,x=0.005,Mg0.995Na0.005Ag0.97Sb0.99,536,0.000016907,0.0022117,0.00020509,0.91961,1.2967,59147.0988348022,0.0024050413
4120,10.1016/j.nanoen.2014.11.027,11853,2a,14059,x=0.005,Mg0.995Na0.005Ag0.97Sb0.99,536.5,0.000016843,0.0022122,0.00020498,0.91997,1.2977,59371.8458706881,0.0024046436
4120,10.1016/j.nanoen.2014.11.027,11853,2a,14059,x=0.005,Mg0.995Na0.005Ag0.97Sb0.99,537,0.000016778,0.0022127,0.00020486,0.92033,1.2988,59601.8595780188,0.0024042463
4120,10.1016/j.nanoen.2014.11.027,11853,2a,14059,x=0.005,Mg0.995Na0.005Ag0.97Sb0.99,537.5,0.000016714,0.0022132,0.00020475,0.92069,1.2999,59830.0825655139,0.0024038493
4120,10.1016/j.nanoen.2014.11.027,11853,2a,14059,x=0.005,Mg0.995Na0.005Ag0.97Sb0.99,538,0.000016649,0.0022137,0.00020463,0.92105,1.3009,60063.6674875368,0.0024034526
4120,10.1016/j.nanoen.2014.11.027,11853,2a,14059,x=0.005,Mg0.995Na0.005Ag0.97Sb0.99,538.5,0.000016584,0.0022142,0.00020452,0.92141,1.302,60299.0834539315,0.0024030562
4120,10.1016/j.nanoen.2014.11.027,11853,2a,14059,x=0.005,Mg0.995Na0.005Ag0.97Sb0.99,539,0.000016519,0.0022148,0.0002044,0.92177,1.303,60536.3520794237,0.0024027686
4120,10.1016/j.nanoen.2014.11.027,11853,2a,14059,x=0.005,Mg0.995Na0.005Ag0.97Sb0.99,539.5,0.000016454,0.0022153,0.00020428,0.92213,1.3041,60775.4953202869,0.0024023728
4120,10.1016/j.nanoen.2014.11.027,11853,2a,14059,x=0.005,Mg0.995Na0.005Ag0.97Sb0.99,540,0.000016389,0.0022158,0.00020417,0.92249,1.3052,61016.5354811154,0.0024019773
4120,10.1016/j.nanoen.2014.11.027,11853,2a,14059,x=0.005,Mg0.995Na0.005Ag0.97Sb0.99,540.5,0.000016323,0.0022163,0.00020405,0.92285,1.3062,61263.2481774184,0.0024015821
4120,10.1016/j.nanoen.2014.11.027,11853,2a,14059,x=0.005,Mg0.995Na0.005Ag0.97Sb0.99,541,0.000016258,0.0022168,0.00020394,0.92321,1.3073,61508.1805880182,0.0024011872
4120,10.1016/j.nanoen.2014.11.027,11853,2a,14059,x=0.005,Mg0.995Na0.005Ag0.97Sb0.99,541.5,0.000016192,0.0022173,0.00020382,0.92356,1.3083,61758.8932806324,0.0024008186
4120,10.1016/j.nanoen.2014.11.027,11853,2a,14059,x=0.005,Mg0.995Na0.005Ag0.97Sb0.99,542,0.000016126,0.0022178,0.00020371,0.92392,1.3094,62011.65819174,0.0024004243
4120,10.1016/j.nanoen.2014.11.027,11853,2a,14059,x=0.005,Mg0.995Na0.005Ag0.97Sb0.99,542.5,0.00001606,0.0022183,0.00020359,0.92428,1.3105,62266.500622665,0.0024000303
4120,10.1016/j.nanoen.2014.11.027,11853,2a,14059,x=0.005,Mg0.995Na0.005Ag0.97Sb0.99,543,0.000015994,0.0022188,0.00020347,0.92464,1.3115,62523.4462923596,0.0023996366
4120,10.1016/j.nanoen.2014.11.027,11853,2a,14059,x=0.005,Mg0.995Na0.005Ag0.97Sb0.99,543.5,0.000015928,0.0022193,0.00020336,0.925,1.3126,62782.5213460573,0.0023992432
4120,10.1016/j.nanoen.2014.11.027,11854,2b,14059,x=0.005,Mg0.995Na0.005Ag0.97Sb0.99,303,,,0.00025902,0.75212,0.80244,,
4120,10.1016/j.nanoen.2014.11.027,11855,2c,14059,x=0.005,Mg0.995Na0.005Ag0.97Sb0.99,544,,0.0022198,,0.92536,1.3136,,0.0023988502
4120,10.1016/j.nanoen.2014.11.027,11856,3c,14059,x=0.005,Mg0.995Na0.005Ag0.97Sb0.99,302.5,,,,0.75176,,,
4120,10.1016/j.nanoen.2014.11.027,11853,2a,14060,x=0.0075,Mg0.9925Na0.0075Ag0.97Sb0.99,306,0.000029146,0.0020163,0.00024455,0.7583,0.82048,34310.0253894188,0.002658974
4120,10.1016/j.nanoen.2014.11.027,11853,2a,14060,x=0.0075,Mg0.9925Na0.0075Ag0.97Sb0.99,306.5,0.00002912,0.0020168,0.00024444,0.75867,0.82152,34340.6593406593,0.0026583363
4120,10.1016/j.nanoen.2014.11.027,11853,2a,14060,x=0.0075,Mg0.9925Na0.0075Ag0.97Sb0.99,307,0.000029095,0.0020173,0.00024434,0.75904,0.82256,34370.1666953085,0.0026576992
4120,10.1016/j.nanoen.2014.11.027,11853,2a,14060,x=0.0075,Mg0.9925Na0.0075Ag0.97Sb0.99,307.5,0.000029069,0.0020177,0.00024424,0.75942,0.8236,34400.9081839761,0.0026568961
4120,10.1016/j.nanoen.2014.11.027,11853,2a,14060,x=0.0075,Mg0.9925Na0.0075Ag0.97Sb0.99,308,0.000029043,0.0020182,0.00024414,0.75979,0.82464,34431.7047137004,0.0026562603
4120,10.1016/j.nanoen.2014.11.027,11853,2a,14060,x=0.0075,Mg0.9925Na0.0075Ag0.97Sb0.99,308.5,0.000029017,0.0020187,0.00024403,0.76016,0.82568,34462.5564324362,0.0026556251
4120,10.1016/j.nanoen.2014.11.027,11853,2a,14060,x=0.0075,Mg0.9925Na0.0075Ag0.97Sb0.99,309,0.000028991,0.0020192,0.00024393,0.76053,0.82672,34493.4634886689,0.0026549906
4120,10.1016/j.nanoen.2014.11.027,11853,2a,14060,x=0.0075,Mg0.9925Na0.0075Ag0.97Sb0.99,309.5,0.000028965,0.0020197,0.00024383,0.76091,0.82776,34524.4260314172,0.0026543218
4120,10.1016/j.nanoen.2014.11.027,11853,2a,14060,x=0.0075,Mg0.9925Na0.0075Ag0.97Sb0.99,310,0.000028939,0.0020202,0.00024372,0.76128,0.82881,34555.4442102353,0.0026536885
4120,10.1016/j.nanoen.2014.11.027,11853,2a,14060,x=0.0075,Mg0.9925Na0.0075Ag0.97Sb0.99,310.5,0.000028913,0.0020207,0.00024362,0.76165,0.82985,34586.5181752153,0.0026530559
4120,10.1016/j.nanoen.2014.11.027,11853,2a,14060,x=0.0075,Mg0.9925Na0.0075Ag0.97Sb0.99,311,0.000028887,0.0020212,0.00024352,0.76203,0.83089,34617.6480769897,0.002652389
4120,10.1016/j.nanoen.2014.11.027,11853,2a,14060,x=0.0075,Mg0.9925Na0.0075Ag0.97Sb0.99,311.5,0.000028861,0.0020217,0.00024342,0.7624,0.83193,34648.8340667337,0.0026517576