sid,DOI,figureid,fignum,sampleid,samplename,composition,Temperature,Electrical resistivity,Power factor,Seebeck coefficient,Thermal conductivity,ZT,Electrical conductivity,Figure of merit Z
4120,10.1016/j.nanoen.2014.11.027,11853,2a,14061,x=0.01,Mg0.99Na0.01Ag0.97Sb0.99,543,0.000018291,0.0022367,0.00020277,0.93382,1.3069,54671.6964627412,0.0023952154
4120,10.1016/j.nanoen.2014.11.027,11853,2a,14061,x=0.01,Mg0.99Na0.01Ag0.97Sb0.99,543.5,0.000018262,0.0022373,0.00020267,0.93418,1.308,54758.5149490746,0.0023949346
4120,10.1016/j.nanoen.2014.11.027,11853,2a,14061,x=0.01,Mg0.99Na0.01Ag0.97Sb0.99,544,0.000018233,0.0022379,0.00020256,0.93453,1.3091,54845.6096089508,0.0023946797
4120,10.1016/j.nanoen.2014.11.027,11853,2a,14061,x=0.01,Mg0.99Na0.01Ag0.97Sb0.99,544.5,0.000018204,0.0022385,0.00020246,0.93489,1.3101,54932.9817622501,0.0023943993
4120,10.1016/j.nanoen.2014.11.027,11853,2a,14061,x=0.01,Mg0.99Na0.01Ag0.97Sb0.99,545,0.000018175,0.002239,0.00020235,0.93524,1.3112,55020.6327372765,0.0023940379
4120,10.1016/j.nanoen.2014.11.027,11853,2a,14061,x=0.01,Mg0.99Na0.01Ag0.97Sb0.99,545.5,0.000018146,0.0022396,0.00020225,0.9356,1.3123,55108.5638708255,0.002393758
4120,10.1016/j.nanoen.2014.11.027,11853,2a,14061,x=0.01,Mg0.99Na0.01Ag0.97Sb0.99,546,0.000018117,0.0022402,0.00020214,0.93596,1.3134,55196.7765082519,0.0023934784
4120,10.1016/j.nanoen.2014.11.027,11853,2a,14061,x=0.01,Mg0.99Na0.01Ag0.97Sb0.99,546.5,0.000018088,0.0022407,0.00020204,0.93631,1.3145,55285.2720035383,0.0023931177
4120,10.1016/j.nanoen.2014.11.027,11853,2a,14061,x=0.01,Mg0.99Na0.01Ag0.97Sb0.99,547,0.000018059,0.0022413,0.00020193,0.93667,1.3156,55374.0517193643,0.0023928385
4120,10.1016/j.nanoen.2014.11.027,11853,2a,14061,x=0.01,Mg0.99Na0.01Ag0.97Sb0.99,547.5,0.00001803,0.0022419,0.00020183,0.93702,1.3166,55463.1170271769,0.002392585
4120,10.1016/j.nanoen.2014.11.027,11853,2a,14061,x=0.01,Mg0.99Na0.01Ag0.97Sb0.99,548,0.000018001,0.0022425,0.00020172,0.93738,1.3177,55552.4693072607,0.0023923062
4120,10.1016/j.nanoen.2014.11.027,11853,2a,14061,x=0.01,Mg0.99Na0.01Ag0.97Sb0.99,548.5,0.000017972,0.002243,0.00020162,0.93774,1.3188,55642.1099488093,0.002391921
4120,10.1016/j.nanoen.2014.11.027,11853,2a,14061,x=0.01,Mg0.99Na0.01Ag0.97Sb0.99,549,0.000017943,0.0022436,0.00020152,0.93809,1.3199,55732.0403499972,0.0023916682
4120,10.1016/j.nanoen.2014.11.027,11855,2c,14061,x=0.01,Mg0.99Na0.01Ag0.97Sb0.99,303.5,,0.0019629,,0.76332,0.78046,,0.0025715296
4120,10.1016/j.nanoen.2014.11.027,11855,2c,14061,x=0.01,Mg0.99Na0.01Ag0.97Sb0.99,549.5,,0.0022442,,0.93845,1.321,,0.0023913901
4120,10.1016/j.nanoen.2014.11.027,11855,2c,14061,x=0.01,Mg0.99Na0.01Ag0.97Sb0.99,550,,0.0022447,,0.9388,1.3151,,0.0023910311