sid,DOI,figureid,fignum,sampleid,samplename,composition,Temperature,Electrical resistivity,Power factor,Seebeck coefficient,Thermal conductivity,ZT,Electrical conductivity,Figure of merit Z
4120,10.1016/j.nanoen.2014.11.027,11853,2a,14061,x=0.01,Mg0.99Na0.01Ag0.97Sb0.99,482.5,0.000021798,0.0021676,0.00021545,0.89075,1.1759,45875.768419121,0.002433455
4120,10.1016/j.nanoen.2014.11.027,11853,2a,14061,x=0.01,Mg0.99Na0.01Ag0.97Sb0.99,483,0.000021769,0.0021681,0.00021535,0.89111,1.177,45936.8827231384,0.002433033
4120,10.1016/j.nanoen.2014.11.027,11853,2a,14061,x=0.01,Mg0.99Na0.01Ag0.97Sb0.99,483.5,0.00002174,0.0021687,0.00021524,0.89146,1.1781,45998.1600735971,0.0024327508
4120,10.1016/j.nanoen.2014.11.027,11853,2a,14061,x=0.01,Mg0.99Na0.01Ag0.97Sb0.99,484,0.000021711,0.0021693,0.00021514,0.89182,1.1792,46059.6011238543,0.0024324415
4120,10.1016/j.nanoen.2014.11.027,11853,2a,14061,x=0.01,Mg0.99Na0.01Ag0.97Sb0.99,484.5,0.000021682,0.0021699,0.00021503,0.89217,1.1802,46121.2065307628,0.0024321598
4120,10.1016/j.nanoen.2014.11.027,11853,2a,14061,x=0.01,Mg0.99Na0.01Ag0.97Sb0.99,485,0.000021653,0.0021704,0.00021493,0.89253,1.1813,46182.9769546945,0.002431739
4120,10.1016/j.nanoen.2014.11.027,11853,2a,14061,x=0.01,Mg0.99Na0.01Ag0.97Sb0.99,485.5,0.000021624,0.002171,0.00021482,0.89289,1.1824,46244.9130595634,0.0024314305
4120,10.1016/j.nanoen.2014.11.027,11853,2a,14061,x=0.01,Mg0.99Na0.01Ag0.97Sb0.99,486,0.000021595,0.0021716,0.00021472,0.89324,1.1835,46307.0155128502,0.0024311495
4120,10.1016/j.nanoen.2014.11.027,11853,2a,14061,x=0.01,Mg0.99Na0.01Ag0.97Sb0.99,486.5,0.000021566,0.0021721,0.00021461,0.8936,1.1846,46369.2849856255,0.0024307296
4120,10.1016/j.nanoen.2014.11.027,11853,2a,14061,x=0.01,Mg0.99Na0.01Ag0.97Sb0.99,487,0.000021537,0.0021727,0.00021451,0.89395,1.1856,46431.7221525746,0.0024304491
4120,10.1016/j.nanoen.2014.11.027,11853,2a,14061,x=0.01,Mg0.99Na0.01Ag0.97Sb0.99,487.5,0.000021508,0.0021733,0.0002144,0.89431,1.1867,46494.3276920216,0.0024301417
4120,10.1016/j.nanoen.2014.11.027,11853,2a,14061,x=0.01,Mg0.99Na0.01Ag0.97Sb0.99,488,0.000021479,0.0021739,0.0002143,0.89467,1.1878,46557.1022859537,0.0024298345
4120,10.1016/j.nanoen.2014.11.027,11853,2a,14061,x=0.01,Mg0.99Na0.01Ag0.97Sb0.99,488.5,0.00002145,0.0021744,0.00021419,0.89502,1.1889,46620.0466200466,0.0024294429
4120,10.1016/j.nanoen.2014.11.027,11853,2a,14061,x=0.01,Mg0.99Na0.01Ag0.97Sb0.99,489,0.000021421,0.002175,0.00021409,0.89538,1.19,46683.1613836889,0.0024291362
4120,10.1016/j.nanoen.2014.11.027,11853,2a,14061,x=0.01,Mg0.99Na0.01Ag0.97Sb0.99,489.5,0.000021392,0.0021756,0.00021398,0.89573,1.1911,46746.4472700075,0.0024288569
4120,10.1016/j.nanoen.2014.11.027,11853,2a,14061,x=0.01,Mg0.99Na0.01Ag0.97Sb0.99,490,0.000021363,0.0021761,0.00021388,0.89609,1.1921,46809.9049758929,0.0024284391
4120,10.1016/j.nanoen.2014.11.027,11853,2a,14061,x=0.01,Mg0.99Na0.01Ag0.97Sb0.99,490.5,0.000021334,0.0021767,0.00021377,0.89645,1.1932,46873.5352020249,0.0024281332
4120,10.1016/j.nanoen.2014.11.027,11853,2a,14061,x=0.01,Mg0.99Na0.01Ag0.97Sb0.99,491,0.000021305,0.0021773,0.00021367,0.8968,1.1943,46937.3386528984,0.0024278546
4120,10.1016/j.nanoen.2014.11.027,11853,2a,14061,x=0.01,Mg0.99Na0.01Ag0.97Sb0.99,491.5,0.000021276,0.0021779,0.00021357,0.89716,1.1954,47001.316036849,0.0024275492
4120,10.1016/j.nanoen.2014.11.027,11853,2a,14061,x=0.01,Mg0.99Na0.01Ag0.97Sb0.99,492,0.000021247,0.0021784,0.00021346,0.89751,1.1965,47065.4680660799,0.0024271596
4120,10.1016/j.nanoen.2014.11.027,11853,2a,14061,x=0.01,Mg0.99Na0.01Ag0.97Sb0.99,492.5,0.000021218,0.002179,0.00021336,0.89787,1.1976,47129.7954566877,0.0024268547
4120,10.1016/j.nanoen.2014.11.027,11853,2a,14061,x=0.01,Mg0.99Na0.01Ag0.97Sb0.99,493,0.000021189,0.0021796,0.00021325,0.89823,1.1986,47194.2989286894,0.00242655
4120,10.1016/j.nanoen.2014.11.027,11853,2a,14061,x=0.01,Mg0.99Na0.01Ag0.97Sb0.99,493.5,0.00002116,0.0021801,0.00021315,0.89858,1.1997,47258.9792060491,0.0024261613
4120,10.1016/j.nanoen.2014.11.027,11853,2a,14061,x=0.01,Mg0.99Na0.01Ag0.97Sb0.99,494,0.000021131,0.0021807,0.00021304,0.89894,1.2008,47323.8370167053,0.0024258571
4120,10.1016/j.nanoen.2014.11.027,11853,2a,14061,x=0.01,Mg0.99Na0.01Ag0.97Sb0.99,494.5,0.000021102,0.0021813,0.00021294,0.89929,1.2019,47388.8730925979,0.0024255802
4120,10.1016/j.nanoen.2014.11.027,11853,2a,14061,x=0.01,Mg0.99Na0.01Ag0.97Sb0.99,495,0.000021073,0.0021819,0.00021283,0.89965,1.203,47454.0881696958,0.0024252765
4120,10.1016/j.nanoen.2014.11.027,11853,2a,14061,x=0.01,Mg0.99Na0.01Ag0.97Sb0.99,495.5,0.000021044,0.0021824,0.00021273,0.90001,1.2041,47519.4829880251,0.0024248619
4120,10.1016/j.nanoen.2014.11.027,11853,2a,14061,x=0.01,Mg0.99Na0.01Ag0.97Sb0.99,496,0.000021015,0.002183,0.00021262,0.90036,1.2051,47585.0582916964,0.0024245857
4120,10.1016/j.nanoen.2014.11.027,11853,2a,14061,x=0.01,Mg0.99Na0.01Ag0.97Sb0.99,496.5,0.000020986,0.0021836,0.00021252,0.90072,1.2062,47650.8148289336,0.0024242828
4120,10.1016/j.nanoen.2014.11.027,11853,2a,14061,x=0.01,Mg0.99Na0.01Ag0.97Sb0.99,497,0.000020957,0.0021841,0.00021241,0.90107,1.2073,47716.7533521019,0.002423896
4120,10.1016/j.nanoen.2014.11.027,11853,2a,14061,x=0.01,Mg0.99Na0.01Ag0.97Sb0.99,497.5,0.000020928,0.0021847,0.00021231,0.90143,1.2084,47782.874617737,0.0024235936
4120,10.1016/j.nanoen.2014.11.027,11853,2a,14061,x=0.01,Mg0.99Na0.01Ag0.97Sb0.99,498,0.000020899,0.0021853,0.0002122,0.90179,1.2095,47849.1793865735,0.0024232915
4120,10.1016/j.nanoen.2014.11.027,11853,2a,14061,x=0.01,Mg0.99Na0.01Ag0.97Sb0.99,498.5,0.000020871,0.0021859,0.0002121,0.90214,1.2105,47913.3726222989,0.0024230164
4120,10.1016/j.nanoen.2014.11.027,11853,2a,14061,x=0.01,Mg0.99Na0.01Ag0.97Sb0.99,499,0.000020842,0.0021864,0.00021199,0.9025,1.2116,47980.0403032339,0.0024226039
4120,10.1016/j.nanoen.2014.11.027,11853,2a,14061,x=0.01,Mg0.99Na0.01Ag0.97Sb0.99,499.5,0.000020813,0.002187,0.00021189,0.90285,1.2127,48046.8937683179,0.0024223293
4120,10.1016/j.nanoen.2014.11.027,11853,2a,14061,x=0.01,Mg0.99Na0.01Ag0.97Sb0.99,500,0.000020784,0.0021876,0.00021178,0.90321,1.2138,48113.9337952271,0.0024220281
4120,10.1016/j.nanoen.2014.11.027,11853,2a,14061,x=0.01,Mg0.99Na0.01Ag0.97Sb0.99,500.5,0.000020755,0.0021881,0.00021168,0.90356,1.2149,48181.1611659841,0.0024216433
4120,10.1016/j.nanoen.2014.11.027,11853,2a,14061,x=0.01,Mg0.99Na0.01Ag0.97Sb0.99,501,0.000020726,0.0021887,0.00021157,0.90392,1.216,48248.5766669883,0.0024213426
4120,10.1016/j.nanoen.2014.11.027,11853,2a,14061,x=0.01,Mg0.99Na0.01Ag0.97Sb0.99,501.5,0.000020697,0.0021893,0.00021147,0.90428,1.217,48316.1810890467,0.0024210422
4120,10.1016/j.nanoen.2014.11.027,11853,2a,14061,x=0.01,Mg0.99Na0.01Ag0.97Sb0.99,502,0.000020668,0.0021899,0.00021136,0.90463,1.2181,48383.9752274047,0.0024207687
4120,10.1016/j.nanoen.2014.11.027,11853,2a,14061,x=0.01,Mg0.99Na0.01Ag0.97Sb0.99,502.5,0.000020639,0.0021904,0.00021126,0.90499,1.2192,48451.9598817772,0.0024203582
4120,10.1016/j.nanoen.2014.11.027,11853,2a,14061,x=0.01,Mg0.99Na0.01Ag0.97Sb0.99,503,0.00002061,0.002191,0.00021116,0.90534,1.2203,48520.1358563804,0.0024200853
4120,10.1016/j.nanoen.2014.11.027,11853,2a,14061,x=0.01,Mg0.99Na0.01Ag0.97Sb0.99,503.5,0.000020581,0.0021916,0.00021105,0.9057,1.2214,48588.5039599631,0.0024197858
4120,10.1016/j.nanoen.2014.11.027,11853,2a,14061,x=0.01,Mg0.99Na0.01Ag0.97Sb0.99,504,0.000020552,0.0021921,0.00021095,0.90606,1.2225,48657.0650058388,0.0024193762
4120,10.1016/j.nanoen.2014.11.027,11853,2a,14061,x=0.01,Mg0.99Na0.01Ag0.97Sb0.99,504.5,0.000020523,0.0021927,0.00021084,0.90641,1.2235,48725.8198119183,0.0024191039
4120,10.1016/j.nanoen.2014.11.027,11853,2a,14061,x=0.01,Mg0.99Na0.01Ag0.97Sb0.99,505,0.000020494,0.0021933,0.00021074,0.90677,1.2246,48794.7692007417,0.0024188052
4120,10.1016/j.nanoen.2014.11.027,11853,2a,14061,x=0.01,Mg0.99Na0.01Ag0.97Sb0.99,505.5,0.000020465,0.0021939,0.00021063,0.90712,1.2257,48863.9139995114,0.0024185334
4120,10.1016/j.nanoen.2014.11.027,11853,2a,14061,x=0.01,Mg0.99Na0.01Ag0.97Sb0.99,506,0.000020436,0.0021944,0.00021053,0.90748,1.2268,48933.2550401253,0.0024181249
4120,10.1016/j.nanoen.2014.11.027,11853,2a,14061,x=0.01,Mg0.99Na0.01Ag0.97Sb0.99,506.5,0.000020407,0.002195,0.00021042,0.90784,1.2279,49002.7931592101,0.0024178269
4120,10.1016/j.nanoen.2014.11.027,11853,2a,14061,x=0.01,Mg0.99Na0.01Ag0.97Sb0.99,507,0.000020378,0.0021956,0.00021032,0.90819,1.2289,49072.5291981549,0.0024175558
4120,10.1016/j.nanoen.2014.11.027,11853,2a,14061,x=0.01,Mg0.99Na0.01Ag0.97Sb0.99,507.5,0.000020349,0.0021962,0.00021021,0.90855,1.23,49142.4640031451,0.0024172583
4120,10.1016/j.nanoen.2014.11.027,11853,2a,14061,x=0.01,Mg0.99Na0.01Ag0.97Sb0.99,508,0.00002032,0.0021967,0.00021011,0.9089,1.2311,49212.5984251969,0.0024168775
4120,10.1016/j.nanoen.2014.11.027,11853,2a,14061,x=0.01,Mg0.99Na0.01Ag0.97Sb0.99,508.5,0.000020291,0.0021973,0.00021,0.90926,1.2322,49282.9333201912,0.0024165805
4120,10.1016/j.nanoen.2014.11.027,11853,2a,14061,x=0.01,Mg0.99Na0.01Ag0.97Sb0.99,509,0.000020262,0.0021979,0.0002099,0.90962,1.2333,49353.4695489093,0.0024162837
4120,10.1016/j.nanoen.2014.11.027,11853,2a,14061,x=0.01,Mg0.99Na0.01Ag0.97Sb0.99,509.5,0.000020233,0.0021984,0.00020979,0.90997,1.2344,49424.2079770672,0.0024159038
4120,10.1016/j.nanoen.2014.11.027,11853,2a,14061,x=0.01,Mg0.99Na0.01Ag0.97Sb0.99,510,0.000020204,0.002199,0.00020969,0.91033,1.2354,49495.1494753514,0.0024156075
4120,10.1016/j.nanoen.2014.11.027,11853,2a,14061,x=0.01,Mg0.99Na0.01Ag0.97Sb0.99,510.5,0.000020175,0.0021996,0.00020958,0.91068,1.2365,49566.2949194548,0.002415338
4120,10.1016/j.nanoen.2014.11.027,11853,2a,14061,x=0.01,Mg0.99Na0.01Ag0.97Sb0.99,511,0.000020146,0.0022002,0.00020948,0.91104,1.2376,49637.6451901122,0.0024150421
4120,10.1016/j.nanoen.2014.11.027,11853,2a,14061,x=0.01,Mg0.99Na0.01Ag0.97Sb0.99,511.5,0.000020117,0.0022007,0.00020937,0.9114,1.2387,49709.2011731371,0.0024146368
4120,10.1016/j.nanoen.2014.11.027,11853,2a,14061,x=0.01,Mg0.99Na0.01Ag0.97Sb0.99,512,0.000020088,0.0022013,0.00020927,0.91175,1.2398,49780.9637594584,0.002414368
4120,10.1016/j.nanoen.2014.11.027,11853,2a,14061,x=0.01,Mg0.99Na0.01Ag0.97Sb0.99,512.5,0.000020059,0.0022019,0.00020916,0.91211,1.2409,49852.9338451568,0.0024140729
4120,10.1016/j.nanoen.2014.11.027,11853,2a,14061,x=0.01,Mg0.99Na0.01Ag0.97Sb0.99,513,0.00002003,0.0022024,0.00020906,0.91246,1.2419,49925.1123315027,0.0024136948
4120,10.1016/j.nanoen.2014.11.027,11853,2a,14061,x=0.01,Mg0.99Na0.01Ag0.97Sb0.99,513.5,0.000020001,0.002203,0.00020895,0.91282,1.243,49997.5001249937,0.0024134002
4120,10.1016/j.nanoen.2014.11.027,11853,2a,14061,x=0.01,Mg0.99Na0.01Ag0.97Sb0.99,514,0.000019972,0.0022036,0.00020885,0.91318,1.2441,50070.0981373923,0.0024131058
4120,10.1016/j.nanoen.2014.11.027,11853,2a,14061,x=0.01,Mg0.99Na0.01Ag0.97Sb0.99,514.5,0.000019943,0.0022042,0.00020875,0.91353,1.2452,50142.9072857644,0.0024128381
4120,10.1016/j.nanoen.2014.11.027,11853,2a,14061,x=0.01,Mg0.99Na0.01Ag0.97Sb0.99,515,0.000019914,0.0022047,0.00020864,0.91389,1.2463,50215.9284925178,0.0024124348
4120,10.1016/j.nanoen.2014.11.027,11853,2a,14061,x=0.01,Mg0.99Na0.01Ag0.97Sb0.99,515.5,0.000019885,0.0022053,0.00020854,0.91424,1.2474,50289.1626854413,0.0024121675
4120,10.1016/j.nanoen.2014.11.027,11853,2a,14061,x=0.01,Mg0.99Na0.01Ag0.97Sb0.99,516,0.000019856,0.0022059,0.00020843,0.9146,1.2484,50362.6107977437,0.002411874
4120,10.1016/j.nanoen.2014.11.027,11853,2a,14061,x=0.01,Mg0.99Na0.01Ag0.97Sb0.99,516.5,0.000019827,0.0022064,0.00020833,0.91496,1.2495,50436.273768094,0.0024114715
4120,10.1016/j.nanoen.2014.11.027,11853,2a,14061,x=0.01,Mg0.99Na0.01Ag0.97Sb0.99,517,0.000019798,0.002207,0.00020822,0.91531,1.2506,50510.1525406607,0.0024112049
4120,10.1016/j.nanoen.2014.11.027,11853,2a,14061,x=0.01,Mg0.99Na0.01Ag0.97Sb0.99,517.5,0.000019769,0.0022076,0.00020812,0.91567,1.2517,50584.2480651525,0.0024109122
4120,10.1016/j.nanoen.2014.11.027,11853,2a,14061,x=0.01,Mg0.99Na0.01Ag0.97Sb0.99,518,0.00001974,0.0022082,0.00020801,0.91602,1.2528,50658.5612968592,0.0024106461
4120,10.1016/j.nanoen.2014.11.027,11853,2a,14061,x=0.01,Mg0.99Na0.01Ag0.97Sb0.99,518.5,0.000019711,0.0022087,0.00020791,0.91638,1.2538,50733.0931966922,0.0024102447
4120,10.1016/j.nanoen.2014.11.027,11853,2a,14061,x=0.01,Mg0.99Na0.01Ag0.97Sb0.99,519,0.000019682,0.0022093,0.0002078,0.91674,1.2549,50807.8447312265,0.0024099527
4120,10.1016/j.nanoen.2014.11.027,11853,2a,14061,x=0.01,Mg0.99Na0.01Ag0.97Sb0.99,519.5,0.000019653,0.0022099,0.0002077,0.91709,1.256,50882.8168727421,0.0024096872
4120,10.1016/j.nanoen.2014.11.027,11853,2a,14061,x=0.01,Mg0.99Na0.01Ag0.97Sb0.99,520,0.000019624,0.0022104,0.00020759,0.91745,1.2571,50958.0105992662,0.0024092866
4120,10.1016/j.nanoen.2014.11.027,11853,2a,14061,x=0.01,Mg0.99Na0.01Ag0.97Sb0.99,520.5,0.000019595,0.002211,0.00020749,0.9178,1.2582,51033.426894616,0.0024090216
4120,10.1016/j.nanoen.2014.11.027,11853,2a,14061,x=0.01,Mg0.99Na0.01Ag0.97Sb0.99,521,0.000019566,0.0022116,0.00020738,0.91816,1.2593,51109.0667484412,0.0024087305
4120,10.1016/j.nanoen.2014.11.027,11853,2a,14061,x=0.01,Mg0.99Na0.01Ag0.97Sb0.99,521.5,0.000019537,0.0022122,0.00020728,0.91851,1.2603,51184.9311562676,0.0024084659
4120,10.1016/j.nanoen.2014.11.027,11853,2a,14061,x=0.01,Mg0.99Na0.01Ag0.97Sb0.99,522,0.000019508,0.0022127,0.00020717,0.91887,1.2614,51261.0211195407,0.0024080664
4120,10.1016/j.nanoen.2014.11.027,11853,2a,14061,x=0.01,Mg0.99Na0.01Ag0.97Sb0.99,522.5,0.000019479,0.0022133,0.00020707,0.91923,1.2625,51337.3376456697,0.0024077761
4120,10.1016/j.nanoen.2014.11.027,11853,2a,14061,x=0.01,Mg0.99Na0.01Ag0.97Sb0.99,523,0.00001945,0.0022139,0.00020696,0.91958,1.2636,51413.881748072,0.0024075121
4120,10.1016/j.nanoen.2014.11.027,11853,2a,14061,x=0.01,Mg0.99Na0.01Ag0.97Sb0.99,523.5,0.000019421,0.0022144,0.00020686,0.91994,1.2647,51490.654446218,0.0024071135
4120,10.1016/j.nanoen.2014.11.027,11853,2a,14061,x=0.01,Mg0.99Na0.01Ag0.97Sb0.99,524,0.000019392,0.002215,0.00020675,0.92029,1.2658,51567.6567656766,0.00240685
4120,10.1016/j.nanoen.2014.11.027,11853,2a,14061,x=0.01,Mg0.99Na0.01Ag0.97Sb0.99,524.5,0.000019363,0.0022156,0.00020665,0.92065,1.2668,51644.8897381604,0.0024065606
4120,10.1016/j.nanoen.2014.11.027,11853,2a,14061,x=0.01,Mg0.99Na0.01Ag0.97Sb0.99,525,0.000019334,0.0022162,0.00020654,0.92101,1.2679,51722.3544015724,0.0024062714
4120,10.1016/j.nanoen.2014.11.027,11853,2a,14061,x=0.01,Mg0.99Na0.01Ag0.97Sb0.99,525.5,0.000019305,0.0022167,0.00020644,0.92136,1.269,51800.0518000518,0.0024059
4120,10.1016/j.nanoen.2014.11.027,11853,2a,14061,x=0.01,Mg0.99Na0.01Ag0.97Sb0.99,526,0.000019276,0.0022173,0.00020634,0.92172,1.2701,51877.9829840216,0.0024056112
4120,10.1016/j.nanoen.2014.11.027,11853,2a,14061,x=0.01,Mg0.99Na0.01Ag0.97Sb0.99,526.5,0.000019247,0.0022179,0.00020623,0.92207,1.2712,51956.1490102354,0.0024053488
4120,10.1016/j.nanoen.2014.11.027,11853,2a,14061,x=0.01,Mg0.99Na0.01Ag0.97Sb0.99,527,0.000019218,0.0022184,0.00020613,0.92243,1.2723,52034.5509418254,0.0024049521
4120,10.1016/j.nanoen.2014.11.027,11853,2a,14061,x=0.01,Mg0.99Na0.01Ag0.97Sb0.99,527.5,0.000019189,0.002219,0.00020602,0.92279,1.2733,52113.1898483506,0.0024046641
4120,10.1016/j.nanoen.2014.11.027,11853,2a,14061,x=0.01,Mg0.99Na0.01Ag0.97Sb0.99,528,0.00001916,0.0022196,0.00020592,0.92314,1.2744,52192.0668058455,0.0024044024
4120,10.1016/j.nanoen.2014.11.027,11853,2a,14061,x=0.01,Mg0.99Na0.01Ag0.97Sb0.99,528.5,0.000019131,0.0022202,0.00020581,0.9235,1.2755,52271.182896869,0.0024041148
4120,10.1016/j.nanoen.2014.11.027,11853,2a,14061,x=0.01,Mg0.99Na0.01Ag0.97Sb0.99,529,0.000019102,0.0022207,0.00020571,0.92385,1.2766,52350.5392105539,0.0024037452
4120,10.1016/j.nanoen.2014.11.027,11853,2a,14061,x=0.01,Mg0.99Na0.01Ag0.97Sb0.99,529.5,0.000019074,0.0022213,0.0002056,0.92421,1.2777,52427.3880675265,0.0024034581
4120,10.1016/j.nanoen.2014.11.027,11853,2a,14061,x=0.01,Mg0.99Na0.01Ag0.97Sb0.99,530,0.000019045,0.0022219,0.0002055,0.92457,1.2787,52507.2197427146,0.0024031712
4120,10.1016/j.nanoen.2014.11.027,11853,2a,14061,x=0.01,Mg0.99Na0.01Ag0.97Sb0.99,530.5,0.000019016,0.0022224,0.00020539,0.92492,1.2798,52587.2949095499,0.0024028024
4120,10.1016/j.nanoen.2014.11.027,11853,2a,14061,x=0.01,Mg0.99Na0.01Ag0.97Sb0.99,531,0.000018987,0.002223,0.00020529,0.92528,1.2809,52667.614683731,0.002402516
4120,10.1016/j.nanoen.2014.11.027,11853,2a,14061,x=0.01,Mg0.99Na0.01Ag0.97Sb0.99,531.5,0.000018958,0.0022236,0.00020518,0.92563,1.282,52748.1801877835,0.0024022558
4120,10.1016/j.nanoen.2014.11.027,11853,2a,14061,x=0.01,Mg0.99Na0.01Ag0.97Sb0.99,532,0.000018929,0.0022242,0.00020508,0.92599,1.2831,52828.992551112,0.0024019698
4120,10.1016/j.nanoen.2014.11.027,11853,2a,14061,x=0.01,Mg0.99Na0.01Ag0.97Sb0.99,532.5,0.0000189,0.0022247,0.00020497,0.92635,1.2842,52910.0529100529,0.0024015761
4120,10.1016/j.nanoen.2014.11.027,11853,2a,14061,x=0.01,Mg0.99Na0.01Ag0.97Sb0.99,533,0.000018871,0.0022253,0.00020487,0.9267,1.2852,52991.3624079275,0.0024013165
4120,10.1016/j.nanoen.2014.11.027,11853,2a,14061,x=0.01,Mg0.99Na0.01Ag0.97Sb0.99,533.5,0.000018842,0.0022259,0.00020476,0.92706,1.2863,53072.9221950961,0.0024010312
4120,10.1016/j.nanoen.2014.11.027,11853,2a,14061,x=0.01,Mg0.99Na0.01Ag0.97Sb0.99,534,0.000018813,0.0022264,0.00020466,0.92741,1.2874,53154.7334290119,0.0024006642
4120,10.1016/j.nanoen.2014.11.027,11853,2a,14061,x=0.01,Mg0.99Na0.01Ag0.97Sb0.99,534.5,0.000018784,0.002227,0.00020455,0.92777,1.2885,53236.797274276,0.0024003794
4120,10.1016/j.nanoen.2014.11.027,11853,2a,14061,x=0.01,Mg0.99Na0.01Ag0.97Sb0.99,535,0.000018755,0.0022276,0.00020445,0.92813,1.2896,53319.1149026926,0.0024000948
4120,10.1016/j.nanoen.2014.11.027,11853,2a,14061,x=0.01,Mg0.99Na0.01Ag0.97Sb0.99,535.5,0.000018726,0.0022282,0.00020434,0.92848,1.2907,53401.6874933248,0.0023998363
4120,10.1016/j.nanoen.2014.11.027,11853,2a,14061,x=0.01,Mg0.99Na0.01Ag0.97Sb0.99,536,0.000018697,0.0022287,0.00020424,0.92884,1.2917,53484.5162325507,0.0023994445
4120,10.1016/j.nanoen.2014.11.027,11853,2a,14061,x=0.01,Mg0.99Na0.01Ag0.97Sb0.99,536.5,0.000018668,0.0022293,0.00020413,0.92919,1.2928,53567.6023141204,0.0023991864
4120,10.1016/j.nanoen.2014.11.027,11853,2a,14061,x=0.01,Mg0.99Na0.01Ag0.97Sb0.99,537,0.000018639,0.0022299,0.00020403,0.92955,1.2939,53650.9469392135,0.0023989027
4120,10.1016/j.nanoen.2014.11.027,11853,2a,14061,x=0.01,Mg0.99Na0.01Ag0.97Sb0.99,537.5,0.00001861,0.0022305,0.00020393,0.92991,1.295,53734.5513164965,0.0023986192
4120,10.1016/j.nanoen.2014.11.027,11853,2a,14061,x=0.01,Mg0.99Na0.01Ag0.97Sb0.99,538,0.000018581,0.002231,0.00020382,0.93026,1.2961,53818.4166621818,0.0023982543
4120,10.1016/j.nanoen.2014.11.027,11853,2a,14061,x=0.01,Mg0.99Na0.01Ag0.97Sb0.99,538.5,0.000018552,0.0022316,0.00020372,0.93062,1.2971,53902.5442000862,0.0023979712
4120,10.1016/j.nanoen.2014.11.027,11853,2a,14061,x=0.01,Mg0.99Na0.01Ag0.97Sb0.99,539,0.000018523,0.0022322,0.00020361,0.93097,1.2982,53986.9351616909,0.0023977142
4120,10.1016/j.nanoen.2014.11.027,11853,2a,14061,x=0.01,Mg0.99Na0.01Ag0.97Sb0.99,539.5,0.000018494,0.0022327,0.00020351,0.93133,1.2993,54071.5907862009,0.0023973243
4120,10.1016/j.nanoen.2014.11.027,11853,2a,14061,x=0.01,Mg0.99Na0.01Ag0.97Sb0.99,540,0.000018465,0.0022333,0.0002034,0.93168,1.3004,54156.5123206066,0.0023970677
4120,10.1016/j.nanoen.2014.11.027,11853,2a,14061,x=0.01,Mg0.99Na0.01Ag0.97Sb0.99,540.5,0.000018436,0.0022339,0.0002033,0.93204,1.3015,54241.701019744,0.0023967855
4120,10.1016/j.nanoen.2014.11.027,11853,2a,14061,x=0.01,Mg0.99Na0.01Ag0.97Sb0.99,541,0.000018407,0.0022345,0.00020319,0.9324,1.3026,54327.1581463574,0.0023965036
4120,10.1016/j.nanoen.2014.11.027,11853,2a,14061,x=0.01,Mg0.99Na0.01Ag0.97Sb0.99,541.5,0.000018378,0.002235,0.00020309,0.93275,1.3036,54412.8849711612,0.0023961404
4120,10.1016/j.nanoen.2014.11.027,11853,2a,14061,x=0.01,Mg0.99Na0.01Ag0.97Sb0.99,542,0.000018349,0.0022356,0.00020298,0.93311,1.3047,54498.8827729032,0.002395859
4120,10.1016/j.nanoen.2014.11.027,11853,2a,14061,x=0.01,Mg0.99Na0.01Ag0.97Sb0.99,542.5,0.00001832,0.0022362,0.00020288,0.93346,1.3058,54585.1528384279,0.0023956035