sid,DOI,figureid,fignum,sampleid,samplename,composition,Temperature,Electrical resistivity,Power factor,Seebeck coefficient,Thermal conductivity,ZT,Electrical conductivity,Figure of merit Z
4120,10.1016/j.nanoen.2014.11.027,11853,2a,14060,x=0.0075,Mg0.9925Na0.0075Ag0.97Sb0.99,545,0.000016767,0.0022536,0.00019536,0.93654,1.3182,59640.961412298,0.0024063041
4120,10.1016/j.nanoen.2014.11.027,11853,2a,14060,x=0.0075,Mg0.9925Na0.0075Ag0.97Sb0.99,545.5,0.000016741,0.0022541,0.00019526,0.93691,1.3192,59733.588196643,0.0024058874
4120,10.1016/j.nanoen.2014.11.027,11854,2b,14060,x=0.0075,Mg0.9925Na0.0075Ag0.97Sb0.99,305.5,,0.0020158,0.00024465,0.75792,0.81943,,0.0026596475
4120,10.1016/j.nanoen.2014.11.027,11854,2b,14060,x=0.0075,Mg0.9925Na0.0075Ag0.97Sb0.99,546,,,0.00019515,0.93728,,,
4120,10.1016/j.nanoen.2014.11.027,11857,5,14060,x=0.0075,Mg0.9925Na0.0075Ag0.97Sb0.99,305,,,,,0.81839,,
4120,10.1016/j.nanoen.2014.11.027,11853,2a,14061,x=0.01,Mg0.99Na0.01Ag0.97Sb0.99,304,0.000032145,0.0019635,0.00025286,0.76368,0.78944,31109.0371752994,0.0025711031
4120,10.1016/j.nanoen.2014.11.027,11853,2a,14061,x=0.01,Mg0.99Na0.01Ag0.97Sb0.99,304.5,0.000032116,0.001964,0.00025275,0.76403,0.79052,31137.1279113215,0.0025705797
4120,10.1016/j.nanoen.2014.11.027,11853,2a,14061,x=0.01,Mg0.99Na0.01Ag0.97Sb0.99,305,0.000032087,0.0019646,0.00025265,0.76439,0.79161,31165.2694237542,0.002570154
4120,10.1016/j.nanoen.2014.11.027,11853,2a,14061,x=0.01,Mg0.99Na0.01Ag0.97Sb0.99,305.5,0.000032058,0.0019652,0.00025254,0.76474,0.79269,31193.4618503962,0.0025697623
4120,10.1016/j.nanoen.2014.11.027,11853,2a,14061,x=0.01,Mg0.99Na0.01Ag0.97Sb0.99,306,0.000032029,0.0019658,0.00025244,0.7651,0.79377,31221.7053295451,0.0025693373
4120,10.1016/j.nanoen.2014.11.027,11853,2a,14061,x=0.01,Mg0.99Na0.01Ag0.97Sb0.99,306.5,0.000032,0.0019663,0.00025233,0.76546,0.79485,31250,0.0025687822
4120,10.1016/j.nanoen.2014.11.027,11853,2a,14061,x=0.01,Mg0.99Na0.01Ag0.97Sb0.99,307,0.000031971,0.0019669,0.00025223,0.76581,0.79594,31278.3460010635,0.0025683916
4120,10.1016/j.nanoen.2014.11.027,11853,2a,14061,x=0.01,Mg0.99Na0.01Ag0.97Sb0.99,307.5,0.000031942,0.0019675,0.00025212,0.76617,0.79702,31306.743472544,0.0025679679
4120,10.1016/j.nanoen.2014.11.027,11853,2a,14061,x=0.01,Mg0.99Na0.01Ag0.97Sb0.99,308,0.000031913,0.001968,0.00025202,0.76652,0.7981,31335.1925547583,0.0025674477
4120,10.1016/j.nanoen.2014.11.027,11853,2a,14061,x=0.01,Mg0.99Na0.01Ag0.97Sb0.99,308.5,0.000031884,0.0019686,0.00025192,0.76688,0.79918,31363.6933885334,0.0025670248
4120,10.1016/j.nanoen.2014.11.027,11853,2a,14061,x=0.01,Mg0.99Na0.01Ag0.97Sb0.99,309,0.000031855,0.0019692,0.00025181,0.76724,0.80027,31392.2461152095,0.0025666024
4120,10.1016/j.nanoen.2014.11.027,11853,2a,14061,x=0.01,Mg0.99Na0.01Ag0.97Sb0.99,309.5,0.000031826,0.0019698,0.00025171,0.76759,0.80135,31420.8508766417,0.0025662137
4120,10.1016/j.nanoen.2014.11.027,11853,2a,14061,x=0.01,Mg0.99Na0.01Ag0.97Sb0.99,310,0.000031797,0.0019703,0.0002516,0.76795,0.80243,31449.5078152027,0.0025656618
4120,10.1016/j.nanoen.2014.11.027,11853,2a,14061,x=0.01,Mg0.99Na0.01Ag0.97Sb0.99,310.5,0.000031768,0.0019709,0.0002515,0.7683,0.80351,31478.2170737849,0.002565274
4120,10.1016/j.nanoen.2014.11.027,11853,2a,14061,x=0.01,Mg0.99Na0.01Ag0.97Sb0.99,311,0.00003174,0.0019715,0.00025139,0.76866,0.8046,31505.9861373661,0.0025648531
4120,10.1016/j.nanoen.2014.11.027,11853,2a,14061,x=0.01,Mg0.99Na0.01Ag0.97Sb0.99,311.5,0.000031711,0.001972,0.00025129,0.76902,0.80568,31534.7986503106,0.0025643026
4120,10.1016/j.nanoen.2014.11.027,11853,2a,14061,x=0.01,Mg0.99Na0.01Ag0.97Sb0.99,312,0.000031682,0.0019726,0.00025118,0.76937,0.80676,31563.6639101067,0.0025639159
4120,10.1016/j.nanoen.2014.11.027,11853,2a,14061,x=0.01,Mg0.99Na0.01Ag0.97Sb0.99,312.5,0.000031653,0.0019732,0.00025108,0.76973,0.80784,31592.5820617319,0.0025634963
4120,10.1016/j.nanoen.2014.11.027,11853,2a,14061,x=0.01,Mg0.99Na0.01Ag0.97Sb0.99,313,0.000031624,0.0019738,0.00025097,0.77008,0.80893,31621.5532506957,0.0025631103
4120,10.1016/j.nanoen.2014.11.027,11853,2a,14061,x=0.01,Mg0.99Na0.01Ag0.97Sb0.99,313.5,0.000031595,0.0019743,0.00025087,0.77044,0.81001,31650.5776230416,0.0025625617
4120,10.1016/j.nanoen.2014.11.027,11853,2a,14061,x=0.01,Mg0.99Na0.01Ag0.97Sb0.99,314,0.000031566,0.0019749,0.00025076,0.7708,0.81109,31679.6553253501,0.0025621432
4120,10.1016/j.nanoen.2014.11.027,11853,2a,14061,x=0.01,Mg0.99Na0.01Ag0.97Sb0.99,314.5,0.000031537,0.0019755,0.00025066,0.77115,0.81217,31708.7865047405,0.0025617584
4120,10.1016/j.nanoen.2014.11.027,11853,2a,14061,x=0.01,Mg0.99Na0.01Ag0.97Sb0.99,315,0.000031508,0.001976,0.00025055,0.77151,0.81326,31737.9713088739,0.0025612111
4120,10.1016/j.nanoen.2014.11.027,11853,2a,14061,x=0.01,Mg0.99Na0.01Ag0.97Sb0.99,315.5,0.000031479,0.0019766,0.00025045,0.77186,0.81434,31767.2098859557,0.0025608271
4120,10.1016/j.nanoen.2014.11.027,11853,2a,14061,x=0.01,Mg0.99Na0.01Ag0.97Sb0.99,316,0.00003145,0.0019772,0.00025034,0.77222,0.81542,31796.5023847377,0.0025604102
4120,10.1016/j.nanoen.2014.11.027,11853,2a,14061,x=0.01,Mg0.99Na0.01Ag0.97Sb0.99,316.5,0.000031421,0.0019778,0.00025024,0.77258,0.81651,31825.8489545209,0.0025599938
4120,10.1016/j.nanoen.2014.11.027,11853,2a,14061,x=0.01,Mg0.99Na0.01Ag0.97Sb0.99,317,0.000031392,0.0019783,0.00025013,0.77293,0.81759,31855.249745158,0.0025594815
4120,10.1016/j.nanoen.2014.11.027,11853,2a,14061,x=0.01,Mg0.99Na0.01Ag0.97Sb0.99,317.5,0.000031363,0.0019789,0.00025003,0.77329,0.81867,31884.7049070561,0.0025590658
4120,10.1016/j.nanoen.2014.11.027,11853,2a,14061,x=0.01,Mg0.99Na0.01Ag0.97Sb0.99,318,0.000031334,0.0019795,0.00024992,0.77364,0.81975,31914.2145911789,0.0025586836
4120,10.1016/j.nanoen.2014.11.027,11853,2a,14061,x=0.01,Mg0.99Na0.01Ag0.97Sb0.99,318.5,0.000031305,0.0019801,0.00024982,0.774,0.82084,31943.7789490497,0.0025582687
4120,10.1016/j.nanoen.2014.11.027,11853,2a,14061,x=0.01,Mg0.99Na0.01Ag0.97Sb0.99,319,0.000031276,0.0019806,0.00024971,0.77436,0.82192,31973.3981327536,0.0025577251
4120,10.1016/j.nanoen.2014.11.027,11853,2a,14061,x=0.01,Mg0.99Na0.01Ag0.97Sb0.99,319.5,0.000031247,0.0019812,0.00024961,0.77471,0.823,32003.0722949403,0.002557344
4120,10.1016/j.nanoen.2014.11.027,11853,2a,14061,x=0.01,Mg0.99Na0.01Ag0.97Sb0.99,320,0.000031218,0.0019818,0.00024951,0.77507,0.82408,32032.801588827,0.0025569303
4120,10.1016/j.nanoen.2014.11.027,11853,2a,14061,x=0.01,Mg0.99Na0.01Ag0.97Sb0.99,320.5,0.000031189,0.0019823,0.0002494,0.77542,0.82517,32062.5861682003,0.002556421
4120,10.1016/j.nanoen.2014.11.027,11853,2a,14061,x=0.01,Mg0.99Na0.01Ag0.97Sb0.99,321,0.00003116,0.0019829,0.0002493,0.77578,0.82625,32092.4261874198,0.0025560081
4120,10.1016/j.nanoen.2014.11.027,11853,2a,14061,x=0.01,Mg0.99Na0.01Ag0.97Sb0.99,321.5,0.000031131,0.0019835,0.00024919,0.77614,0.82733,32122.3218014198,0.0025555956
4120,10.1016/j.nanoen.2014.11.027,11853,2a,14061,x=0.01,Mg0.99Na0.01Ag0.97Sb0.99,322,0.000031102,0.0019841,0.00024909,0.77649,0.82841,32152.2731657128,0.0025552164
4120,10.1016/j.nanoen.2014.11.027,11853,2a,14061,x=0.01,Mg0.99Na0.01Ag0.97Sb0.99,322.5,0.000031073,0.0019846,0.00024898,0.77685,0.8295,32182.2804363917,0.0025546759
4120,10.1016/j.nanoen.2014.11.027,11853,2a,14061,x=0.01,Mg0.99Na0.01Ag0.97Sb0.99,323,0.000031044,0.0019852,0.00024888,0.7772,0.83058,32212.3437701327,0.0025542975
4120,10.1016/j.nanoen.2014.11.027,11853,2a,14061,x=0.01,Mg0.99Na0.01Ag0.97Sb0.99,323.5,0.000031015,0.0019858,0.00024877,0.77756,0.83166,32242.463324198,0.0025538865
4120,10.1016/j.nanoen.2014.11.027,11853,2a,14061,x=0.01,Mg0.99Na0.01Ag0.97Sb0.99,324,0.000030986,0.0019863,0.00024867,0.77791,0.83274,32272.6392564384,0.0025533802
4120,10.1016/j.nanoen.2014.11.027,11853,2a,14061,x=0.01,Mg0.99Na0.01Ag0.97Sb0.99,324.5,0.000030957,0.0019869,0.00024856,0.77827,0.83383,32302.8717252964,0.00255297
4120,10.1016/j.nanoen.2014.11.027,11853,2a,14061,x=0.01,Mg0.99Na0.01Ag0.97Sb0.99,325,0.000030928,0.0019875,0.00024846,0.77863,0.83491,32333.1608898086,0.0025525603
4120,10.1016/j.nanoen.2014.11.027,11853,2a,14061,x=0.01,Mg0.99Na0.01Ag0.97Sb0.99,325.5,0.000030899,0.0019881,0.00024835,0.77898,0.83599,32363.5069096087,0.0025521836
4120,10.1016/j.nanoen.2014.11.027,11853,2a,14061,x=0.01,Mg0.99Na0.01Ag0.97Sb0.99,326,0.00003087,0.0019886,0.00024825,0.77934,0.83707,32393.9099449304,0.0025516463
4120,10.1016/j.nanoen.2014.11.027,11853,2a,14061,x=0.01,Mg0.99Na0.01Ag0.97Sb0.99,326.5,0.000030841,0.0019892,0.00024814,0.77969,0.83816,32424.3701566097,0.0025512704
4120,10.1016/j.nanoen.2014.11.027,11853,2a,14061,x=0.01,Mg0.99Na0.01Ag0.97Sb0.99,327,0.000030812,0.0019898,0.00024804,0.78005,0.83924,32454.8877060885,0.0025508621
4120,10.1016/j.nanoen.2014.11.027,11853,2a,14061,x=0.01,Mg0.99Na0.01Ag0.97Sb0.99,327.5,0.000030783,0.0019903,0.00024793,0.78041,0.84032,32485.462755417,0.0025503261
4120,10.1016/j.nanoen.2014.11.027,11853,2a,14061,x=0.01,Mg0.99Na0.01Ag0.97Sb0.99,328,0.000030754,0.0019909,0.00024783,0.78076,0.8414,32516.0954672563,0.0025499513
4120,10.1016/j.nanoen.2014.11.027,11853,2a,14061,x=0.01,Mg0.99Na0.01Ag0.97Sb0.99,328.5,0.000030725,0.0019915,0.00024772,0.78112,0.84249,32546.786004882,0.0025495442
4120,10.1016/j.nanoen.2014.11.027,11853,2a,14061,x=0.01,Mg0.99Na0.01Ag0.97Sb0.99,329,0.000030696,0.0019921,0.00024762,0.78147,0.84357,32577.5345321866,0.0025491702
4120,10.1016/j.nanoen.2014.11.027,11853,2a,14061,x=0.01,Mg0.99Na0.01Ag0.97Sb0.99,329.5,0.000030667,0.0019926,0.00024751,0.78183,0.84465,32608.3412136825,0.0025486359
4120,10.1016/j.nanoen.2014.11.027,11853,2a,14061,x=0.01,Mg0.99Na0.01Ag0.97Sb0.99,330,0.000030638,0.0019932,0.00024741,0.78219,0.84573,32639.2062145049,0.00254823
4120,10.1016/j.nanoen.2014.11.027,11853,2a,14061,x=0.01,Mg0.99Na0.01Ag0.97Sb0.99,330.5,0.000030609,0.0019938,0.0002473,0.78254,0.84682,32670.1297004149,0.002547857
4120,10.1016/j.nanoen.2014.11.027,11853,2a,14061,x=0.01,Mg0.99Na0.01Ag0.97Sb0.99,331,0.00003058,0.0019943,0.0002472,0.7829,0.8479,32701.1118378025,0.0025473241
4120,10.1016/j.nanoen.2014.11.027,11853,2a,14061,x=0.01,Mg0.99Na0.01Ag0.97Sb0.99,331.5,0.000030551,0.0019949,0.0002471,0.78325,0.84898,32732.1527936892,0.0025469518
4120,10.1016/j.nanoen.2014.11.027,11853,2a,14061,x=0.01,Mg0.99Na0.01Ag0.97Sb0.99,332,0.000030522,0.0019955,0.00024699,0.78361,0.85006,32763.2527357316,0.0025465474
4120,10.1016/j.nanoen.2014.11.027,11853,2a,14061,x=0.01,Mg0.99Na0.01Ag0.97Sb0.99,332.5,0.000030493,0.0019961,0.00024689,0.78397,0.85115,32794.4118322238,0.0025461433
4120,10.1016/j.nanoen.2014.11.027,11853,2a,14061,x=0.01,Mg0.99Na0.01Ag0.97Sb0.99,333,0.000030464,0.0019966,0.00024678,0.78432,0.85223,32825.6302521008,0.0025456446
4120,10.1016/j.nanoen.2014.11.027,11853,2a,14061,x=0.01,Mg0.99Na0.01Ag0.97Sb0.99,333.5,0.000030435,0.0019972,0.00024668,0.78468,0.85331,32856.9081649417,0.0025452414
4120,10.1016/j.nanoen.2014.11.027,11853,2a,14061,x=0.01,Mg0.99Na0.01Ag0.97Sb0.99,334,0.000030406,0.0019978,0.00024657,0.78503,0.85439,32888.2457409722,0.0025448709
4120,10.1016/j.nanoen.2014.11.027,11853,2a,14061,x=0.01,Mg0.99Na0.01Ag0.97Sb0.99,334.5,0.000030377,0.0019983,0.00024647,0.78539,0.85548,32919.6431510682,0.002544341
4120,10.1016/j.nanoen.2014.11.027,11853,2a,14061,x=0.01,Mg0.99Na0.01Ag0.97Sb0.99,335,0.000030348,0.0019989,0.00024636,0.78575,0.85656,32951.1005667589,0.0025439389
4120,10.1016/j.nanoen.2014.11.027,11853,2a,14061,x=0.01,Mg0.99Na0.01Ag0.97Sb0.99,335.5,0.000030319,0.0019995,0.00024626,0.7861,0.85764,32982.6181602296,0.0025435695
4120,10.1016/j.nanoen.2014.11.027,11853,2a,14061,x=0.01,Mg0.99Na0.01Ag0.97Sb0.99,336,0.00003029,0.0020001,0.00024615,0.78646,0.85872,33014.1961043249,0.0025431681
4120,10.1016/j.nanoen.2014.11.027,11853,2a,14061,x=0.01,Mg0.99Na0.01Ag0.97Sb0.99,336.5,0.000030261,0.0020006,0.00024605,0.78681,0.85981,33045.8345725521,0.0025426723
4120,10.1016/j.nanoen.2014.11.027,11853,2a,14061,x=0.01,Mg0.99Na0.01Ag0.97Sb0.99,337,0.000030232,0.0020012,0.00024594,0.78717,0.86089,33077.5337390844,0.0025422717
4120,10.1016/j.nanoen.2014.11.027,11853,2a,14061,x=0.01,Mg0.99Na0.01Ag0.97Sb0.99,337.5,0.000030203,0.0020018,0.00024584,0.78753,0.86197,33109.2937787637,0.0025418714
4120,10.1016/j.nanoen.2014.11.027,11853,2a,14061,x=0.01,Mg0.99Na0.01Ag0.97Sb0.99,338,0.000030174,0.0020023,0.00024573,0.78788,0.86305,33141.1148671041,0.0025413769
4120,10.1016/j.nanoen.2014.11.027,11853,2a,14061,x=0.01,Mg0.99Na0.01Ag0.97Sb0.99,338.5,0.000030145,0.0020029,0.00024563,0.78824,0.86414,33172.9971802952,0.0025409774
4120,10.1016/j.nanoen.2014.11.027,11853,2a,14061,x=0.01,Mg0.99Na0.01Ag0.97Sb0.99,339,0.000030116,0.0020035,0.00024552,0.78859,0.86522,33204.9408952052,0.0025406105
4120,10.1016/j.nanoen.2014.11.027,11853,2a,14061,x=0.01,Mg0.99Na0.01Ag0.97Sb0.99,339.5,0.000030087,0.0020041,0.00024542,0.78895,0.8663,33236.9461893841,0.0025402117
4120,10.1016/j.nanoen.2014.11.027,11853,2a,14061,x=0.01,Mg0.99Na0.01Ag0.97Sb0.99,340,0.000030058,0.0020046,0.00024531,0.78931,0.86738,33269.0132410673,0.0025396866
4120,10.1016/j.nanoen.2014.11.027,11853,2a,14061,x=0.01,Mg0.99Na0.01Ag0.97Sb0.99,340.5,0.000030029,0.0020052,0.00024521,0.78966,0.86847,33301.1422291785,0.0025393207
4120,10.1016/j.nanoen.2014.11.027,11853,2a,14061,x=0.01,Mg0.99Na0.01Ag0.97Sb0.99,341,0.00003,0.0020058,0.0002451,0.79002,0.86955,33333.3333333333,0.0025389231
4120,10.1016/j.nanoen.2014.11.027,11853,2a,14061,x=0.01,Mg0.99Na0.01Ag0.97Sb0.99,341.5,0.000029971,0.0020063,0.000245,0.79037,0.87063,33365.5867338427,0.0025384314
4120,10.1016/j.nanoen.2014.11.027,11853,2a,14061,x=0.01,Mg0.99Na0.01Ag0.97Sb0.99,342,0.000029942,0.0020069,0.00024489,0.79073,0.87171,33397.902611716,0.0025380345
4120,10.1016/j.nanoen.2014.11.027,11853,2a,14061,x=0.01,Mg0.99Na0.01Ag0.97Sb0.99,342.5,0.000029914,0.0020075,0.00024479,0.79108,0.8728,33429.1636023267,0.00253767
4120,10.1016/j.nanoen.2014.11.027,11853,2a,14061,x=0.01,Mg0.99Na0.01Ag0.97Sb0.99,343,0.000029885,0.0020081,0.00024469,0.79144,0.87388,33461.6028107746,0.0025372738
4120,10.1016/j.nanoen.2014.11.027,11853,2a,14061,x=0.01,Mg0.99Na0.01Ag0.97Sb0.99,343.5,0.000029856,0.0020086,0.00024458,0.7918,0.87496,33494.1050375134,0.0025367517
4120,10.1016/j.nanoen.2014.11.027,11853,2a,14061,x=0.01,Mg0.99Na0.01Ag0.97Sb0.99,344,0.000029827,0.0020092,0.00024448,0.79215,0.87604,33526.670466356,0.0025363883
4120,10.1016/j.nanoen.2014.11.027,11853,2a,14061,x=0.01,Mg0.99Na0.01Ag0.97Sb0.99,344.5,0.000029798,0.0020098,0.00024437,0.79251,0.87713,33559.299281831,0.0025359932
4120,10.1016/j.nanoen.2014.11.027,11853,2a,14061,x=0.01,Mg0.99Na0.01Ag0.97Sb0.99,345,0.000029769,0.0020103,0.00024427,0.79286,0.87821,33591.9916691861,0.0025355044
4120,10.1016/j.nanoen.2014.11.027,11853,2a,14061,x=0.01,Mg0.99Na0.01Ag0.97Sb0.99,345.5,0.00002974,0.0020109,0.00024416,0.79322,0.87929,33624.7478143914,0.0025351101
4120,10.1016/j.nanoen.2014.11.027,11853,2a,14061,x=0.01,Mg0.99Na0.01Ag0.97Sb0.99,346,0.000029711,0.0020115,0.00024406,0.79358,0.88037,33657.5679041432,0.0025347161
4120,10.1016/j.nanoen.2014.11.027,11853,2a,14061,x=0.01,Mg0.99Na0.01Ag0.97Sb0.99,346.5,0.000029682,0.0020121,0.00024395,0.79393,0.88146,33690.4521258675,0.0025343544
4120,10.1016/j.nanoen.2014.11.027,11853,2a,14061,x=0.01,Mg0.99Na0.01Ag0.97Sb0.99,347,0.000029653,0.0020126,0.00024385,0.79429,0.88254,33723.4006677233,0.0025338352
4120,10.1016/j.nanoen.2014.11.027,11853,2a,14061,x=0.01,Mg0.99Na0.01Ag0.97Sb0.99,347.5,0.000029624,0.0020132,0.00024374,0.79464,0.88362,33756.4137186065,0.0025334743
4120,10.1016/j.nanoen.2014.11.027,11853,2a,14061,x=0.01,Mg0.99Na0.01Ag0.97Sb0.99,348,0.000029595,0.0020138,0.00024364,0.795,0.8847,33789.4914681534,0.0025330818
4120,10.1016/j.nanoen.2014.11.027,11853,2a,14061,x=0.01,Mg0.99Na0.01Ag0.97Sb0.99,348.5,0.000029566,0.0020144,0.00024353,0.79536,0.88579,33822.6341067442,0.0025326896
4120,10.1016/j.nanoen.2014.11.027,11853,2a,14061,x=0.01,Mg0.99Na0.01Ag0.97Sb0.99,349,0.000029537,0.0020149,0.00024343,0.79571,0.88687,33855.841825507,0.0025322039
4120,10.1016/j.nanoen.2014.11.027,11853,2a,14061,x=0.01,Mg0.99Na0.01Ag0.97Sb0.99,349.5,0.000029508,0.0020155,0.00024332,0.79607,0.88795,33889.114816321,0.0025318125
4120,10.1016/j.nanoen.2014.11.027,11853,2a,14061,x=0.01,Mg0.99Na0.01Ag0.97Sb0.99,350,0.000029479,0.0020161,0.00024322,0.79642,0.88903,33922.4532718206,0.0025314533
4120,10.1016/j.nanoen.2014.11.027,11853,2a,14061,x=0.01,Mg0.99Na0.01Ag0.97Sb0.99,350.5,0.00002945,0.0020166,0.00024311,0.79678,0.89012,33955.857385399,0.002530937
4120,10.1016/j.nanoen.2014.11.027,11853,2a,14061,x=0.01,Mg0.99Na0.01Ag0.97Sb0.99,351,0.000029421,0.0020172,0.00024301,0.79714,0.8912,33989.3273512117,0.0025305467
4120,10.1016/j.nanoen.2014.11.027,11853,2a,14061,x=0.01,Mg0.99Na0.01Ag0.97Sb0.99,351.5,0.000029392,0.0020178,0.0002429,0.79749,0.89228,34022.8633641807,0.0025301885
4120,10.1016/j.nanoen.2014.11.027,11853,2a,14061,x=0.01,Mg0.99Na0.01Ag0.97Sb0.99,352,0.000029363,0.0020184,0.0002428,0.79785,0.89336,34056.465619998,0.0025297988
4120,10.1016/j.nanoen.2014.11.027,11853,2a,14061,x=0.01,Mg0.99Na0.01Ag0.97Sb0.99,352.5,0.000029334,0.0020189,0.00024269,0.7982,0.89445,34090.1343151292,0.002529316
4120,10.1016/j.nanoen.2014.11.027,11853,2a,14061,x=0.01,Mg0.99Na0.01Ag0.97Sb0.99,353,0.000029305,0.0020195,0.00024259,0.79856,0.89553,34123.8696468179,0.0025289271
4120,10.1016/j.nanoen.2014.11.027,11853,2a,14061,x=0.01,Mg0.99Na0.01Ag0.97Sb0.99,353.5,0.000029276,0.0020201,0.00024248,0.79892,0.89661,34157.6718130892,0.0025285385
4120,10.1016/j.nanoen.2014.11.027,11853,2a,14061,x=0.01,Mg0.99Na0.01Ag0.97Sb0.99,354,0.000029247,0.0020206,0.00024238,0.79927,0.89769,34191.5410127534,0.0025280569
4120,10.1016/j.nanoen.2014.11.027,11853,2a,14061,x=0.01,Mg0.99Na0.01Ag0.97Sb0.99,354.5,0.000029218,0.0020212,0.00024228,0.79963,0.89878,34225.4774454104,0.002527669
4120,10.1016/j.nanoen.2014.11.027,11853,2a,14061,x=0.01,Mg0.99Na0.01Ag0.97Sb0.99,355,0.000029189,0.0020218,0.00024217,0.79998,0.89986,34259.4813114529,0.0025273132
4120,10.1016/j.nanoen.2014.11.027,11853,2a,14061,x=0.01,Mg0.99Na0.01Ag0.97Sb0.99,355.5,0.00002916,0.0020224,0.00024207,0.80034,0.90094,34293.5528120713,0.0025269261
4120,10.1016/j.nanoen.2014.11.027,11853,2a,14061,x=0.01,Mg0.99Na0.01Ag0.97Sb0.99,356,0.000029131,0.0020229,0.00024196,0.8007,0.90203,34327.6921492568,0.0025264144
4120,10.1016/j.nanoen.2014.11.027,11853,2a,14061,x=0.01,Mg0.99Na0.01Ag0.97Sb0.99,356.5,0.000029102,0.0020235,0.00024186,0.80105,0.90311,34361.8995258058,0.0025260595
4120,10.1016/j.nanoen.2014.11.027,11853,2a,14061,x=0.01,Mg0.99Na0.01Ag0.97Sb0.99,357,0.000029073,0.0020241,0.00024175,0.80141,0.90419,34396.1751453238,0.0025256735
4120,10.1016/j.nanoen.2014.11.027,11853,2a,14061,x=0.01,Mg0.99Na0.01Ag0.97Sb0.99,357.5,0.000029044,0.0020246,0.00024165,0.80176,0.90527,34430.5192122297,0.0025251946
4120,10.1016/j.nanoen.2014.11.027,11853,2a,14061,x=0.01,Mg0.99Na0.01Ag0.97Sb0.99,358,0.000029015,0.0020252,0.00024154,0.80212,0.90636,34464.9319317594,0.0025248093
4120,10.1016/j.nanoen.2014.11.027,11853,2a,14061,x=0.01,Mg0.99Na0.01Ag0.97Sb0.99,358.5,0.000028986,0.0020258,0.00024144,0.80248,0.90744,34499.4135099703,0.0025244243
4120,10.1016/j.nanoen.2014.11.027,11853,2a,14061,x=0.01,Mg0.99Na0.01Ag0.97Sb0.99,359,0.000028957,0.0020264,0.00024133,0.80283,0.90852,34533.9641537452,0.0025240711
4120,10.1016/j.nanoen.2014.11.027,11853,2a,14061,x=0.01,Mg0.99Na0.01Ag0.97Sb0.99,359.5,0.000028928,0.0020269,0.00024123,0.80319,0.9096,34568.5840707965,0.0025235623
4120,10.1016/j.nanoen.2014.11.027,11853,2a,14061,x=0.01,Mg0.99Na0.01Ag0.97Sb0.99,360,0.000028899,0.0020275,0.00024112,0.80354,0.91069,34603.2734696702,0.0025232098
4120,10.1016/j.nanoen.2014.11.027,11853,2a,14061,x=0.01,Mg0.99Na0.01Ag0.97Sb0.99,360.5,0.00002887,0.0020281,0.00024102,0.8039,0.91177,34638.0325597506,0.0025228262
4120,10.1016/j.nanoen.2014.11.027,11853,2a,14061,x=0.01,Mg0.99Na0.01Ag0.97Sb0.99,361,0.000028841,0.0020286,0.00024091,0.80426,0.91285,34672.8615512638,0.0025223187
4120,10.1016/j.nanoen.2014.11.027,11853,2a,14061,x=0.01,Mg0.99Na0.01Ag0.97Sb0.99,361.5,0.000028812,0.0020292,0.00024081,0.80461,0.91393,34707.7606552825,0.0025219672