sid,DOI,figureid,fignum,sampleid,samplename,composition,Temperature,Electrical resistivity,Power factor,Seebeck coefficient,Thermal conductivity,ZT,Electrical conductivity,Figure of merit Z
4120,10.1016/j.nanoen.2014.11.027,11853,2a,14058,x=0.0,MgAg0.97Sb0.99,431.5,0.000030893,0.0019884,0.00024497,0.82484,1.0403,32369.79250963,0.0024106493
4120,10.1016/j.nanoen.2014.11.027,11853,2a,14058,x=0.0,MgAg0.97Sb0.99,432,0.000030846,0.0019893,0.00024484,0.82523,1.0414,32419.1143097971,0.0024106007
4120,10.1016/j.nanoen.2014.11.027,11853,2a,14058,x=0.0,MgAg0.97Sb0.99,432.5,0.000030799,0.0019902,0.00024471,0.82562,1.0426,32468.5866424235,0.0024105521
4120,10.1016/j.nanoen.2014.11.027,11853,2a,14058,x=0.0,MgAg0.97Sb0.99,433,0.000030752,0.001991,0.00024457,0.82601,1.0437,32518.2101977107,0.0024103824
4120,10.1016/j.nanoen.2014.11.027,11853,2a,14058,x=0.0,MgAg0.97Sb0.99,433.5,0.000030705,0.0019919,0.00024444,0.8264,1.0449,32567.9856700863,0.002410334
4120,10.1016/j.nanoen.2014.11.027,11853,2a,14058,x=0.0,MgAg0.97Sb0.99,434,0.000030658,0.0019928,0.00024431,0.82679,1.046,32617.913758236,0.0024102856
4120,10.1016/j.nanoen.2014.11.027,11853,2a,14058,x=0.0,MgAg0.97Sb0.99,434.5,0.00003061,0.0019936,0.00024417,0.82718,1.0472,32669.0623979092,0.0024101163
4120,10.1016/j.nanoen.2014.11.027,11853,2a,14058,x=0.0,MgAg0.97Sb0.99,435,0.000030563,0.0019945,0.00024404,0.82757,1.0483,32719.3011157282,0.002410068
4120,10.1016/j.nanoen.2014.11.027,11853,2a,14058,x=0.0,MgAg0.97Sb0.99,435.5,0.000030516,0.0019954,0.00024391,0.82796,1.0495,32769.6945864465,0.0024100198
4120,10.1016/j.nanoen.2014.11.027,11853,2a,14058,x=0.0,MgAg0.97Sb0.99,436,0.000030469,0.0019962,0.00024378,0.82835,1.0506,32820.243526207,0.0024098509
4120,10.1016/j.nanoen.2014.11.027,11853,2a,14058,x=0.0,MgAg0.97Sb0.99,436.5,0.000030422,0.0019971,0.00024364,0.82874,1.0517,32870.9486555782,0.0024098028
4120,10.1016/j.nanoen.2014.11.027,11853,2a,14058,x=0.0,MgAg0.97Sb0.99,437,0.000030375,0.001998,0.00024351,0.82913,1.0529,32921.8106995885,0.0024097548
4120,10.1016/j.nanoen.2014.11.027,11853,2a,14058,x=0.0,MgAg0.97Sb0.99,437.5,0.000030328,0.0019988,0.00024338,0.82952,1.054,32972.8303877605,0.0024095863
4120,10.1016/j.nanoen.2014.11.027,11853,2a,14058,x=0.0,MgAg0.97Sb0.99,438,0.000030281,0.0019997,0.00024324,0.82991,1.0552,33024.0084541462,0.0024095384
4120,10.1016/j.nanoen.2014.11.027,11853,2a,14058,x=0.0,MgAg0.97Sb0.99,438.5,0.000030234,0.0020006,0.00024311,0.8303,1.0563,33075.3456373619,0.0024094905
4120,10.1016/j.nanoen.2014.11.027,11853,2a,14058,x=0.0,MgAg0.97Sb0.99,439,0.000030187,0.0020014,0.00024298,0.83068,1.0575,33126.8426806241,0.0024093514
4120,10.1016/j.nanoen.2014.11.027,11853,2a,14058,x=0.0,MgAg0.97Sb0.99,439.5,0.00003014,0.0020023,0.00024284,0.83107,1.0586,33178.500331785,0.0024093037
4120,10.1016/j.nanoen.2014.11.027,11853,2a,14058,x=0.0,MgAg0.97Sb0.99,440,0.000030092,0.0020031,0.00024271,0.83146,1.0598,33231.4236341885,0.0024091357
4120,10.1016/j.nanoen.2014.11.027,11853,2a,14058,x=0.0,MgAg0.97Sb0.99,440.5,0.000030045,0.002004,0.00024258,0.83185,1.0609,33283.4082210018,0.0024090882
4120,10.1016/j.nanoen.2014.11.027,11853,2a,14058,x=0.0,MgAg0.97Sb0.99,441,0.000029998,0.0020049,0.00024244,0.83224,1.062,33335.5557037136,0.0024090407
4120,10.1016/j.nanoen.2014.11.027,11853,2a,14058,x=0.0,MgAg0.97Sb0.99,441.5,0.000029951,0.0020057,0.00024231,0.83263,1.0632,33387.866849187,0.0024088731
4120,10.1016/j.nanoen.2014.11.027,11853,2a,14058,x=0.0,MgAg0.97Sb0.99,442,0.000029904,0.0020066,0.00024218,0.83302,1.0643,33440.3424291065,0.0024088257
4120,10.1016/j.nanoen.2014.11.027,11853,2a,14058,x=0.0,MgAg0.97Sb0.99,442.5,0.000029857,0.0020075,0.00024205,0.83341,1.0655,33492.9832200154,0.0024087784
4120,10.1016/j.nanoen.2014.11.027,11853,2a,14058,x=0.0,MgAg0.97Sb0.99,443,0.00002981,0.0020083,0.00024191,0.8338,1.0666,33545.7900033546,0.0024086112
4120,10.1016/j.nanoen.2014.11.027,11853,2a,14058,x=0.0,MgAg0.97Sb0.99,443.5,0.000029763,0.0020092,0.00024178,0.83419,1.0678,33598.7635655008,0.002408564
4120,10.1016/j.nanoen.2014.11.027,11853,2a,14058,x=0.0,MgAg0.97Sb0.99,444,0.000029716,0.0020101,0.00024165,0.83458,1.0689,33651.9046978059,0.0024085169
4120,10.1016/j.nanoen.2014.11.027,11853,2a,14058,x=0.0,MgAg0.97Sb0.99,444.5,0.000029669,0.0020109,0.00024151,0.83497,1.0701,33705.2141966362,0.00240835
4120,10.1016/j.nanoen.2014.11.027,11853,2a,14058,x=0.0,MgAg0.97Sb0.99,445,0.000029622,0.0020118,0.00024138,0.83536,1.0712,33758.6928634123,0.002408303
4120,10.1016/j.nanoen.2014.11.027,11853,2a,14058,x=0.0,MgAg0.97Sb0.99,445.5,0.000029574,0.0020127,0.00024125,0.83575,1.0724,33813.4848177453,0.0024082561
4120,10.1016/j.nanoen.2014.11.027,11853,2a,14058,x=0.0,MgAg0.97Sb0.99,446,0.000029527,0.0020135,0.00024111,0.83614,1.0735,33867.307887696,0.0024080896
4120,10.1016/j.nanoen.2014.11.027,11853,2a,14058,x=0.0,MgAg0.97Sb0.99,446.5,0.00002948,0.0020144,0.00024098,0.83653,1.0746,33921.302578019,0.0024080427
4120,10.1016/j.nanoen.2014.11.027,11853,2a,14058,x=0.0,MgAg0.97Sb0.99,447,0.000029433,0.0020153,0.00024085,0.83692,1.0758,33975.4697108688,0.002407996
4120,10.1016/j.nanoen.2014.11.027,11853,2a,14058,x=0.0,MgAg0.97Sb0.99,447.5,0.000029386,0.0020161,0.00024072,0.8373,1.0769,34029.8101136596,0.0024078586
4120,10.1016/j.nanoen.2014.11.027,11853,2a,14058,x=0.0,MgAg0.97Sb0.99,448,0.000029339,0.002017,0.00024058,0.83769,1.0781,34084.3246191077,0.002407812
4120,10.1016/j.nanoen.2014.11.027,11853,2a,14058,x=0.0,MgAg0.97Sb0.99,448.5,0.000029292,0.0020179,0.00024045,0.83808,1.0792,34139.0140652738,0.0024077654
4120,10.1016/j.nanoen.2014.11.027,11853,2a,14058,x=0.0,MgAg0.97Sb0.99,449,0.000029245,0.0020187,0.00024032,0.83847,1.0804,34193.8792956061,0.0024075996
4120,10.1016/j.nanoen.2014.11.027,11853,2a,14058,x=0.0,MgAg0.97Sb0.99,449.5,0.000029198,0.0020196,0.00024018,0.83886,1.0815,34248.9211589835,0.0024075531
4120,10.1016/j.nanoen.2014.11.027,11853,2a,14058,x=0.0,MgAg0.97Sb0.99,450,0.000029151,0.0020205,0.00024005,0.83925,1.0827,34304.1405097595,0.0024075067
4120,10.1016/j.nanoen.2014.11.027,11853,2a,14058,x=0.0,MgAg0.97Sb0.99,450.5,0.000029103,0.0020213,0.00023992,0.83964,1.0838,34360.7188262378,0.0024073412
4120,10.1016/j.nanoen.2014.11.027,11853,2a,14058,x=0.0,MgAg0.97Sb0.99,451,0.000029056,0.0020222,0.00023978,0.84003,1.0849,34416.2995594714,0.002407295
4120,10.1016/j.nanoen.2014.11.027,11853,2a,14058,x=0.0,MgAg0.97Sb0.99,451.5,0.000029009,0.0020231,0.00023965,0.84042,1.0861,34472.0603950498,0.0024072488
4120,10.1016/j.nanoen.2014.11.027,11853,2a,14058,x=0.0,MgAg0.97Sb0.99,452,0.000028962,0.0020239,0.00023952,0.84081,1.0872,34528.0022097921,0.0024070836
4120,10.1016/j.nanoen.2014.11.027,11853,2a,14058,x=0.0,MgAg0.97Sb0.99,452.5,0.000028915,0.0020248,0.00023939,0.8412,1.0884,34584.1258862182,0.0024070376
4120,10.1016/j.nanoen.2014.11.027,11853,2a,14058,x=0.0,MgAg0.97Sb0.99,453,0.000028868,0.0020257,0.00023925,0.84159,1.0895,34640.4323125953,0.0024069915
4120,10.1016/j.nanoen.2014.11.027,11853,2a,14058,x=0.0,MgAg0.97Sb0.99,453.5,0.000028821,0.0020265,0.00023912,0.84198,1.0907,34696.9223829846,0.0024068268
4120,10.1016/j.nanoen.2014.11.027,11853,2a,14058,x=0.0,MgAg0.97Sb0.99,454,0.000028774,0.0020274,0.00023899,0.84237,1.0918,34753.5969972892,0.0024067809
4120,10.1016/j.nanoen.2014.11.027,11853,2a,14058,x=0.0,MgAg0.97Sb0.99,454.5,0.000028727,0.0020283,0.00023885,0.84276,1.093,34810.4570613012,0.002406735
4120,10.1016/j.nanoen.2014.11.027,11853,2a,14058,x=0.0,MgAg0.97Sb0.99,455,0.00002868,0.0020291,0.00023872,0.84315,1.0941,34867.5034867503,0.0024065706
4120,10.1016/j.nanoen.2014.11.027,11853,2a,14058,x=0.0,MgAg0.97Sb0.99,455.5,0.000028633,0.00203,0.00023859,0.84353,1.0953,34924.7371913526,0.0024065534
4120,10.1016/j.nanoen.2014.11.027,11853,2a,14058,x=0.0,MgAg0.97Sb0.99,456,0.000028585,0.0020309,0.00023845,0.84392,1.0964,34983.3828931258,0.0024065077
4120,10.1016/j.nanoen.2014.11.027,11853,2a,14058,x=0.0,MgAg0.97Sb0.99,456.5,0.000028538,0.0020317,0.00023832,0.84431,1.0975,35040.9979676221,0.0024063436
4120,10.1016/j.nanoen.2014.11.027,11853,2a,14058,x=0.0,MgAg0.97Sb0.99,457,0.000028491,0.0020326,0.00023819,0.8447,1.0987,35098.8031308132,0.0024062981
4120,10.1016/j.nanoen.2014.11.027,11853,2a,14058,x=0.0,MgAg0.97Sb0.99,457.5,0.000028444,0.0020335,0.00023805,0.84509,1.0998,35156.7993249894,0.0024062526
4120,10.1016/j.nanoen.2014.11.027,11853,2a,14058,x=0.0,MgAg0.97Sb0.99,458,0.000028397,0.0020343,0.00023792,0.84548,1.101,35214.9874986794,0.0024060888
4120,10.1016/j.nanoen.2014.11.027,11853,2a,14058,x=0.0,MgAg0.97Sb0.99,458.5,0.00002835,0.0020352,0.00023779,0.84587,1.1021,35273.3686067019,0.0024060435
4120,10.1016/j.nanoen.2014.11.027,11853,2a,14058,x=0.0,MgAg0.97Sb0.99,459,0.000028303,0.0020361,0.00023766,0.84626,1.1033,35331.943610218,0.0024059982
4120,10.1016/j.nanoen.2014.11.027,11853,2a,14058,x=0.0,MgAg0.97Sb0.99,459.5,0.000028256,0.0020369,0.00023752,0.84665,1.1044,35390.7134767837,0.0024058348
4120,10.1016/j.nanoen.2014.11.027,11853,2a,14058,x=0.0,MgAg0.97Sb0.99,460,0.000028209,0.0020378,0.00023739,0.84704,1.1056,35449.6791804034,0.0024057896
4120,10.1016/j.nanoen.2014.11.027,11853,2a,14058,x=0.0,MgAg0.97Sb0.99,460.5,0.000028162,0.0020387,0.00023726,0.84743,1.1067,35508.8417015837,0.0024057444
4120,10.1016/j.nanoen.2014.11.027,11853,2a,14058,x=0.0,MgAg0.97Sb0.99,461,0.000028115,0.0020395,0.00023712,0.84782,1.1078,35568.2020273875,0.0024055814
4120,10.1016/j.nanoen.2014.11.027,11853,2a,14058,x=0.0,MgAg0.97Sb0.99,461.5,0.000028067,0.0020404,0.00023699,0.84821,1.109,35629.0305340792,0.0024055364
4120,10.1016/j.nanoen.2014.11.027,11853,2a,14058,x=0.0,MgAg0.97Sb0.99,462,0.00002802,0.0020412,0.00023686,0.8486,1.1101,35688.7937187723,0.0024053736
4120,10.1016/j.nanoen.2014.11.027,11853,2a,14058,x=0.0,MgAg0.97Sb0.99,462.5,0.000027973,0.0020421,0.00023672,0.84899,1.1113,35748.7577306689,0.0024053287
4120,10.1016/j.nanoen.2014.11.027,11853,2a,14058,x=0.0,MgAg0.97Sb0.99,463,0.000027926,0.002043,0.00023659,0.84938,1.1124,35808.9235837571,0.0024052839
4120,10.1016/j.nanoen.2014.11.027,11853,2a,14058,x=0.0,MgAg0.97Sb0.99,463.5,0.000027879,0.0020438,0.00023646,0.84977,1.1136,35869.2922988629,0.0024051214
4120,10.1016/j.nanoen.2014.11.027,11853,2a,14058,x=0.0,MgAg0.97Sb0.99,464,0.000027832,0.0020447,0.00023633,0.85015,1.1147,35929.864903708,0.002405105
4120,10.1016/j.nanoen.2014.11.027,11853,2a,14058,x=0.0,MgAg0.97Sb0.99,464.5,0.000027785,0.0020456,0.00023619,0.85054,1.1159,35990.6424329674,0.0024050603
4120,10.1016/j.nanoen.2014.11.027,11853,2a,14058,x=0.0,MgAg0.97Sb0.99,465,0.000027738,0.0020464,0.00023606,0.85093,1.117,36051.6259283294,0.0024048982
4120,10.1016/j.nanoen.2014.11.027,11853,2a,14058,x=0.0,MgAg0.97Sb0.99,465.5,0.000027691,0.0020473,0.00023593,0.85132,1.1182,36112.816438554,0.0024048536
4120,10.1016/j.nanoen.2014.11.027,11853,2a,14058,x=0.0,MgAg0.97Sb0.99,466,0.000027644,0.0020482,0.00023579,0.85171,1.1193,36174.2150195341,0.0024048091
4120,10.1016/j.nanoen.2014.11.027,11853,2a,14058,x=0.0,MgAg0.97Sb0.99,466.5,0.000027596,0.002049,0.00023566,0.8521,1.1204,36237.135816785,0.0024046473
4120,10.1016/j.nanoen.2014.11.027,11853,2a,14058,x=0.0,MgAg0.97Sb0.99,467,0.000027549,0.0020499,0.00023553,0.85249,1.1216,36298.9582198991,0.002404603
4120,10.1016/j.nanoen.2014.11.027,11853,2a,14058,x=0.0,MgAg0.97Sb0.99,467.5,0.000027502,0.0020508,0.00023539,0.85288,1.1227,36360.9919278598,0.0024045587
4120,10.1016/j.nanoen.2014.11.027,11853,2a,14058,x=0.0,MgAg0.97Sb0.99,468,0.000027455,0.0020516,0.00023526,0.85327,1.1239,36423.2380258605,0.0024043972
4120,10.1016/j.nanoen.2014.11.027,11853,2a,14058,x=0.0,MgAg0.97Sb0.99,468.5,0.000027408,0.0020525,0.00023513,0.85366,1.125,36485.6976065382,0.002404353
4120,10.1016/j.nanoen.2014.11.027,11853,2a,14058,x=0.0,MgAg0.97Sb0.99,469,0.000027361,0.0020534,0.00023499,0.85405,1.1262,36548.3717700376,0.0024043089
4120,10.1016/j.nanoen.2014.11.027,11853,2a,14058,x=0.0,MgAg0.97Sb0.99,469.5,0.000027314,0.0020542,0.00023486,0.85444,1.1273,36611.2616240756,0.0024041477
4120,10.1016/j.nanoen.2014.11.027,11853,2a,14058,x=0.0,MgAg0.97Sb0.99,470,0.000027267,0.0020551,0.00023473,0.85483,1.1285,36674.3682840063,0.0024041037
4120,10.1016/j.nanoen.2014.11.027,11853,2a,14058,x=0.0,MgAg0.97Sb0.99,470.5,0.00002722,0.002056,0.0002346,0.85522,1.1296,36737.6928728876,0.0024040598
4120,10.1016/j.nanoen.2014.11.027,11853,2a,14058,x=0.0,MgAg0.97Sb0.99,471,0.000027173,0.0020568,0.00023446,0.85561,1.1307,36801.2365215471,0.002403899
4120,10.1016/j.nanoen.2014.11.027,11853,2a,14058,x=0.0,MgAg0.97Sb0.99,471.5,0.000027126,0.0020577,0.00023433,0.856,1.1319,36865.00036865,0.0024038551
4120,10.1016/j.nanoen.2014.11.027,11853,2a,14058,x=0.0,MgAg0.97Sb0.99,472,0.000027078,0.0020586,0.0002342,0.85638,1.133,36930.349361105,0.0024038394
4120,10.1016/j.nanoen.2014.11.027,11853,2a,14058,x=0.0,MgAg0.97Sb0.99,472.5,0.000027031,0.0020594,0.00023406,0.85677,1.1342,36994.5617994155,0.0024036789
4120,10.1016/j.nanoen.2014.11.027,11853,2a,14058,x=0.0,MgAg0.97Sb0.99,473,0.000026984,0.0020603,0.00023393,0.85716,1.1353,37058.9979246961,0.0024036353
4120,10.1016/j.nanoen.2014.11.027,11853,2a,14058,x=0.0,MgAg0.97Sb0.99,473.5,0.000026937,0.0020612,0.0002338,0.85755,1.1365,37123.658907822,0.0024035916
4120,10.1016/j.nanoen.2014.11.027,11853,2a,14058,x=0.0,MgAg0.97Sb0.99,474,0.00002689,0.002062,0.00023366,0.85794,1.1376,37188.5459278542,0.0024034315
4120,10.1016/j.nanoen.2014.11.027,11853,2a,14058,x=0.0,MgAg0.97Sb0.99,474.5,0.000026843,0.0020629,0.00023353,0.85833,1.1388,37253.6601721119,0.002403388
4120,10.1016/j.nanoen.2014.11.027,11853,2a,14058,x=0.0,MgAg0.97Sb0.99,475,0.000026796,0.0020638,0.0002334,0.85872,1.1399,37319.0028362442,0.0024033445
4120,10.1016/j.nanoen.2014.11.027,11853,2a,14058,x=0.0,MgAg0.97Sb0.99,475.5,0.000026749,0.0020646,0.00023327,0.85911,1.1411,37384.5751243037,0.0024031847
4120,10.1016/j.nanoen.2014.11.027,11853,2a,14058,x=0.0,MgAg0.97Sb0.99,476,0.000026702,0.0020655,0.00023313,0.8595,1.1422,37450.3782488203,0.0024031414
4120,10.1016/j.nanoen.2014.11.027,11853,2a,14058,x=0.0,MgAg0.97Sb0.99,476.5,0.000026655,0.0020664,0.000233,0.85989,1.1433,37516.413430876,0.0024030981
4120,10.1016/j.nanoen.2014.11.027,11853,2a,14058,x=0.0,MgAg0.97Sb0.99,477,0.000026608,0.0020672,0.00023287,0.86028,1.1445,37582.6819001804,0.0024029386
4120,10.1016/j.nanoen.2014.11.027,11853,2a,14058,x=0.0,MgAg0.97Sb0.99,477.5,0.00002656,0.0020681,0.00023273,0.86067,1.1456,37650.6024096386,0.0024028954
4120,10.1016/j.nanoen.2014.11.027,11853,2a,14058,x=0.0,MgAg0.97Sb0.99,478,0.000026513,0.002069,0.0002326,0.86106,1.1468,37717.3462075208,0.0024028523
4120,10.1016/j.nanoen.2014.11.027,11853,2a,14058,x=0.0,MgAg0.97Sb0.99,478.5,0.000026466,0.0020698,0.00023247,0.86145,1.1479,37784.327061135,0.0024026931
4120,10.1016/j.nanoen.2014.11.027,11853,2a,14058,x=0.0,MgAg0.97Sb0.99,479,0.000026419,0.0020707,0.00023233,0.86184,1.1491,37851.5462356637,0.0024026501
4120,10.1016/j.nanoen.2014.11.027,11853,2a,14058,x=0.0,MgAg0.97Sb0.99,479.5,0.000026372,0.0020716,0.0002322,0.86223,1.1502,37919.0050053087,0.0024026072
4120,10.1016/j.nanoen.2014.11.027,11853,2a,14058,x=0.0,MgAg0.97Sb0.99,480,0.000026325,0.0020724,0.00023207,0.86262,1.1514,37986.7046533713,0.0024024484
4120,10.1016/j.nanoen.2014.11.027,11853,2a,14058,x=0.0,MgAg0.97Sb0.99,480.5,0.000026278,0.0020733,0.00023194,0.863,1.1525,38054.6464723343,0.0024024334
4120,10.1016/j.nanoen.2014.11.027,11853,2a,14058,x=0.0,MgAg0.97Sb0.99,481,0.000026231,0.0020742,0.0002318,0.86339,1.1536,38122.8317639434,0.0024023906
4120,10.1016/j.nanoen.2014.11.027,11853,2a,14058,x=0.0,MgAg0.97Sb0.99,481.5,0.000026184,0.002075,0.00023167,0.86378,1.1548,38191.2618392912,0.002402232
4120,10.1016/j.nanoen.2014.11.027,11853,2a,14058,x=0.0,MgAg0.97Sb0.99,482,0.000026137,0.0020759,0.00023154,0.86417,1.1559,38259.9380189004,0.0024021894
4120,10.1016/j.nanoen.2014.11.027,11853,2a,14058,x=0.0,MgAg0.97Sb0.99,482.5,0.00002609,0.0020767,0.0002314,0.86456,1.1571,38328.8616328095,0.0024020311
4120,10.1016/j.nanoen.2014.11.027,11853,2a,14058,x=0.0,MgAg0.97Sb0.99,483,0.000026042,0.0020776,0.00023127,0.86495,1.1582,38399.5084862914,0.0024019886
4120,10.1016/j.nanoen.2014.11.027,11853,2a,14058,x=0.0,MgAg0.97Sb0.99,483.5,0.000025995,0.0020785,0.00023114,0.86534,1.1594,38468.9363339104,0.0024019461
4120,10.1016/j.nanoen.2014.11.027,11853,2a,14058,x=0.0,MgAg0.97Sb0.99,484,0.000025948,0.0020793,0.000231,0.86573,1.1605,38538.6156929243,0.0024017881
4120,10.1016/j.nanoen.2014.11.027,11853,2a,14058,x=0.0,MgAg0.97Sb0.99,484.5,0.000025901,0.0020802,0.00023087,0.86612,1.1617,38608.5479325123,0.0024017457
4120,10.1016/j.nanoen.2014.11.027,11853,2a,14058,x=0.0,MgAg0.97Sb0.99,485,0.000025854,0.0020811,0.00023074,0.86651,1.1628,38678.7344318094,0.0024017034
4120,10.1016/j.nanoen.2014.11.027,11853,2a,14058,x=0.0,MgAg0.97Sb0.99,485.5,0.000025807,0.0020819,0.0002306,0.8669,1.164,38749.1765799977,0.0024015457
4120,10.1016/j.nanoen.2014.11.027,11853,2a,14058,x=0.0,MgAg0.97Sb0.99,486,0.00002576,0.0020828,0.00023047,0.86729,1.1651,38819.8757763975,0.0024015035
4120,10.1016/j.nanoen.2014.11.027,11853,2a,14058,x=0.0,MgAg0.97Sb0.99,486.5,0.000025713,0.0020837,0.00023034,0.86768,1.1662,38890.8334305604,0.0024014614
4120,10.1016/j.nanoen.2014.11.027,11853,2a,14058,x=0.0,MgAg0.97Sb0.99,487,0.000025666,0.0020845,0.00023021,0.86807,1.1674,38962.0509623627,0.002401304
4120,10.1016/j.nanoen.2014.11.027,11853,2a,14058,x=0.0,MgAg0.97Sb0.99,487.5,0.000025619,0.0020854,0.00023007,0.86846,1.1685,39033.5298021,0.002401262
4120,10.1016/j.nanoen.2014.11.027,11853,2a,14058,x=0.0,MgAg0.97Sb0.99,488,0.000025571,0.0020863,0.00022994,0.86885,1.1697,39106.800672637,0.00240122
4120,10.1016/j.nanoen.2014.11.027,11853,2a,14058,x=0.0,MgAg0.97Sb0.99,488.5,0.000025524,0.0020871,0.00022981,0.86923,1.1708,39178.8120984172,0.0024010906
4120,10.1016/j.nanoen.2014.11.027,11853,2a,14058,x=0.0,MgAg0.97Sb0.99,489,0.000025477,0.002088,0.00022967,0.86962,1.172,39251.0892177258,0.0024010487
4120,10.1016/j.nanoen.2014.11.027,11853,2a,14058,x=0.0,MgAg0.97Sb0.99,489.5,0.00002543,0.0020889,0.00022954,0.87001,1.1731,39323.6335037357,0.0024010069
4120,10.1016/j.nanoen.2014.11.027,11853,2a,14058,x=0.0,MgAg0.97Sb0.99,490,0.000025383,0.0020897,0.00022941,0.8704,1.1743,39396.4464405311,0.0024008502
4120,10.1016/j.nanoen.2014.11.027,11853,2a,14058,x=0.0,MgAg0.97Sb0.99,490.5,0.000025336,0.0020906,0.00022927,0.87079,1.1754,39469.5295232081,0.0024008085
4120,10.1016/j.nanoen.2014.11.027,11853,2a,14058,x=0.0,MgAg0.97Sb0.99,491,0.000025289,0.0020915,0.00022914,0.87118,1.1765,39542.8842579778,0.0024007668
4120,10.1016/j.nanoen.2014.11.027,11853,2a,14058,x=0.0,MgAg0.97Sb0.99,491.5,0.000025242,0.0020923,0.00022901,0.87157,1.1777,39616.5121622692,0.0024006104
4120,10.1016/j.nanoen.2014.11.027,11853,2a,14058,x=0.0,MgAg0.97Sb0.99,492,0.000025195,0.0020932,0.00022888,0.87196,1.1788,39690.4147648343,0.0024005688
4120,10.1016/j.nanoen.2014.11.027,11853,2a,14058,x=0.0,MgAg0.97Sb0.99,492.5,0.000025148,0.0020941,0.00022874,0.87235,1.18,39764.5936058533,0.0024005273
4120,10.1016/j.nanoen.2014.11.027,11853,2a,14058,x=0.0,MgAg0.97Sb0.99,493,0.000025101,0.0020949,0.00022861,0.87274,1.1811,39839.0502370423,0.0024003712
4120,10.1016/j.nanoen.2014.11.027,11853,2a,14058,x=0.0,MgAg0.97Sb0.99,493.5,0.000025053,0.0020958,0.00022848,0.87313,1.1823,39915.3793956812,0.0024003298
4120,10.1016/j.nanoen.2014.11.027,11853,2a,14058,x=0.0,MgAg0.97Sb0.99,494,0.000025006,0.0020967,0.00022834,0.87352,1.1834,39990.4023034472,0.0024002885
4120,10.1016/j.nanoen.2014.11.027,11853,2a,14058,x=0.0,MgAg0.97Sb0.99,494.5,0.000024959,0.0020975,0.00022821,0.87391,1.1846,40065.7077607276,0.0024001327
4120,10.1016/j.nanoen.2014.11.027,11853,2a,14058,x=0.0,MgAg0.97Sb0.99,495,0.000024912,0.0020984,0.00022808,0.8743,1.1857,40141.2973667309,0.0024000915
4120,10.1016/j.nanoen.2014.11.027,11853,2a,14058,x=0.0,MgAg0.97Sb0.99,495.5,0.000024865,0.0020993,0.00022794,0.87469,1.1869,40217.1727327569,0.0024000503
4120,10.1016/j.nanoen.2014.11.027,11853,2a,14058,x=0.0,MgAg0.97Sb0.99,496,0.000024818,0.0021001,0.00022781,0.87508,1.188,40293.3354823112,0.0023998949