sid,DOI,figureid,fignum,sampleid,samplename,composition,Temperature,Electrical resistivity,Power factor,Seebeck coefficient,Thermal conductivity,ZT,Electrical conductivity,Figure of merit Z
4120,10.1016/j.nanoen.2014.11.027,11853,2a,14060,x=0.0075,Mg0.9925Na0.0075Ag0.97Sb0.99,428,0.000022827,0.0021374,0.00021944,0.84928,1.0745,43807.7714986639,0.00251672
4120,10.1016/j.nanoen.2014.11.027,11853,2a,14060,x=0.0075,Mg0.9925Na0.0075Ag0.97Sb0.99,428.5,0.000022801,0.0021379,0.00021934,0.84965,1.0756,43857.7255383536,0.0025162126
4120,10.1016/j.nanoen.2014.11.027,11853,2a,14060,x=0.0075,Mg0.9925Na0.0075Ag0.97Sb0.99,429,0.000022775,0.0021384,0.00021923,0.85003,1.0766,43907.7936333699,0.0025156759
4120,10.1016/j.nanoen.2014.11.027,11853,2a,14060,x=0.0075,Mg0.9925Na0.0075Ag0.97Sb0.99,429.5,0.000022749,0.0021389,0.00021913,0.8504,1.0777,43957.9761747769,0.0025151693
4120,10.1016/j.nanoen.2014.11.027,11853,2a,14060,x=0.0075,Mg0.9925Na0.0075Ag0.97Sb0.99,430,0.000022723,0.0021394,0.00021903,0.85077,1.0787,44008.2735554284,0.0025146632
4120,10.1016/j.nanoen.2014.11.027,11853,2a,14060,x=0.0075,Mg0.9925Na0.0075Ag0.97Sb0.99,430.5,0.000022698,0.0021399,0.00021892,0.85115,1.0798,44056.7450876729,0.0025141279
4120,10.1016/j.nanoen.2014.11.027,11853,2a,14060,x=0.0075,Mg0.9925Na0.0075Ag0.97Sb0.99,431,0.000022672,0.0021404,0.00021882,0.85152,1.0808,44107.2688779111,0.0025136227
4120,10.1016/j.nanoen.2014.11.027,11853,2a,14060,x=0.0075,Mg0.9925Na0.0075Ag0.97Sb0.99,431.5,0.000022646,0.0021409,0.00021872,0.85189,1.0818,44157.9086814448,0.0025131179
4120,10.1016/j.nanoen.2014.11.027,11853,2a,14060,x=0.0075,Mg0.9925Na0.0075Ag0.97Sb0.99,432,0.00002262,0.0021414,0.00021862,0.85226,1.0829,44208.6648983201,0.0025126135
4120,10.1016/j.nanoen.2014.11.027,11853,2a,14060,x=0.0075,Mg0.9925Na0.0075Ag0.97Sb0.99,432.5,0.000022594,0.0021419,0.00021851,0.85264,1.0839,44259.537930424,0.0025120801
4120,10.1016/j.nanoen.2014.11.027,11853,2a,14060,x=0.0075,Mg0.9925Na0.0075Ag0.97Sb0.99,433,0.000022568,0.0021424,0.00021841,0.85301,1.085,44310.5281814959,0.0025115767
4120,10.1016/j.nanoen.2014.11.027,11853,2a,14060,x=0.0075,Mg0.9925Na0.0075Ag0.97Sb0.99,433.5,0.000022542,0.0021429,0.00021831,0.85338,1.086,44361.6360571378,0.0025110736
4120,10.1016/j.nanoen.2014.11.027,11853,2a,14060,x=0.0075,Mg0.9925Na0.0075Ag0.97Sb0.99,434,0.000022516,0.0021433,0.0002182,0.85376,1.087,44412.861964825,0.0025104245
4120,10.1016/j.nanoen.2014.11.027,11853,2a,14060,x=0.0075,Mg0.9925Na0.0075Ag0.97Sb0.99,434.5,0.00002249,0.0021438,0.0002181,0.85413,1.0881,44464.2063139173,0.0025099224
4120,10.1016/j.nanoen.2014.11.027,11853,2a,14060,x=0.0075,Mg0.9925Na0.0075Ag0.97Sb0.99,435,0.000022464,0.0021443,0.000218,0.8545,1.0891,44515.6695156695,0.0025094207
4120,10.1016/j.nanoen.2014.11.027,11853,2a,14060,x=0.0075,Mg0.9925Na0.0075Ag0.97Sb0.99,435.5,0.000022439,0.0021448,0.0002179,0.85488,1.0902,44565.2658318107,0.0025088901
4120,10.1016/j.nanoen.2014.11.027,11853,2a,14060,x=0.0075,Mg0.9925Na0.0075Ag0.97Sb0.99,436,0.000022413,0.0021453,0.00021779,0.85525,1.0912,44616.9633694731,0.0025083894
4120,10.1016/j.nanoen.2014.11.027,11853,2a,14060,x=0.0075,Mg0.9925Na0.0075Ag0.97Sb0.99,436.5,0.000022387,0.0021458,0.00021769,0.85562,1.0922,44668.7809889668,0.002507889
4120,10.1016/j.nanoen.2014.11.027,11853,2a,14060,x=0.0075,Mg0.9925Na0.0075Ag0.97Sb0.99,437,0.000022361,0.0021463,0.00021759,0.85599,1.0933,44720.7191091633,0.0025073891
4120,10.1016/j.nanoen.2014.11.027,11853,2a,14060,x=0.0075,Mg0.9925Na0.0075Ag0.97Sb0.99,437.5,0.000022335,0.0021468,0.00021748,0.85637,1.0943,44772.7781508843,0.0025068604
4120,10.1016/j.nanoen.2014.11.027,11853,2a,14060,x=0.0075,Mg0.9925Na0.0075Ag0.97Sb0.99,438,0.000022309,0.0021473,0.00021738,0.85674,1.0954,44824.9585369134,0.0025063613
4120,10.1016/j.nanoen.2014.11.027,11853,2a,14060,x=0.0075,Mg0.9925Na0.0075Ag0.97Sb0.99,438.5,0.000022283,0.0021478,0.00021728,0.85711,1.0964,44877.2606920074,0.0025058627
4120,10.1016/j.nanoen.2014.11.027,11853,2a,14060,x=0.0075,Mg0.9925Na0.0075Ag0.97Sb0.99,439,0.000022257,0.0021483,0.00021717,0.85749,1.0975,44929.6850429078,0.0025053353
4120,10.1016/j.nanoen.2014.11.027,11853,2a,14060,x=0.0075,Mg0.9925Na0.0075Ag0.97Sb0.99,439.5,0.000022231,0.0021488,0.00021707,0.85786,1.0985,44982.2320183527,0.0025048376
4120,10.1016/j.nanoen.2014.11.027,11853,2a,14060,x=0.0075,Mg0.9925Na0.0075Ag0.97Sb0.99,440,0.000022205,0.0021493,0.00021697,0.85823,1.0995,45034.9020490881,0.0025043403
4120,10.1016/j.nanoen.2014.11.027,11853,2a,14060,x=0.0075,Mg0.9925Na0.0075Ag0.97Sb0.99,440.5,0.00002218,0.0021498,0.00021687,0.8586,1.1006,45085.6627592426,0.0025038435
4120,10.1016/j.nanoen.2014.11.027,11853,2a,14060,x=0.0075,Mg0.9925Na0.0075Ag0.97Sb0.99,441,0.000022154,0.0021503,0.00021676,0.85898,1.1016,45138.5754265595,0.0025033179
4120,10.1016/j.nanoen.2014.11.027,11853,2a,14060,x=0.0075,Mg0.9925Na0.0075Ag0.97Sb0.99,441.5,0.000022128,0.0021508,0.00021666,0.85935,1.1027,45191.6124367317,0.0025028219
4120,10.1016/j.nanoen.2014.11.027,11853,2a,14060,x=0.0075,Mg0.9925Na0.0075Ag0.97Sb0.99,442,0.000022102,0.0021513,0.00021656,0.85972,1.1037,45244.7742285766,0.0025023263
4120,10.1016/j.nanoen.2014.11.027,11853,2a,14060,x=0.0075,Mg0.9925Na0.0075Ag0.97Sb0.99,442.5,0.000022076,0.0021518,0.00021645,0.8601,1.1047,45298.0612429788,0.0025018021
4120,10.1016/j.nanoen.2014.11.027,11853,2a,14060,x=0.0075,Mg0.9925Na0.0075Ag0.97Sb0.99,443,0.00002205,0.0021523,0.00021635,0.86047,1.1058,45351.4739229025,0.0025013074
4120,10.1016/j.nanoen.2014.11.027,11853,2a,14060,x=0.0075,Mg0.9925Na0.0075Ag0.97Sb0.99,443.5,0.000022024,0.0021528,0.00021625,0.86084,1.1068,45405.0127134036,0.0025008132
4120,10.1016/j.nanoen.2014.11.027,11853,2a,14060,x=0.0075,Mg0.9925Na0.0075Ag0.97Sb0.99,444,0.000021998,0.0021533,0.00021615,0.86121,1.1079,45458.678061642,0.0025003193
4120,10.1016/j.nanoen.2014.11.027,11853,2a,14060,x=0.0075,Mg0.9925Na0.0075Ag0.97Sb0.99,444.5,0.000021972,0.0021538,0.00021604,0.86159,1.1089,45512.4704168942,0.0024997969
4120,10.1016/j.nanoen.2014.11.027,11853,2a,14060,x=0.0075,Mg0.9925Na0.0075Ag0.97Sb0.99,445,0.000021946,0.0021543,0.00021594,0.86196,1.1099,45566.3902305659,0.0024993039
4120,10.1016/j.nanoen.2014.11.027,11853,2a,14060,x=0.0075,Mg0.9925Na0.0075Ag0.97Sb0.99,445.5,0.000021921,0.0021548,0.00021584,0.86233,1.111,45618.3568267871,0.0024988114
4120,10.1016/j.nanoen.2014.11.027,11853,2a,14060,x=0.0075,Mg0.9925Na0.0075Ag0.97Sb0.99,446,0.000021895,0.0021553,0.00021573,0.86271,1.112,45672.5279744234,0.0024982903
4120,10.1016/j.nanoen.2014.11.027,11853,2a,14060,x=0.0075,Mg0.9925Na0.0075Ag0.97Sb0.99,446.5,0.000021869,0.0021558,0.00021563,0.86308,1.1131,45726.8279299465,0.0024977986
4120,10.1016/j.nanoen.2014.11.027,11853,2a,14060,x=0.0075,Mg0.9925Na0.0075Ag0.97Sb0.99,447,0.000021843,0.0021563,0.00021553,0.86345,1.1141,45781.2571533214,0.0024973073
4120,10.1016/j.nanoen.2014.11.027,11853,2a,14060,x=0.0075,Mg0.9925Na0.0075Ag0.97Sb0.99,447.5,0.000021817,0.0021568,0.00021543,0.86382,1.1152,45835.8161067058,0.0024968165
4120,10.1016/j.nanoen.2014.11.027,11853,2a,14060,x=0.0075,Mg0.9925Na0.0075Ag0.97Sb0.99,448,0.000021791,0.0021572,0.00021532,0.8642,1.1162,45890.5052544629,0.0024961814
4120,10.1016/j.nanoen.2014.11.027,11853,2a,14060,x=0.0075,Mg0.9925Na0.0075Ag0.97Sb0.99,448.5,0.000021765,0.0021577,0.00021522,0.86457,1.1172,45945.3250631748,0.0024956915
4120,10.1016/j.nanoen.2014.11.027,11853,2a,14060,x=0.0075,Mg0.9925Na0.0075Ag0.97Sb0.99,449,0.000021739,0.0021582,0.00021512,0.86494,1.1183,46000.276001656,0.002495202
4120,10.1016/j.nanoen.2014.11.027,11853,2a,14060,x=0.0075,Mg0.9925Na0.0075Ag0.97Sb0.99,449.5,0.000021713,0.0021587,0.00021501,0.86532,1.1193,46055.3585409662,0.002494684
4120,10.1016/j.nanoen.2014.11.027,11853,2a,14060,x=0.0075,Mg0.9925Na0.0075Ag0.97Sb0.99,450,0.000021687,0.0021592,0.00021491,0.86569,1.1204,46110.5731544243,0.0024941954
4120,10.1016/j.nanoen.2014.11.027,11853,2a,14060,x=0.0075,Mg0.9925Na0.0075Ag0.97Sb0.99,450.5,0.000021662,0.0021597,0.00021481,0.86606,1.1214,46163.7891238113,0.0024937071
4120,10.1016/j.nanoen.2014.11.027,11853,2a,14060,x=0.0075,Mg0.9925Na0.0075Ag0.97Sb0.99,451,0.000021636,0.0021602,0.00021471,0.86643,1.1224,46219.2641893141,0.0024932193
4120,10.1016/j.nanoen.2014.11.027,11853,2a,14060,x=0.0075,Mg0.9925Na0.0075Ag0.97Sb0.99,451.5,0.00002161,0.0021607,0.0002146,0.86681,1.1235,46274.8727441,0.0024927031
4120,10.1016/j.nanoen.2014.11.027,11853,2a,14060,x=0.0075,Mg0.9925Na0.0075Ag0.97Sb0.99,452,0.000021584,0.0021612,0.0002145,0.86718,1.1245,46330.6152705708,0.0024922161
4120,10.1016/j.nanoen.2014.11.027,11853,2a,14060,x=0.0075,Mg0.9925Na0.0075Ag0.97Sb0.99,452.5,0.000021558,0.0021617,0.0002144,0.86755,1.1256,46386.4922534558,0.0024917296
4120,10.1016/j.nanoen.2014.11.027,11853,2a,14060,x=0.0075,Mg0.9925Na0.0075Ag0.97Sb0.99,453,0.000021532,0.0021622,0.00021429,0.86793,1.1266,46442.5041798254,0.0024912147
4120,10.1016/j.nanoen.2014.11.027,11853,2a,14060,x=0.0075,Mg0.9925Na0.0075Ag0.97Sb0.99,453.5,0.000021506,0.0021627,0.00021419,0.8683,1.1277,46498.6515391054,0.002490729
4120,10.1016/j.nanoen.2014.11.027,11853,2a,14060,x=0.0075,Mg0.9925Na0.0075Ag0.97Sb0.99,454,0.00002148,0.0021632,0.00021409,0.86867,1.1287,46554.9348230912,0.0024902437
4120,10.1016/j.nanoen.2014.11.027,11853,2a,14060,x=0.0075,Mg0.9925Na0.0075Ag0.97Sb0.99,454.5,0.000021454,0.0021637,0.00021398,0.86904,1.1297,46611.3545259625,0.0024897588
4120,10.1016/j.nanoen.2014.11.027,11853,2a,14060,x=0.0075,Mg0.9925Na0.0075Ag0.97Sb0.99,455,0.000021428,0.0021642,0.00021388,0.86942,1.1308,46667.9111442972,0.0024892457
4120,10.1016/j.nanoen.2014.11.027,11853,2a,14060,x=0.0075,Mg0.9925Na0.0075Ag0.97Sb0.99,455.5,0.000021403,0.0021647,0.00021378,0.86979,1.1318,46722.4220903612,0.0024887617
4120,10.1016/j.nanoen.2014.11.027,11853,2a,14060,x=0.0075,Mg0.9925Na0.0075Ag0.97Sb0.99,456,0.000021377,0.0021652,0.00021368,0.87016,1.1329,46779.2487252655,0.002488278
4120,10.1016/j.nanoen.2014.11.027,11853,2a,14060,x=0.0075,Mg0.9925Na0.0075Ag0.97Sb0.99,456.5,0.000021351,0.0021657,0.00021357,0.87054,1.1339,46836.2137604796,0.0024877662
4120,10.1016/j.nanoen.2014.11.027,11853,2a,14060,x=0.0075,Mg0.9925Na0.0075Ag0.97Sb0.99,457,0.000021325,0.0021662,0.00021347,0.87091,1.1349,46893.3177022274,0.0024872834
4120,10.1016/j.nanoen.2014.11.027,11853,2a,14060,x=0.0075,Mg0.9925Na0.0075Ag0.97Sb0.99,457.5,0.000021299,0.0021667,0.00021337,0.87128,1.136,46950.5610592047,0.002486801
4120,10.1016/j.nanoen.2014.11.027,11853,2a,14060,x=0.0075,Mg0.9925Na0.0075Ag0.97Sb0.99,458,0.000021273,0.0021672,0.00021326,0.87166,1.137,47007.9443425939,0.0024862905
4120,10.1016/j.nanoen.2014.11.027,11853,2a,14060,x=0.0075,Mg0.9925Na0.0075Ag0.97Sb0.99,458.5,0.000021247,0.0021677,0.00021316,0.87203,1.1381,47065.4680660799,0.002485809
4120,10.1016/j.nanoen.2014.11.027,11853,2a,14060,x=0.0075,Mg0.9925Na0.0075Ag0.97Sb0.99,459,0.000021221,0.0021682,0.00021306,0.8724,1.1391,47123.1327458649,0.0024853278
4120,10.1016/j.nanoen.2014.11.027,11853,2a,14060,x=0.0075,Mg0.9925Na0.0075Ag0.97Sb0.99,459.5,0.000021195,0.0021687,0.00021296,0.87277,1.1401,47180.9389006841,0.0024848471
4120,10.1016/j.nanoen.2014.11.027,11853,2a,14060,x=0.0075,Mg0.9925Na0.0075Ag0.97Sb0.99,460,0.000021169,0.0021692,0.00021285,0.87315,1.1412,47238.8870518211,0.0024843383
4120,10.1016/j.nanoen.2014.11.027,11853,2a,14060,x=0.0075,Mg0.9925Na0.0075Ag0.97Sb0.99,460.5,0.000021144,0.0021697,0.00021275,0.87352,1.1422,47294.7408248203,0.0024838584
4120,10.1016/j.nanoen.2014.11.027,11853,2a,14060,x=0.0075,Mg0.9925Na0.0075Ag0.97Sb0.99,461,0.000021118,0.0021702,0.00021265,0.87389,1.1433,47352.9690311583,0.0024833789
4120,10.1016/j.nanoen.2014.11.027,11853,2a,14060,x=0.0075,Mg0.9925Na0.0075Ag0.97Sb0.99,461.5,0.000021092,0.0021707,0.00021254,0.87427,1.1443,47411.3407927176,0.0024828714
4120,10.1016/j.nanoen.2014.11.027,11853,2a,14060,x=0.0075,Mg0.9925Na0.0075Ag0.97Sb0.99,462,0.000021066,0.0021712,0.00021244,0.87464,1.1454,47469.8566410329,0.0024823928
4120,10.1016/j.nanoen.2014.11.027,11853,2a,14060,x=0.0075,Mg0.9925Na0.0075Ag0.97Sb0.99,462.5,0.00002104,0.0021716,0.00021234,0.87501,1.1464,47528.5171102662,0.0024818002
4120,10.1016/j.nanoen.2014.11.027,11853,2a,14060,x=0.0075,Mg0.9925Na0.0075Ag0.97Sb0.99,463,0.000021014,0.0021721,0.00021224,0.87538,1.1474,47587.3227372228,0.0024813224
4120,10.1016/j.nanoen.2014.11.027,11853,2a,14060,x=0.0075,Mg0.9925Na0.0075Ag0.97Sb0.99,463.5,0.000020988,0.0021726,0.00021213,0.87576,1.1485,47646.2740613684,0.0024808167
4120,10.1016/j.nanoen.2014.11.027,11853,2a,14060,x=0.0075,Mg0.9925Na0.0075Ag0.97Sb0.99,464,0.000020962,0.0021731,0.00021203,0.87613,1.1495,47705.371624845,0.0024803397
4120,10.1016/j.nanoen.2014.11.027,11853,2a,14060,x=0.0075,Mg0.9925Na0.0075Ag0.97Sb0.99,464.5,0.000020936,0.0021736,0.00021193,0.8765,1.1506,47764.6159724876,0.0024798631
4120,10.1016/j.nanoen.2014.11.027,11853,2a,14060,x=0.0075,Mg0.9925Na0.0075Ag0.97Sb0.99,465,0.00002091,0.0021741,0.00021182,0.87688,1.1516,47824.0076518412,0.0024793586
4120,10.1016/j.nanoen.2014.11.027,11853,2a,14060,x=0.0075,Mg0.9925Na0.0075Ag0.97Sb0.99,465.5,0.000020885,0.0021746,0.00021172,0.87725,1.1526,47881.2544888676,0.0024788829
4120,10.1016/j.nanoen.2014.11.027,11853,2a,14060,x=0.0075,Mg0.9925Na0.0075Ag0.97Sb0.99,466,0.000020859,0.0021751,0.00021162,0.87762,1.1537,47940.9367659044,0.0024784075
4120,10.1016/j.nanoen.2014.11.027,11853,2a,14060,x=0.0075,Mg0.9925Na0.0075Ag0.97Sb0.99,466.5,0.000020833,0.0021756,0.00021152,0.87799,1.1547,48000.7680122882,0.0024779326
4120,10.1016/j.nanoen.2014.11.027,11853,2a,14060,x=0.0075,Mg0.9925Na0.0075Ag0.97Sb0.99,467,0.000020807,0.0021761,0.00021141,0.87837,1.1558,48060.7487864661,0.0024774298
4120,10.1016/j.nanoen.2014.11.027,11853,2a,14060,x=0.0075,Mg0.9925Na0.0075Ag0.97Sb0.99,467.5,0.000020781,0.0021766,0.00021131,0.87874,1.1568,48120.87964968,0.0024769556
4120,10.1016/j.nanoen.2014.11.027,11853,2a,14060,x=0.0075,Mg0.9925Na0.0075Ag0.97Sb0.99,468,0.000020755,0.0021771,0.00021121,0.87911,1.1578,48181.1611659841,0.0024764819
4120,10.1016/j.nanoen.2014.11.027,11853,2a,14060,x=0.0075,Mg0.9925Na0.0075Ag0.97Sb0.99,468.5,0.000020729,0.0021776,0.0002111,0.87949,1.1589,48241.5939022625,0.0024759804
4120,10.1016/j.nanoen.2014.11.027,11853,2a,14060,x=0.0075,Mg0.9925Na0.0075Ag0.97Sb0.99,469,0.000020703,0.0021781,0.000211,0.87986,1.1599,48302.1784282471,0.0024755075
4120,10.1016/j.nanoen.2014.11.027,11853,2a,14060,x=0.0075,Mg0.9925Na0.0075Ag0.97Sb0.99,469.5,0.000020677,0.0021786,0.0002109,0.88023,1.161,48362.9153165353,0.0024750349
4120,10.1016/j.nanoen.2014.11.027,11853,2a,14060,x=0.0075,Mg0.9925Na0.0075Ag0.97Sb0.99,470,0.000020651,0.0021791,0.00021079,0.8806,1.162,48423.8051426081,0.0024745628
4120,10.1016/j.nanoen.2014.11.027,11853,2a,14060,x=0.0075,Mg0.9925Na0.0075Ag0.97Sb0.99,470.5,0.000020626,0.0021796,0.00021069,0.88098,1.1631,48482.4978182876,0.002474063
4120,10.1016/j.nanoen.2014.11.027,11853,2a,14060,x=0.0075,Mg0.9925Na0.0075Ag0.97Sb0.99,471,0.0000206,0.0021801,0.00021059,0.88135,1.1641,48543.6893203884,0.0024735916
4120,10.1016/j.nanoen.2014.11.027,11853,2a,14060,x=0.0075,Mg0.9925Na0.0075Ag0.97Sb0.99,471.5,0.000020574,0.0021806,0.00021049,0.88172,1.1651,48605.0354816759,0.0024731207
4120,10.1016/j.nanoen.2014.11.027,11853,2a,14060,x=0.0075,Mg0.9925Na0.0075Ag0.97Sb0.99,472,0.000020548,0.0021811,0.00021038,0.8821,1.1662,48666.536889235,0.0024726222
4120,10.1016/j.nanoen.2014.11.027,11853,2a,14060,x=0.0075,Mg0.9925Na0.0075Ag0.97Sb0.99,472.5,0.000020522,0.0021816,0.00021028,0.88247,1.1672,48728.1941331254,0.002472152
4120,10.1016/j.nanoen.2014.11.027,11853,2a,14060,x=0.0075,Mg0.9925Na0.0075Ag0.97Sb0.99,473,0.000020496,0.0021821,0.00021018,0.88284,1.1683,48790.0078064012,0.0024716823
4120,10.1016/j.nanoen.2014.11.027,11853,2a,14060,x=0.0075,Mg0.9925Na0.0075Ag0.97Sb0.99,473.5,0.00002047,0.0021826,0.00021007,0.88321,1.1693,48851.9785051295,0.002471213
4120,10.1016/j.nanoen.2014.11.027,11853,2a,14060,x=0.0075,Mg0.9925Na0.0075Ag0.97Sb0.99,474,0.000020444,0.0021831,0.00020997,0.88359,1.1703,48914.1068284093,0.0024707161
4120,10.1016/j.nanoen.2014.11.027,11853,2a,14060,x=0.0075,Mg0.9925Na0.0075Ag0.97Sb0.99,474.5,0.000020418,0.0021836,0.00020987,0.88396,1.1714,48976.3933783916,0.0024702475
4120,10.1016/j.nanoen.2014.11.027,11853,2a,14060,x=0.0075,Mg0.9925Na0.0075Ag0.97Sb0.99,475,0.000020392,0.0021841,0.00020977,0.88433,1.1724,49038.8387602982,0.0024697794
4120,10.1016/j.nanoen.2014.11.027,11853,2a,14060,x=0.0075,Mg0.9925Na0.0075Ag0.97Sb0.99,475.5,0.000020367,0.0021846,0.00020966,0.88471,1.1735,49099.0327490548,0.0024692837
4120,10.1016/j.nanoen.2014.11.027,11853,2a,14060,x=0.0075,Mg0.9925Na0.0075Ag0.97Sb0.99,476,0.000020341,0.0021851,0.00020956,0.88508,1.1745,49161.7914556806,0.0024688164
4120,10.1016/j.nanoen.2014.11.027,11853,2a,14060,x=0.0075,Mg0.9925Na0.0075Ag0.97Sb0.99,476.5,0.000020315,0.0021855,0.00020946,0.88545,1.1756,49224.710804824,0.0024682365
4120,10.1016/j.nanoen.2014.11.027,11853,2a,14060,x=0.0075,Mg0.9925Na0.0075Ag0.97Sb0.99,477,0.000020289,0.002186,0.00020935,0.88582,1.1766,49287.7914140667,0.00246777
4120,10.1016/j.nanoen.2014.11.027,11853,2a,14060,x=0.0075,Mg0.9925Na0.0075Ag0.97Sb0.99,477.5,0.000020263,0.0021865,0.00020925,0.8862,1.1776,49351.0339041603,0.002467276
4120,10.1016/j.nanoen.2014.11.027,11853,2a,14060,x=0.0075,Mg0.9925Na0.0075Ag0.97Sb0.99,478,0.000020237,0.002187,0.00020915,0.88657,1.1787,49414.4388990463,0.0024668103
4120,10.1016/j.nanoen.2014.11.027,11853,2a,14060,x=0.0075,Mg0.9925Na0.0075Ag0.97Sb0.99,478.5,0.000020211,0.0021875,0.00020905,0.88694,1.1797,49478.007025877,0.002466345
4120,10.1016/j.nanoen.2014.11.027,11853,2a,14060,x=0.0075,Mg0.9925Na0.0075Ag0.97Sb0.99,479,0.000020185,0.002188,0.00020894,0.88732,1.1808,49541.7389150359,0.0024658522
4120,10.1016/j.nanoen.2014.11.027,11853,2a,14060,x=0.0075,Mg0.9925Na0.0075Ag0.97Sb0.99,479.5,0.000020159,0.0021885,0.00020884,0.88769,1.1818,49605.6352001587,0.0024653877
4120,10.1016/j.nanoen.2014.11.027,11853,2a,14060,x=0.0075,Mg0.9925Na0.0075Ag0.97Sb0.99,480,0.000020133,0.002189,0.00020874,0.88806,1.1828,49669.6965181543,0.0024649235
4120,10.1016/j.nanoen.2014.11.027,11853,2a,14060,x=0.0075,Mg0.9925Na0.0075Ag0.97Sb0.99,480.5,0.000020108,0.0021895,0.00020863,0.88843,1.1839,49731.4501690869,0.0024644598
4120,10.1016/j.nanoen.2014.11.027,11853,2a,14060,x=0.0075,Mg0.9925Na0.0075Ag0.97Sb0.99,481,0.000020082,0.00219,0.00020853,0.88881,1.1849,49795.8370680211,0.0024639687
4120,10.1016/j.nanoen.2014.11.027,11853,2a,14060,x=0.0075,Mg0.9925Na0.0075Ag0.97Sb0.99,481.5,0.000020056,0.0021905,0.00020843,0.88918,1.186,49860.3909054647,0.0024635057
4120,10.1016/j.nanoen.2014.11.027,11853,2a,14060,x=0.0075,Mg0.9925Na0.0075Ag0.97Sb0.99,482,0.00002003,0.002191,0.00020833,0.88955,1.187,49925.1123315027,0.0024630431
4120,10.1016/j.nanoen.2014.11.027,11853,2a,14060,x=0.0075,Mg0.9925Na0.0075Ag0.97Sb0.99,482.5,0.000020004,0.0021915,0.00020822,0.88993,1.188,49990.0019996001,0.0024625532
4120,10.1016/j.nanoen.2014.11.027,11853,2a,14060,x=0.0075,Mg0.9925Na0.0075Ag0.97Sb0.99,483,0.000019978,0.002192,0.00020812,0.8903,1.1891,50055.0605666233,0.0024620914
4120,10.1016/j.nanoen.2014.11.027,11853,2a,14060,x=0.0075,Mg0.9925Na0.0075Ag0.97Sb0.99,483.5,0.000019952,0.0021925,0.00020802,0.89067,1.1901,50120.2886928629,0.00246163
4120,10.1016/j.nanoen.2014.11.027,11853,2a,14060,x=0.0075,Mg0.9925Na0.0075Ag0.97Sb0.99,484,0.000019926,0.002193,0.00020791,0.89105,1.1912,50185.6870420556,0.0024611414
4120,10.1016/j.nanoen.2014.11.027,11853,2a,14060,x=0.0075,Mg0.9925Na0.0075Ag0.97Sb0.99,484.5,0.0000199,0.0021935,0.00020781,0.89142,1.1922,50251.256281407,0.0024606807
4120,10.1016/j.nanoen.2014.11.027,11853,2a,14060,x=0.0075,Mg0.9925Na0.0075Ag0.97Sb0.99,485,0.000019874,0.002194,0.00020771,0.89179,1.1933,50316.9970816142,0.0024602205
4120,10.1016/j.nanoen.2014.11.027,11853,2a,14060,x=0.0075,Mg0.9925Na0.0075Ag0.97Sb0.99,485.5,0.000019849,0.0021945,0.0002076,0.89216,1.1943,50380.3718071439,0.0024597606
4120,10.1016/j.nanoen.2014.11.027,11853,2a,14060,x=0.0075,Mg0.9925Na0.0075Ag0.97Sb0.99,486,0.000019823,0.002195,0.0002075,0.89254,1.1953,50446.4510921657,0.0024592735