sid,DOI,figureid,fignum,sampleid,samplename,composition,Temperature,Electrical resistivity,Power factor,Seebeck coefficient,Thermal conductivity,ZT,Electrical conductivity,Figure of merit Z
4120,10.1016/j.nanoen.2014.11.027,11853,2a,14059,x=0.005,Mg0.995Na0.005Ag0.97Sb0.99,373.5,0.000030157,0.0020487,0.0002427,0.8028,0.95198,33159.797062042,0.0025519432
4120,10.1016/j.nanoen.2014.11.027,11853,2a,14059,x=0.005,Mg0.995Na0.005Ag0.97Sb0.99,374,0.00003014,0.0020492,0.00024258,0.80316,0.95304,33178.500331785,0.0025514219
4120,10.1016/j.nanoen.2014.11.027,11853,2a,14059,x=0.005,Mg0.995Na0.005Ag0.97Sb0.99,374.5,0.000030122,0.0020497,0.00024247,0.80352,0.9541,33198.3268043291,0.002550901
4120,10.1016/j.nanoen.2014.11.027,11853,2a,14059,x=0.005,Mg0.995Na0.005Ag0.97Sb0.99,375,0.000030104,0.0020502,0.00024235,0.80388,0.95516,33218.176986447,0.0025503807
4120,10.1016/j.nanoen.2014.11.027,11853,2a,14059,x=0.005,Mg0.995Na0.005Ag0.97Sb0.99,375.5,0.000030086,0.0020507,0.00024224,0.80424,0.95622,33238.050920694,0.0025498607
4120,10.1016/j.nanoen.2014.11.027,11853,2a,14059,x=0.005,Mg0.995Na0.005Ag0.97Sb0.99,376,0.000030068,0.0020512,0.00024212,0.8046,0.95728,33257.9486497273,0.0025493413
4120,10.1016/j.nanoen.2014.11.027,11853,2a,14059,x=0.005,Mg0.995Na0.005Ag0.97Sb0.99,376.5,0.00003005,0.0020517,0.00024201,0.80496,0.95834,33277.8702163062,0.0025488223
4120,10.1016/j.nanoen.2014.11.027,11853,2a,14059,x=0.005,Mg0.995Na0.005Ag0.97Sb0.99,377,0.000030032,0.0020522,0.00024189,0.80532,0.9594,33297.8156632925,0.0025483038
4120,10.1016/j.nanoen.2014.11.027,11853,2a,14059,x=0.005,Mg0.995Na0.005Ag0.97Sb0.99,377.5,0.000030014,0.0020527,0.00024177,0.80568,0.96046,33317.785033651,0.0025477857
4120,10.1016/j.nanoen.2014.11.027,11853,2a,14059,x=0.005,Mg0.995Na0.005Ag0.97Sb0.99,378,0.000029995,0.0020532,0.00024166,0.80604,0.96152,33338.8898149692,0.0025472681
4120,10.1016/j.nanoen.2014.11.027,11853,2a,14059,x=0.005,Mg0.995Na0.005Ag0.97Sb0.99,378.5,0.000029976,0.0020537,0.00024154,0.80639,0.96259,33360.0213504137,0.0025467826
4120,10.1016/j.nanoen.2014.11.027,11853,2a,14059,x=0.005,Mg0.995Na0.005Ag0.97Sb0.99,379,0.000029958,0.0020542,0.00024143,0.80675,0.96365,33380.0654249282,0.0025462659
4120,10.1016/j.nanoen.2014.11.027,11853,2a,14059,x=0.005,Mg0.995Na0.005Ag0.97Sb0.99,379.5,0.000029939,0.0020547,0.00024131,0.80711,0.96471,33401.2492067203,0.0025457496
4120,10.1016/j.nanoen.2014.11.027,11853,2a,14059,x=0.005,Mg0.995Na0.005Ag0.97Sb0.99,380,0.000029919,0.0020552,0.0002412,0.80747,0.96577,33423.5769912096,0.0025452339
4120,10.1016/j.nanoen.2014.11.027,11853,2a,14059,x=0.005,Mg0.995Na0.005Ag0.97Sb0.99,380.5,0.0000299,0.0020557,0.00024108,0.80783,0.96683,33444.8160535117,0.0025447186
4120,10.1016/j.nanoen.2014.11.027,11853,2a,14059,x=0.005,Mg0.995Na0.005Ag0.97Sb0.99,381,0.000029881,0.0020562,0.00024096,0.80819,0.96789,33466.0821257655,0.0025442037
4120,10.1016/j.nanoen.2014.11.027,11853,2a,14059,x=0.005,Mg0.995Na0.005Ag0.97Sb0.99,381.5,0.000029861,0.0020567,0.00024085,0.80855,0.96895,33488.4967013831,0.0025436893
4120,10.1016/j.nanoen.2014.11.027,11853,2a,14059,x=0.005,Mg0.995Na0.005Ag0.97Sb0.99,382,0.000029841,0.0020572,0.00024073,0.80891,0.97001,33510.9413223417,0.0025431754
4120,10.1016/j.nanoen.2014.11.027,11853,2a,14059,x=0.005,Mg0.995Na0.005Ag0.97Sb0.99,382.5,0.000029822,0.0020577,0.00024062,0.80927,0.97107,33532.2915968077,0.0025426619
4120,10.1016/j.nanoen.2014.11.027,11853,2a,14059,x=0.005,Mg0.995Na0.005Ag0.97Sb0.99,383,0.000029802,0.0020582,0.0002405,0.80963,0.97213,33554.7949802027,0.0025421489
4120,10.1016/j.nanoen.2014.11.027,11853,2a,14059,x=0.005,Mg0.995Na0.005Ag0.97Sb0.99,383.5,0.000029781,0.0020587,0.00024039,0.80999,0.97319,33578.4560625902,0.0025416363
4120,10.1016/j.nanoen.2014.11.027,11853,2a,14059,x=0.005,Mg0.995Na0.005Ag0.97Sb0.99,384,0.000029761,0.0020592,0.00024027,0.81035,0.97425,33601.0214710527,0.0025411242
4120,10.1016/j.nanoen.2014.11.027,11853,2a,14059,x=0.005,Mg0.995Na0.005Ag0.97Sb0.99,384.5,0.000029741,0.0020597,0.00024015,0.81071,0.97531,33623.6172287415,0.0025406125
4120,10.1016/j.nanoen.2014.11.027,11853,2a,14059,x=0.005,Mg0.995Na0.005Ag0.97Sb0.99,385,0.00002972,0.0020602,0.00024004,0.81107,0.97637,33647.3755047106,0.0025401013
4120,10.1016/j.nanoen.2014.11.027,11853,2a,14059,x=0.005,Mg0.995Na0.005Ag0.97Sb0.99,385.5,0.000029699,0.0020607,0.00023992,0.81143,0.97743,33671.167379373,0.0025395906
4120,10.1016/j.nanoen.2014.11.027,11853,2a,14059,x=0.005,Mg0.995Na0.005Ag0.97Sb0.99,386,0.000029679,0.0020612,0.00023981,0.81179,0.97849,33693.8576097577,0.0025390803
4120,10.1016/j.nanoen.2014.11.027,11853,2a,14059,x=0.005,Mg0.995Na0.005Ag0.97Sb0.99,386.5,0.000029658,0.0020617,0.00023969,0.81215,0.97955,33717.7152876121,0.0025385705
4120,10.1016/j.nanoen.2014.11.027,11853,2a,14059,x=0.005,Mg0.995Na0.005Ag0.97Sb0.99,387,0.000029636,0.0020622,0.00023958,0.8125,0.98062,33742.7453097584,0.0025380923
4120,10.1016/j.nanoen.2014.11.027,11853,2a,14059,x=0.005,Mg0.995Na0.005Ag0.97Sb0.99,387.5,0.000029615,0.0020627,0.00023946,0.81286,0.98168,33766.6722944454,0.0025375833
4120,10.1016/j.nanoen.2014.11.027,11853,2a,14059,x=0.005,Mg0.995Na0.005Ag0.97Sb0.99,388,0.000029594,0.0020632,0.00023934,0.81322,0.98274,33790.6332364668,0.0025370748
4120,10.1016/j.nanoen.2014.11.027,11853,2a,14059,x=0.005,Mg0.995Na0.005Ag0.97Sb0.99,388.5,0.000029572,0.0020637,0.00023923,0.81358,0.9838,33815.7716759096,0.0025365668
4120,10.1016/j.nanoen.2014.11.027,11853,2a,14059,x=0.005,Mg0.995Na0.005Ag0.97Sb0.99,389,0.00002955,0.0020642,0.00023911,0.81394,0.98486,33840.9475465313,0.0025360592
4120,10.1016/j.nanoen.2014.11.027,11853,2a,14059,x=0.005,Mg0.995Na0.005Ag0.97Sb0.99,389.5,0.000029528,0.0020647,0.000239,0.8143,0.98592,33866.1609319967,0.002535552
4120,10.1016/j.nanoen.2014.11.027,11853,2a,14059,x=0.005,Mg0.995Na0.005Ag0.97Sb0.99,390,0.000029506,0.0020652,0.00023888,0.81466,0.98698,33891.4119162204,0.0025350453
4120,10.1016/j.nanoen.2014.11.027,11853,2a,14059,x=0.005,Mg0.995Na0.005Ag0.97Sb0.99,390.5,0.000029484,0.0020657,0.00023877,0.81502,0.98804,33916.7005833673,0.002534539
4120,10.1016/j.nanoen.2014.11.027,11853,2a,14059,x=0.005,Mg0.995Na0.005Ag0.97Sb0.99,391,0.000029462,0.0020662,0.00023865,0.81538,0.9891,33942.0270178535,0.0025340332
4120,10.1016/j.nanoen.2014.11.027,11853,2a,14059,x=0.005,Mg0.995Na0.005Ag0.97Sb0.99,391.5,0.00002944,0.0020667,0.00023853,0.81574,0.99016,33967.3913043478,0.0025335278
4120,10.1016/j.nanoen.2014.11.027,11853,2a,14059,x=0.005,Mg0.995Na0.005Ag0.97Sb0.99,392,0.000029417,0.0020672,0.00023842,0.8161,0.99122,33993.9490770643,0.0025330229
4120,10.1016/j.nanoen.2014.11.027,11853,2a,14059,x=0.005,Mg0.995Na0.005Ag0.97Sb0.99,392.5,0.000029394,0.0020677,0.0002383,0.81646,0.99228,34020.5484112404,0.0025325184
4120,10.1016/j.nanoen.2014.11.027,11853,2a,14059,x=0.005,Mg0.995Na0.005Ag0.97Sb0.99,393,0.000029371,0.0020682,0.00023819,0.81682,0.99334,34047.1894045147,0.0025320144
4120,10.1016/j.nanoen.2014.11.027,11853,2a,14059,x=0.005,Mg0.995Na0.005Ag0.97Sb0.99,393.5,0.000029348,0.0020687,0.00023807,0.81718,0.9944,34073.8721548317,0.0025315108
4120,10.1016/j.nanoen.2014.11.027,11853,2a,14059,x=0.005,Mg0.995Na0.005Ag0.97Sb0.99,394,0.000029325,0.0020692,0.00023796,0.81754,0.99546,34100.5967604433,0.0025310077
4120,10.1016/j.nanoen.2014.11.027,11853,2a,14059,x=0.005,Mg0.995Na0.005Ag0.97Sb0.99,394.5,0.000029302,0.0020697,0.00023784,0.8179,0.99652,34127.3633199099,0.002530505
4120,10.1016/j.nanoen.2014.11.027,11853,2a,14059,x=0.005,Mg0.995Na0.005Ag0.97Sb0.99,395,0.000029278,0.0020702,0.00023772,0.81826,0.99758,34155.3384794043,0.0025300027
4120,10.1016/j.nanoen.2014.11.027,11853,2a,14059,x=0.005,Mg0.995Na0.005Ag0.97Sb0.99,395.5,0.000029255,0.0020707,0.00023761,0.81861,0.99865,34182.1910784481,0.0025295318
4120,10.1016/j.nanoen.2014.11.027,11853,2a,14059,x=0.005,Mg0.995Na0.005Ag0.97Sb0.99,396,0.000029231,0.0020712,0.00023749,0.81897,0.99971,34210.2562348192,0.0025290304
4120,10.1016/j.nanoen.2014.11.027,11853,2a,14059,x=0.005,Mg0.995Na0.005Ag0.97Sb0.99,396.5,0.000029207,0.0020717,0.00023738,0.81933,1.0008,34238.3675146369,0.0025285294
4120,10.1016/j.nanoen.2014.11.027,11853,2a,14059,x=0.005,Mg0.995Na0.005Ag0.97Sb0.99,397,0.000029183,0.0020722,0.00023726,0.81969,1.0018,34266.5250316965,0.0025280289
4120,10.1016/j.nanoen.2014.11.027,11853,2a,14059,x=0.005,Mg0.995Na0.005Ag0.97Sb0.99,397.5,0.000029159,0.0020727,0.00023715,0.82005,1.0029,34294.728900168,0.0025275288
4120,10.1016/j.nanoen.2014.11.027,11853,2a,14059,x=0.005,Mg0.995Na0.005Ag0.97Sb0.99,398,0.000029135,0.0020732,0.00023703,0.82041,1.0039,34322.9792345976,0.0025270292
4120,10.1016/j.nanoen.2014.11.027,11853,2a,14059,x=0.005,Mg0.995Na0.005Ag0.97Sb0.99,398.5,0.00002911,0.0020737,0.00023691,0.82077,1.005,34352.4562006183,0.00252653
4120,10.1016/j.nanoen.2014.11.027,11853,2a,14059,x=0.005,Mg0.995Na0.005Ag0.97Sb0.99,399,0.000029085,0.0020742,0.0002368,0.82113,1.0061,34381.9838404676,0.0025260312
4120,10.1016/j.nanoen.2014.11.027,11853,2a,14059,x=0.005,Mg0.995Na0.005Ag0.97Sb0.99,399.5,0.000029061,0.0020747,0.00023668,0.82149,1.0071,34410.3781700561,0.0025255329
4120,10.1016/j.nanoen.2014.11.027,11853,2a,14059,x=0.005,Mg0.995Na0.005Ag0.97Sb0.99,400,0.000029036,0.0020752,0.00023657,0.82185,1.0082,34440.0055104009,0.002525035
4120,10.1016/j.nanoen.2014.11.027,11853,2a,14059,x=0.005,Mg0.995Na0.005Ag0.97Sb0.99,400.5,0.000029011,0.0020758,0.00023645,0.82221,1.0093,34469.6839129985,0.0025246592
4120,10.1016/j.nanoen.2014.11.027,11853,2a,14059,x=0.005,Mg0.995Na0.005Ag0.97Sb0.99,401,0.000028986,0.0020763,0.00023634,0.82257,1.0103,34499.4135099703,0.0025241621
4120,10.1016/j.nanoen.2014.11.027,11853,2a,14059,x=0.005,Mg0.995Na0.005Ag0.97Sb0.99,401.5,0.00002896,0.0020768,0.00023622,0.82293,1.0114,34530.3867403315,0.0025236654
4120,10.1016/j.nanoen.2014.11.027,11853,2a,14059,x=0.005,Mg0.995Na0.005Ag0.97Sb0.99,402,0.000028935,0.0020773,0.0002361,0.82329,1.0124,34560.2211854156,0.0025231692
4120,10.1016/j.nanoen.2014.11.027,11853,2a,14059,x=0.005,Mg0.995Na0.005Ag0.97Sb0.99,402.5,0.000028909,0.0020778,0.00023599,0.82365,1.0135,34591.3037462382,0.0025226735
4120,10.1016/j.nanoen.2014.11.027,11853,2a,14059,x=0.005,Mg0.995Na0.005Ag0.97Sb0.99,403,0.000028883,0.0020783,0.00023587,0.82401,1.0146,34622.4422670775,0.0025221781
4120,10.1016/j.nanoen.2014.11.027,11853,2a,14059,x=0.005,Mg0.995Na0.005Ag0.97Sb0.99,403.5,0.000028857,0.0020788,0.00023576,0.82437,1.0156,34653.6368991926,0.0025216832
4120,10.1016/j.nanoen.2014.11.027,11853,2a,14059,x=0.005,Mg0.995Na0.005Ag0.97Sb0.99,404,0.000028831,0.0020793,0.00023564,0.82472,1.0167,34684.887794388,0.0025212193
4120,10.1016/j.nanoen.2014.11.027,11853,2a,14059,x=0.005,Mg0.995Na0.005Ag0.97Sb0.99,404.5,0.000028805,0.0020798,0.00023553,0.82508,1.0177,34716.1951050165,0.0025207253
4120,10.1016/j.nanoen.2014.11.027,11853,2a,14059,x=0.005,Mg0.995Na0.005Ag0.97Sb0.99,405,0.000028779,0.0020803,0.00023541,0.82544,1.0188,34747.5589839814,0.0025202316
4120,10.1016/j.nanoen.2014.11.027,11853,2a,14059,x=0.005,Mg0.995Na0.005Ag0.97Sb0.99,405.5,0.000028752,0.0020808,0.00023529,0.8258,1.0199,34780.1892042293,0.0025197384
4120,10.1016/j.nanoen.2014.11.027,11853,2a,14059,x=0.005,Mg0.995Na0.005Ag0.97Sb0.99,406,0.000028726,0.0020813,0.00023518,0.82616,1.0209,34811.6688714057,0.0025192457
4120,10.1016/j.nanoen.2014.11.027,11853,2a,14059,x=0.005,Mg0.995Na0.005Ag0.97Sb0.99,406.5,0.000028699,0.0020818,0.00023506,0.82652,1.022,34844.4196661905,0.0025187533
4120,10.1016/j.nanoen.2014.11.027,11853,2a,14059,x=0.005,Mg0.995Na0.005Ag0.97Sb0.99,407,0.000028672,0.0020823,0.00023495,0.82688,1.023,34877.2321428571,0.0025182614
4120,10.1016/j.nanoen.2014.11.027,11853,2a,14059,x=0.005,Mg0.995Na0.005Ag0.97Sb0.99,407.5,0.000028645,0.0020828,0.00023483,0.82724,1.0241,34910.1064758248,0.0025177699
4120,10.1016/j.nanoen.2014.11.027,11853,2a,14059,x=0.005,Mg0.995Na0.005Ag0.97Sb0.99,408,0.000028618,0.0020833,0.00023472,0.8276,1.0252,34943.0428401705,0.0025172789
4120,10.1016/j.nanoen.2014.11.027,11853,2a,14059,x=0.005,Mg0.995Na0.005Ag0.97Sb0.99,408.5,0.00002859,0.0020838,0.0002346,0.82796,1.0262,34977.2647778944,0.0025167883
4120,10.1016/j.nanoen.2014.11.027,11853,2a,14059,x=0.005,Mg0.995Na0.005Ag0.97Sb0.99,409,0.000028563,0.0020843,0.00023448,0.82832,1.0273,35010.3280467738,0.002516298
4120,10.1016/j.nanoen.2014.11.027,11853,2a,14059,x=0.005,Mg0.995Na0.005Ag0.97Sb0.99,409.5,0.000028535,0.0020848,0.00023437,0.82868,1.0283,35044.6819695111,0.0025158083
4120,10.1016/j.nanoen.2014.11.027,11853,2a,14059,x=0.005,Mg0.995Na0.005Ag0.97Sb0.99,410,0.000028507,0.0020853,0.00023425,0.82904,1.0294,35079.1033781177,0.0025153189
4120,10.1016/j.nanoen.2014.11.027,11853,2a,14059,x=0.005,Mg0.995Na0.005Ag0.97Sb0.99,410.5,0.00002848,0.0020858,0.00023414,0.8294,1.0305,35112.3595505618,0.00251483
4120,10.1016/j.nanoen.2014.11.027,11853,2a,14059,x=0.005,Mg0.995Na0.005Ag0.97Sb0.99,411,0.000028451,0.0020863,0.00023402,0.82976,1.0315,35148.1494499315,0.0025143415
4120,10.1016/j.nanoen.2014.11.027,11853,2a,14059,x=0.005,Mg0.995Na0.005Ag0.97Sb0.99,411.5,0.000028423,0.0020868,0.00023391,0.83012,1.0326,35182.7745135981,0.0025138534
4120,10.1016/j.nanoen.2014.11.027,11853,2a,14059,x=0.005,Mg0.995Na0.005Ag0.97Sb0.99,412,0.000028395,0.0020873,0.00023379,0.83048,1.0336,35217.4678640606,0.0025133658
4120,10.1016/j.nanoen.2014.11.027,11853,2a,14059,x=0.005,Mg0.995Na0.005Ag0.97Sb0.99,412.5,0.000028366,0.0020878,0.00023367,0.83084,1.0347,35253.472467038,0.0025128785
4120,10.1016/j.nanoen.2014.11.027,11853,2a,14059,x=0.005,Mg0.995Na0.005Ag0.97Sb0.99,413,0.000028338,0.0020883,0.00023356,0.83119,1.0358,35288.305455572,0.0025124219
4120,10.1016/j.nanoen.2014.11.027,11853,2a,14059,x=0.005,Mg0.995Na0.005Ag0.97Sb0.99,413.5,0.000028309,0.0020888,0.00023344,0.83155,1.0368,35324.4551202798,0.0025119355
4120,10.1016/j.nanoen.2014.11.027,11853,2a,14059,x=0.005,Mg0.995Na0.005Ag0.97Sb0.99,414,0.00002828,0.0020893,0.00023333,0.83191,1.0379,35360.6789250354,0.0025114496
4120,10.1016/j.nanoen.2014.11.027,11853,2a,14059,x=0.005,Mg0.995Na0.005Ag0.97Sb0.99,414.5,0.000028251,0.0020898,0.00023321,0.83227,1.0389,35396.9770981558,0.002510964
4120,10.1016/j.nanoen.2014.11.027,11853,2a,14059,x=0.005,Mg0.995Na0.005Ag0.97Sb0.99,415,0.000028222,0.0020903,0.0002331,0.83263,1.04,35433.3498688966,0.0025104788
4120,10.1016/j.nanoen.2014.11.027,11853,2a,14059,x=0.005,Mg0.995Na0.005Ag0.97Sb0.99,415.5,0.000028192,0.0020908,0.00023298,0.83299,1.0411,35471.0556186152,0.0025099941
4120,10.1016/j.nanoen.2014.11.027,11853,2a,14059,x=0.005,Mg0.995Na0.005Ag0.97Sb0.99,416,0.000028163,0.0020913,0.00023286,0.83335,1.0421,35507.5808685154,0.0025095098
4120,10.1016/j.nanoen.2014.11.027,11853,2a,14059,x=0.005,Mg0.995Na0.005Ag0.97Sb0.99,416.5,0.000028133,0.0020918,0.00023275,0.83371,1.0432,35545.4448512423,0.0025090259
4120,10.1016/j.nanoen.2014.11.027,11853,2a,14059,x=0.005,Mg0.995Na0.005Ag0.97Sb0.99,417,0.000028103,0.0020923,0.00023263,0.83407,1.0443,35583.3896737003,0.0025085424
4120,10.1016/j.nanoen.2014.11.027,11853,2a,14059,x=0.005,Mg0.995Na0.005Ag0.97Sb0.99,417.5,0.000028073,0.0020928,0.00023252,0.83443,1.0453,35621.4155950557,0.0025080594
4120,10.1016/j.nanoen.2014.11.027,11853,2a,14059,x=0.005,Mg0.995Na0.005Ag0.97Sb0.99,418,0.000028043,0.0020933,0.0002324,0.83479,1.0464,35659.5228755839,0.0025075768
4120,10.1016/j.nanoen.2014.11.027,11853,2a,14059,x=0.005,Mg0.995Na0.005Ag0.97Sb0.99,418.5,0.000028013,0.0020938,0.00023229,0.83515,1.0474,35697.7117766751,0.0025070945
4120,10.1016/j.nanoen.2014.11.027,11853,2a,14059,x=0.005,Mg0.995Na0.005Ag0.97Sb0.99,419,0.000027983,0.0020943,0.00023217,0.83551,1.0485,35735.9825608405,0.0025066127
4120,10.1016/j.nanoen.2014.11.027,11853,2a,14059,x=0.005,Mg0.995Na0.005Ag0.97Sb0.99,419.5,0.000027952,0.0020948,0.00023205,0.83587,1.0496,35775.6153405839,0.0025061313
4120,10.1016/j.nanoen.2014.11.027,11853,2a,14059,x=0.005,Mg0.995Na0.005Ag0.97Sb0.99,420,0.000027921,0.0020953,0.00023194,0.83623,1.0506,35815.3361269295,0.0025056504
4120,10.1016/j.nanoen.2014.11.027,11853,2a,14059,x=0.005,Mg0.995Na0.005Ag0.97Sb0.99,420.5,0.000027891,0.0020958,0.00023182,0.83659,1.0517,35853.8596679933,0.0025051698
4120,10.1016/j.nanoen.2014.11.027,11853,2a,14059,x=0.005,Mg0.995Na0.005Ag0.97Sb0.99,421,0.00002786,0.0020963,0.00023171,0.83695,1.0527,35893.7544867193,0.0025046896
4120,10.1016/j.nanoen.2014.11.027,11853,2a,14059,x=0.005,Mg0.995Na0.005Ag0.97Sb0.99,421.5,0.000027829,0.0020968,0.00023159,0.8373,1.0538,35933.7381867836,0.0025042398
4120,10.1016/j.nanoen.2014.11.027,11853,2a,14059,x=0.005,Mg0.995Na0.005Ag0.97Sb0.99,422,0.000027797,0.0020973,0.00023148,0.83766,1.0549,35975.1052271828,0.0025037605
4120,10.1016/j.nanoen.2014.11.027,11853,2a,14059,x=0.005,Mg0.995Na0.005Ag0.97Sb0.99,422.5,0.000027766,0.0020978,0.00023136,0.83802,1.0559,36015.2704746813,0.0025032815
4120,10.1016/j.nanoen.2014.11.027,11853,2a,14059,x=0.005,Mg0.995Na0.005Ag0.97Sb0.99,423,0.000027734,0.0020983,0.00023124,0.83838,1.057,36056.825557078,0.002502803
4120,10.1016/j.nanoen.2014.11.027,11853,2a,14059,x=0.005,Mg0.995Na0.005Ag0.97Sb0.99,423.5,0.000027703,0.0020988,0.00023113,0.83874,1.058,36097.1735913078,0.0025023249
4120,10.1016/j.nanoen.2014.11.027,11853,2a,14059,x=0.005,Mg0.995Na0.005Ag0.97Sb0.99,424,0.000027671,0.0020993,0.00023101,0.8391,1.0591,36138.9180007951,0.0025018472
4120,10.1016/j.nanoen.2014.11.027,11853,2a,14059,x=0.005,Mg0.995Na0.005Ag0.97Sb0.99,424.5,0.000027639,0.0020998,0.0002309,0.83946,1.0602,36180.7590723253,0.0025013699
4120,10.1016/j.nanoen.2014.11.027,11853,2a,14059,x=0.005,Mg0.995Na0.005Ag0.97Sb0.99,425,0.000027607,0.0021003,0.00023078,0.83982,1.0612,36222.6971420292,0.002500893
4120,10.1016/j.nanoen.2014.11.027,11853,2a,14059,x=0.005,Mg0.995Na0.005Ag0.97Sb0.99,425.5,0.000027575,0.0021008,0.00023067,0.84018,1.0623,36264.7325475975,0.0025004166
4120,10.1016/j.nanoen.2014.11.027,11853,2a,14059,x=0.005,Mg0.995Na0.005Ag0.97Sb0.99,426,0.000027542,0.0021013,0.00023055,0.84054,1.0633,36308.1838646431,0.0024999405
4120,10.1016/j.nanoen.2014.11.027,11853,2a,14059,x=0.005,Mg0.995Na0.005Ag0.97Sb0.99,426.5,0.00002751,0.0021018,0.00023043,0.8409,1.0644,36350.4180298073,0.0024994649
4120,10.1016/j.nanoen.2014.11.027,11853,2a,14059,x=0.005,Mg0.995Na0.005Ag0.97Sb0.99,427,0.000027477,0.0021023,0.00023032,0.84126,1.0655,36394.0750445827,0.0024989896
4120,10.1016/j.nanoen.2014.11.027,11853,2a,14059,x=0.005,Mg0.995Na0.005Ag0.97Sb0.99,427.5,0.000027444,0.0021028,0.0002302,0.84162,1.0665,36437.8370499927,0.0024985148
4120,10.1016/j.nanoen.2014.11.027,11853,2a,14059,x=0.005,Mg0.995Na0.005Ag0.97Sb0.99,428,0.000027411,0.0021033,0.00023009,0.84198,1.0676,36481.7044252307,0.0024980403
4120,10.1016/j.nanoen.2014.11.027,11853,2a,14059,x=0.005,Mg0.995Na0.005Ag0.97Sb0.99,428.5,0.000027378,0.0021039,0.00022997,0.84234,1.0686,36525.6775513186,0.002497685
4120,10.1016/j.nanoen.2014.11.027,11853,2a,14059,x=0.005,Mg0.995Na0.005Ag0.97Sb0.99,429,0.000027345,0.0021044,0.00022986,0.8427,1.0697,36569.7568111172,0.0024972113
4120,10.1016/j.nanoen.2014.11.027,11853,2a,14059,x=0.005,Mg0.995Na0.005Ag0.97Sb0.99,429.5,0.000027311,0.0021049,0.00022974,0.84306,1.0708,36615.2832192157,0.0024967381
4120,10.1016/j.nanoen.2014.11.027,11853,2a,14059,x=0.005,Mg0.995Na0.005Ag0.97Sb0.99,430,0.000027278,0.0021054,0.00022962,0.84341,1.0718,36659.5791480314,0.0024962948
4120,10.1016/j.nanoen.2014.11.027,11853,2a,14059,x=0.005,Mg0.995Na0.005Ag0.97Sb0.99,430.5,0.000027244,0.0021059,0.00022951,0.84377,1.0729,36705.3296138599,0.0024958223
4120,10.1016/j.nanoen.2014.11.027,11853,2a,14059,x=0.005,Mg0.995Na0.005Ag0.97Sb0.99,431,0.00002721,0.0021064,0.00022939,0.84413,1.0739,36751.1944138184,0.0024953502
4120,10.1016/j.nanoen.2014.11.027,11853,2a,14059,x=0.005,Mg0.995Na0.005Ag0.97Sb0.99,431.5,0.000027176,0.0021069,0.00022928,0.84449,1.075,36797.1739770386,0.0024948786
4120,10.1016/j.nanoen.2014.11.027,11853,2a,14059,x=0.005,Mg0.995Na0.005Ag0.97Sb0.99,432,0.000027142,0.0021074,0.00022916,0.84485,1.0761,36843.2687348021,0.0024944073