sid,DOI,figureid,fignum,sampleid,samplename,composition,Temperature,Electrical resistivity,Power factor,Seebeck coefficient,Thermal conductivity,ZT,Electrical conductivity,Figure of merit Z
4120,10.1016/j.nanoen.2014.11.027,11853,2a,14058,x=0.0,MgAg0.97Sb0.99,302.5,0.000043043,0.001765,0.0002793,,,23232.5813721163,
4120,10.1016/j.nanoen.2014.11.027,11853,2a,14058,x=0.0,MgAg0.97Sb0.99,303,0.000042996,0.0017659,0.00027916,0.72477,0.73826,23257.9774862778,0.0024364971
4120,10.1016/j.nanoen.2014.11.027,11853,2a,14058,x=0.0,MgAg0.97Sb0.99,303.5,0.000042949,0.0017668,0.00027903,0.72516,0.74717,23283.4291834501,0.0024364278
4120,10.1016/j.nanoen.2014.11.027,11853,2a,14058,x=0.0,MgAg0.97Sb0.99,304,0.000042902,0.0017676,0.0002789,0.72555,0.74831,23308.9366463102,0.0024362208
4120,10.1016/j.nanoen.2014.11.027,11853,2a,14058,x=0.0,MgAg0.97Sb0.99,304.5,0.000042855,0.0017685,0.00027876,0.72594,0.74946,23334.5000583362,0.0024361517
4120,10.1016/j.nanoen.2014.11.027,11853,2a,14058,x=0.0,MgAg0.97Sb0.99,305,0.000042808,0.0017694,0.00027863,0.72633,0.7506,23360.1196038124,0.0024360828
4120,10.1016/j.nanoen.2014.11.027,11853,2a,14058,x=0.0,MgAg0.97Sb0.99,305.5,0.000042761,0.0017702,0.0002785,0.72672,0.75175,23385.7954678328,0.0024358763
4120,10.1016/j.nanoen.2014.11.027,11853,2a,14058,x=0.0,MgAg0.97Sb0.99,306,0.000042713,0.0017711,0.00027837,0.72711,0.75289,23412.0759487744,0.0024358075
4120,10.1016/j.nanoen.2014.11.027,11853,2a,14058,x=0.0,MgAg0.97Sb0.99,306.5,0.000042666,0.001772,0.00027823,0.7275,0.75404,23437.8662166596,0.0024357388
4120,10.1016/j.nanoen.2014.11.027,11853,2a,14058,x=0.0,MgAg0.97Sb0.99,307,0.000042619,0.0017728,0.0002781,0.72789,0.75518,23463.7133672775,0.0024355328
4120,10.1016/j.nanoen.2014.11.027,11853,2a,14058,x=0.0,MgAg0.97Sb0.99,307.5,0.000042572,0.0017737,0.00027797,0.72827,0.75633,23489.6175890257,0.0024354978
4120,10.1016/j.nanoen.2014.11.027,11853,2a,14058,x=0.0,MgAg0.97Sb0.99,308,0.000042525,0.0017745,0.00027783,0.72866,0.75747,23515.5790711346,0.0024352922
4120,10.1016/j.nanoen.2014.11.027,11853,2a,14058,x=0.0,MgAg0.97Sb0.99,308.5,0.000042478,0.0017754,0.0002777,0.72905,0.75862,23541.5980036725,0.0024352239
4120,10.1016/j.nanoen.2014.11.027,11853,2a,14058,x=0.0,MgAg0.97Sb0.99,309,0.000042431,0.0017763,0.00027757,0.72944,0.75976,23567.6745775494,0.0024351557
4120,10.1016/j.nanoen.2014.11.027,11853,2a,14058,x=0.0,MgAg0.97Sb0.99,309.5,0.000042384,0.0017771,0.00027743,0.72983,0.76091,23593.8089845225,0.0024349506
4120,10.1016/j.nanoen.2014.11.027,11853,2a,14058,x=0.0,MgAg0.97Sb0.99,310,0.000042337,0.001778,0.0002773,0.73022,0.76205,23620.0014172001,0.0024348826
4120,10.1016/j.nanoen.2014.11.027,11853,2a,14058,x=0.0,MgAg0.97Sb0.99,310.5,0.00004229,0.0017789,0.00027717,0.73061,0.7632,23646.2520690471,0.0024348147
4120,10.1016/j.nanoen.2014.11.027,11853,2a,14058,x=0.0,MgAg0.97Sb0.99,311,0.000042243,0.0017797,0.00027703,0.731,0.76434,23672.5611343891,0.0024346101
4120,10.1016/j.nanoen.2014.11.027,11853,2a,14058,x=0.0,MgAg0.97Sb0.99,311.5,0.000042195,0.0017806,0.0002769,0.73139,0.76549,23699.4904609551,0.0024345424
4120,10.1016/j.nanoen.2014.11.027,11853,2a,14058,x=0.0,MgAg0.97Sb0.99,312,0.000042148,0.0017815,0.00027677,0.73178,0.76663,23725.9181930341,0.0024344748
4120,10.1016/j.nanoen.2014.11.027,11853,2a,14058,x=0.0,MgAg0.97Sb0.99,312.5,0.000042101,0.0017823,0.00027664,0.73217,0.76778,23752.4049309993,0.0024342707
4120,10.1016/j.nanoen.2014.11.027,11853,2a,14058,x=0.0,MgAg0.97Sb0.99,313,0.000042054,0.0017832,0.0002765,0.73256,0.76892,23778.9508726875,0.0024342033
4120,10.1016/j.nanoen.2014.11.027,11853,2a,14058,x=0.0,MgAg0.97Sb0.99,313.5,0.000042007,0.0017841,0.00027637,0.73295,0.77007,23805.556216821,0.002434136
4120,10.1016/j.nanoen.2014.11.027,11853,2a,14058,x=0.0,MgAg0.97Sb0.99,314,0.00004196,0.0017849,0.00027624,0.73334,0.77121,23832.2211630124,0.0024339324
4120,10.1016/j.nanoen.2014.11.027,11853,2a,14058,x=0.0,MgAg0.97Sb0.99,314.5,0.000041913,0.0017858,0.0002761,0.73373,0.77236,23858.9459117696,0.0024338653
4120,10.1016/j.nanoen.2014.11.027,11853,2a,14058,x=0.0,MgAg0.97Sb0.99,315,0.000041866,0.0017867,0.00027597,0.73412,0.7735,23885.730664501,0.0024337983
4120,10.1016/j.nanoen.2014.11.027,11853,2a,14058,x=0.0,MgAg0.97Sb0.99,315.5,0.000041819,0.0017875,0.00027584,0.7345,0.77465,23912.5756235204,0.0024336283
4120,10.1016/j.nanoen.2014.11.027,11853,2a,14058,x=0.0,MgAg0.97Sb0.99,316,0.000041772,0.0017884,0.0002757,0.73489,0.77579,23939.4809920521,0.0024335615
4120,10.1016/j.nanoen.2014.11.027,11853,2a,14058,x=0.0,MgAg0.97Sb0.99,316.5,0.000041724,0.0017893,0.00027557,0.73528,0.77694,23967.0213785831,0.0024334947
4120,10.1016/j.nanoen.2014.11.027,11853,2a,14058,x=0.0,MgAg0.97Sb0.99,317,0.000041677,0.0017901,0.00027544,0.73567,0.77808,23994.04947573,0.0024332921
4120,10.1016/j.nanoen.2014.11.027,11853,2a,14058,x=0.0,MgAg0.97Sb0.99,317.5,0.00004163,0.001791,0.00027531,0.73606,0.77923,24021.1386019697,0.0024332256
4120,10.1016/j.nanoen.2014.11.027,11853,2a,14058,x=0.0,MgAg0.97Sb0.99,318,0.000041583,0.0017919,0.00027517,0.73645,0.78037,24048.2889642402,0.0024331591
4120,10.1016/j.nanoen.2014.11.027,11853,2a,14058,x=0.0,MgAg0.97Sb0.99,318.5,0.000041536,0.0017927,0.00027504,0.73684,0.78152,24075.500770416,0.002432957
4120,10.1016/j.nanoen.2014.11.027,11853,2a,14058,x=0.0,MgAg0.97Sb0.99,319,0.000041489,0.0017936,0.00027491,0.73723,0.78266,24102.7742293138,0.0024328907
4120,10.1016/j.nanoen.2014.11.027,11853,2a,14058,x=0.0,MgAg0.97Sb0.99,319.5,0.000041442,0.0017945,0.00027477,0.73762,0.78381,24130.1095506974,0.0024328245
4120,10.1016/j.nanoen.2014.11.027,11853,2a,14058,x=0.0,MgAg0.97Sb0.99,320,0.000041395,0.0017953,0.00027464,0.73801,0.78495,24157.5069452832,0.0024326229
4120,10.1016/j.nanoen.2014.11.027,11853,2a,14058,x=0.0,MgAg0.97Sb0.99,320.5,0.000041348,0.0017962,0.00027451,0.7384,0.7861,24184.9666247461,0.0024325569
4120,10.1016/j.nanoen.2014.11.027,11853,2a,14058,x=0.0,MgAg0.97Sb0.99,321,0.000041301,0.0017971,0.00027437,0.73879,0.78724,24212.4888017239,0.002432491
4120,10.1016/j.nanoen.2014.11.027,11853,2a,14058,x=0.0,MgAg0.97Sb0.99,321.5,0.000041254,0.0017979,0.00027424,0.73918,0.78839,24240.073689824,0.0024322898
4120,10.1016/j.nanoen.2014.11.027,11853,2a,14058,x=0.0,MgAg0.97Sb0.99,322,0.000041206,0.0017988,0.00027411,0.73957,0.78953,24268.3104402272,0.0024322241
4120,10.1016/j.nanoen.2014.11.027,11853,2a,14058,x=0.0,MgAg0.97Sb0.99,322.5,0.000041159,0.0017997,0.00027397,0.73996,0.79068,24296.0227410773,0.0024321585
4120,10.1016/j.nanoen.2014.11.027,11853,2a,14058,x=0.0,MgAg0.97Sb0.99,323,0.000041112,0.0018005,0.00027384,0.74035,0.79182,24323.7984043588,0.0024319579
4120,10.1016/j.nanoen.2014.11.027,11853,2a,14058,x=0.0,MgAg0.97Sb0.99,323.5,0.000041065,0.0018014,0.00027371,0.74074,0.79297,24351.6376476318,0.0024318924
4120,10.1016/j.nanoen.2014.11.027,11853,2a,14058,x=0.0,MgAg0.97Sb0.99,324,0.000041018,0.0018023,0.00027358,0.74112,0.79411,24379.5406894534,0.0024318599
4120,10.1016/j.nanoen.2014.11.027,11853,2a,14058,x=0.0,MgAg0.97Sb0.99,324.5,0.000040971,0.0018031,0.00027344,0.74151,0.79526,24407.5077493837,0.0024316597
4120,10.1016/j.nanoen.2014.11.027,11853,2a,14058,x=0.0,MgAg0.97Sb0.99,325,0.000040924,0.001804,0.00027331,0.7419,0.7964,24435.5390479914,0.0024315946
4120,10.1016/j.nanoen.2014.11.027,11853,2a,14058,x=0.0,MgAg0.97Sb0.99,325.5,0.000040877,0.0018049,0.00027318,0.74229,0.79755,24463.6348068596,0.0024315295
4120,10.1016/j.nanoen.2014.11.027,11853,2a,14058,x=0.0,MgAg0.97Sb0.99,326,0.00004083,0.0018057,0.00027304,0.74268,0.79869,24491.7952485917,0.0024313298
4120,10.1016/j.nanoen.2014.11.027,11853,2a,14058,x=0.0,MgAg0.97Sb0.99,326.5,0.000040783,0.0018066,0.00027291,0.74307,0.79984,24520.0205968173,0.0024312649
4120,10.1016/j.nanoen.2014.11.027,11853,2a,14058,x=0.0,MgAg0.97Sb0.99,327,0.000040736,0.0018075,0.00027278,0.74346,0.80098,24548.311076198,0.0024312001
4120,10.1016/j.nanoen.2014.11.027,11853,2a,14058,x=0.0,MgAg0.97Sb0.99,327.5,0.000040688,0.0018083,0.00027264,0.74385,0.80213,24577.2709398348,0.0024310009
4120,10.1016/j.nanoen.2014.11.027,11853,2a,14058,x=0.0,MgAg0.97Sb0.99,328,0.000040641,0.0018092,0.00027251,0.74424,0.80327,24605.6937575355,0.0024309363
4120,10.1016/j.nanoen.2014.11.027,11853,2a,14058,x=0.0,MgAg0.97Sb0.99,328.5,0.000040594,0.0018101,0.00027238,0.74463,0.80442,24634.1823914864,0.0024308717
4120,10.1016/j.nanoen.2014.11.027,11853,2a,14058,x=0.0,MgAg0.97Sb0.99,329,0.000040547,0.0018109,0.00027225,0.74502,0.80556,24662.7370705601,0.002430673
4120,10.1016/j.nanoen.2014.11.027,11853,2a,14058,x=0.0,MgAg0.97Sb0.99,329.5,0.0000405,0.0018118,0.00027211,0.74541,0.80671,24691.3580246914,0.0024306087
4120,10.1016/j.nanoen.2014.11.027,11853,2a,14058,x=0.0,MgAg0.97Sb0.99,330,0.000040453,0.0018126,0.00027198,0.7458,0.80785,24720.0454848837,0.0024304103
4120,10.1016/j.nanoen.2014.11.027,11853,2a,14058,x=0.0,MgAg0.97Sb0.99,330.5,0.000040406,0.0018135,0.00027185,0.74619,0.809,24748.7996832154,0.0024303462
4120,10.1016/j.nanoen.2014.11.027,11853,2a,14058,x=0.0,MgAg0.97Sb0.99,331,0.000040359,0.0018144,0.00027171,0.74658,0.81014,24777.6208528457,0.0024302821
4120,10.1016/j.nanoen.2014.11.027,11853,2a,14058,x=0.0,MgAg0.97Sb0.99,331.5,0.000040312,0.0018152,0.00027158,0.74697,0.81129,24806.5092280214,0.0024300842
4120,10.1016/j.nanoen.2014.11.027,11853,2a,14058,x=0.0,MgAg0.97Sb0.99,332,0.000040265,0.0018161,0.00027145,0.74735,0.81243,24835.465044083,0.0024300529
4120,10.1016/j.nanoen.2014.11.027,11853,2a,14058,x=0.0,MgAg0.97Sb0.99,332.5,0.000040218,0.001817,0.00027131,0.74774,0.81358,24864.4885374708,0.002429989
4120,10.1016/j.nanoen.2014.11.027,11853,2a,14058,x=0.0,MgAg0.97Sb0.99,333,0.00004017,0.0018178,0.00027118,0.74813,0.81472,24894.1996514812,0.0024297916
4120,10.1016/j.nanoen.2014.11.027,11853,2a,14058,x=0.0,MgAg0.97Sb0.99,333.5,0.000040123,0.0018187,0.00027105,0.74852,0.81587,24923.3606659522,0.002429728
4120,10.1016/j.nanoen.2014.11.027,11853,2a,14058,x=0.0,MgAg0.97Sb0.99,334,0.000040076,0.0018196,0.00027091,0.74891,0.81701,24952.5900788502,0.0024296644
4120,10.1016/j.nanoen.2014.11.027,11853,2a,14058,x=0.0,MgAg0.97Sb0.99,334.5,0.000040029,0.0018204,0.00027078,0.7493,0.81816,24981.8881311049,0.0024294675
4120,10.1016/j.nanoen.2014.11.027,11853,2a,14058,x=0.0,MgAg0.97Sb0.99,335,0.000039982,0.0018213,0.00027065,0.74969,0.8193,25011.2550647792,0.0024294042
4120,10.1016/j.nanoen.2014.11.027,11853,2a,14058,x=0.0,MgAg0.97Sb0.99,335.5,0.000039935,0.0018222,0.00027052,0.75008,0.82045,25040.691123075,0.0024293409
4120,10.1016/j.nanoen.2014.11.027,11853,2a,14058,x=0.0,MgAg0.97Sb0.99,336,0.000039888,0.001823,0.00027038,0.75047,0.82159,25070.196550341,0.0024291444
4120,10.1016/j.nanoen.2014.11.027,11853,2a,14058,x=0.0,MgAg0.97Sb0.99,336.5,0.000039841,0.0018239,0.00027025,0.75086,0.82274,25099.7715920785,0.0024290813
4120,10.1016/j.nanoen.2014.11.027,11853,2a,14058,x=0.0,MgAg0.97Sb0.99,337,0.000039794,0.0018248,0.00027012,0.75125,0.82388,25129.416494949,0.0024290183
4120,10.1016/j.nanoen.2014.11.027,11853,2a,14058,x=0.0,MgAg0.97Sb0.99,337.5,0.000039747,0.0018256,0.00026998,0.75164,0.82503,25159.1315067804,0.0024288223
4120,10.1016/j.nanoen.2014.11.027,11853,2a,14058,x=0.0,MgAg0.97Sb0.99,338,0.000039699,0.0018265,0.00026985,0.75203,0.82617,25189.55137409,0.0024287595
4120,10.1016/j.nanoen.2014.11.027,11853,2a,14058,x=0.0,MgAg0.97Sb0.99,338.5,0.000039652,0.0018274,0.00026972,0.75242,0.82732,25219.4088570564,0.0024286967
4120,10.1016/j.nanoen.2014.11.027,11853,2a,14058,x=0.0,MgAg0.97Sb0.99,339,0.000039605,0.0018282,0.00026958,0.75281,0.82846,25249.3372048984,0.0024285012
4120,10.1016/j.nanoen.2014.11.027,11853,2a,14058,x=0.0,MgAg0.97Sb0.99,339.5,0.000039558,0.0018291,0.00026945,0.7532,0.82961,25279.3366702058,0.0024284387
4120,10.1016/j.nanoen.2014.11.027,11853,2a,14058,x=0.0,MgAg0.97Sb0.99,340,0.000039511,0.00183,0.00026932,0.75359,0.83075,25309.4075067703,0.0024283762
4120,10.1016/j.nanoen.2014.11.027,11853,2a,14058,x=0.0,MgAg0.97Sb0.99,340.5,0.000039464,0.0018308,0.00026919,0.75397,0.8319,25339.5499695925,0.0024282133
4120,10.1016/j.nanoen.2014.11.027,11853,2a,14058,x=0.0,MgAg0.97Sb0.99,341,0.000039417,0.0018317,0.00026905,0.75436,0.83304,25369.7643148895,0.002428151
4120,10.1016/j.nanoen.2014.11.027,11853,2a,14058,x=0.0,MgAg0.97Sb0.99,341.5,0.00003937,0.0018326,0.00026892,0.75475,0.83419,25400.0508001016,0.0024280888
4120,10.1016/j.nanoen.2014.11.027,11853,2a,14058,x=0.0,MgAg0.97Sb0.99,342,0.000039323,0.0018334,0.00026879,0.75514,0.83533,25430.4096839,0.0024278942
4120,10.1016/j.nanoen.2014.11.027,11853,2a,14058,x=0.0,MgAg0.97Sb0.99,342.5,0.000039276,0.0018343,0.00026865,0.75553,0.83648,25460.8412261941,0.0024278321
4120,10.1016/j.nanoen.2014.11.027,11853,2a,14058,x=0.0,MgAg0.97Sb0.99,343,0.000039229,0.0018352,0.00026852,0.75592,0.83762,25491.3456881389,0.0024277701
4120,10.1016/j.nanoen.2014.11.027,11853,2a,14058,x=0.0,MgAg0.97Sb0.99,343.5,0.000039181,0.001836,0.00026839,0.75631,0.83877,25522.5747173375,0.002427576
4120,10.1016/j.nanoen.2014.11.027,11853,2a,14058,x=0.0,MgAg0.97Sb0.99,344,0.000039134,0.0018369,0.00026825,0.7567,0.83991,25553.2273726172,0.0024275142
4120,10.1016/j.nanoen.2014.11.027,11853,2a,14058,x=0.0,MgAg0.97Sb0.99,344.5,0.000039087,0.0018378,0.00026812,0.75709,0.84106,25583.9537442116,0.0024274525
4120,10.1016/j.nanoen.2014.11.027,11853,2a,14058,x=0.0,MgAg0.97Sb0.99,345,0.00003904,0.0018386,0.00026799,0.75748,0.8422,25614.7540983607,0.0024272588
4120,10.1016/j.nanoen.2014.11.027,11853,2a,14058,x=0.0,MgAg0.97Sb0.99,345.5,0.000038993,0.0018395,0.00026786,0.75787,0.84335,25645.6287025876,0.0024271973
4120,10.1016/j.nanoen.2014.11.027,11853,2a,14058,x=0.0,MgAg0.97Sb0.99,346,0.000038946,0.0018404,0.00026772,0.75826,0.84449,25676.5778257074,0.0024271358
4120,10.1016/j.nanoen.2014.11.027,11853,2a,14058,x=0.0,MgAg0.97Sb0.99,346.5,0.000038899,0.0018412,0.00026759,0.75865,0.84564,25707.6017378339,0.0024269426
4120,10.1016/j.nanoen.2014.11.027,11853,2a,14058,x=0.0,MgAg0.97Sb0.99,347,0.000038852,0.0018421,0.00026746,0.75904,0.84678,25738.7007103881,0.0024268813
4120,10.1016/j.nanoen.2014.11.027,11853,2a,14058,x=0.0,MgAg0.97Sb0.99,347.5,0.000038805,0.001843,0.00026732,0.75943,0.84793,25769.8750161062,0.0024268201
4120,10.1016/j.nanoen.2014.11.027,11853,2a,14058,x=0.0,MgAg0.97Sb0.99,348,0.000038758,0.0018438,0.00026719,0.75982,0.84907,25801.1249290469,0.0024266274
4120,10.1016/j.nanoen.2014.11.027,11853,2a,14058,x=0.0,MgAg0.97Sb0.99,348.5,0.000038711,0.0018447,0.00026706,0.7602,0.85022,25832.4507246002,0.0024265983
4120,10.1016/j.nanoen.2014.11.027,11853,2a,14058,x=0.0,MgAg0.97Sb0.99,349,0.000038663,0.0018456,0.00026692,0.76059,0.85136,25864.5216356724,0.0024265373
4120,10.1016/j.nanoen.2014.11.027,11853,2a,14058,x=0.0,MgAg0.97Sb0.99,349.5,0.000038616,0.0018464,0.00026679,0.76098,0.85251,25896.0016573441,0.002426345
4120,10.1016/j.nanoen.2014.11.027,11853,2a,14058,x=0.0,MgAg0.97Sb0.99,350,0.000038569,0.0018473,0.00026666,0.76137,0.85365,25927.5584018253,0.0024262842
4120,10.1016/j.nanoen.2014.11.027,11853,2a,14058,x=0.0,MgAg0.97Sb0.99,350.5,0.000038522,0.0018482,0.00026652,0.76176,0.8548,25959.1921499403,0.0024262235
4120,10.1016/j.nanoen.2014.11.027,11853,2a,14058,x=0.0,MgAg0.97Sb0.99,351,0.000038475,0.001849,0.00026639,0.76215,0.85594,25990.9031838856,0.0024260316
4120,10.1016/j.nanoen.2014.11.027,11853,2a,14058,x=0.0,MgAg0.97Sb0.99,351.5,0.000038428,0.0018499,0.00026626,0.76254,0.85709,26022.6917872385,0.0024259711
4120,10.1016/j.nanoen.2014.11.027,11853,2a,14058,x=0.0,MgAg0.97Sb0.99,352,0.000038381,0.0018507,0.00026613,0.76293,0.85823,26054.558244965,0.0024257796
4120,10.1016/j.nanoen.2014.11.027,11853,2a,14058,x=0.0,MgAg0.97Sb0.99,352.5,0.000038334,0.0018516,0.00026599,0.76332,0.85938,26086.5028434288,0.0024257192
4120,10.1016/j.nanoen.2014.11.027,11853,2a,14058,x=0.0,MgAg0.97Sb0.99,353,0.000038287,0.0018525,0.00026586,0.76371,0.86052,26118.5258703999,0.002425659
4120,10.1016/j.nanoen.2014.11.027,11853,2a,14058,x=0.0,MgAg0.97Sb0.99,353.5,0.00003824,0.0018533,0.00026573,0.7641,0.86167,26150.6276150628,0.0024254679
4120,10.1016/j.nanoen.2014.11.027,11853,2a,14058,x=0.0,MgAg0.97Sb0.99,354,0.000038192,0.0018542,0.00026559,0.76449,0.86282,26183.4939254294,0.0024254078
4120,10.1016/j.nanoen.2014.11.027,11853,2a,14058,x=0.0,MgAg0.97Sb0.99,354.5,0.000038145,0.0018551,0.00026546,0.76488,0.86396,26215.7556691572,0.0024253478
4120,10.1016/j.nanoen.2014.11.027,11853,2a,14058,x=0.0,MgAg0.97Sb0.99,355,0.000038098,0.0018559,0.00026533,0.76527,0.86511,26248.0970129666,0.0024251571
4120,10.1016/j.nanoen.2014.11.027,11853,2a,14058,x=0.0,MgAg0.97Sb0.99,355.5,0.000038051,0.0018568,0.00026519,0.76566,0.86625,26280.5182518199,0.0024250973
4120,10.1016/j.nanoen.2014.11.027,11853,2a,14058,x=0.0,MgAg0.97Sb0.99,356,0.000038004,0.0018577,0.00026506,0.76605,0.8674,26313.0196821387,0.0024250375
4120,10.1016/j.nanoen.2014.11.027,11853,2a,14058,x=0.0,MgAg0.97Sb0.99,356.5,0.000037957,0.0018585,0.00026493,0.76644,0.86854,26345.6016018126,0.0024248473
4120,10.1016/j.nanoen.2014.11.027,11853,2a,14058,x=0.0,MgAg0.97Sb0.99,357,0.00003791,0.0018594,0.0002648,0.76682,0.86969,26378.2643102084,0.0024248194
4120,10.1016/j.nanoen.2014.11.027,11853,2a,14058,x=0.0,MgAg0.97Sb0.99,357.5,0.000037863,0.0018603,0.00026466,0.76721,0.87083,26411.0081081795,0.0024247598
4120,10.1016/j.nanoen.2014.11.027,11853,2a,14058,x=0.0,MgAg0.97Sb0.99,358,0.000037816,0.0018611,0.00026453,0.7676,0.87198,26443.8332980749,0.0024245701
4120,10.1016/j.nanoen.2014.11.027,11853,2a,14058,x=0.0,MgAg0.97Sb0.99,358.5,0.000037769,0.001862,0.0002644,0.76799,0.87312,26476.7401837486,0.0024245107
4120,10.1016/j.nanoen.2014.11.027,11853,2a,14058,x=0.0,MgAg0.97Sb0.99,359,0.000037722,0.0018629,0.00026426,0.76838,0.87427,26509.7290705689,0.0024244514
4120,10.1016/j.nanoen.2014.11.027,11853,2a,14058,x=0.0,MgAg0.97Sb0.99,359.5,0.000037674,0.0018637,0.00026413,0.76877,0.87541,26543.5048043744,0.0024242621
4120,10.1016/j.nanoen.2014.11.027,11853,2a,14058,x=0.0,MgAg0.97Sb0.99,360,0.000037627,0.0018646,0.000264,0.76916,0.87656,26576.660376857,0.002424203
4120,10.1016/j.nanoen.2014.11.027,11853,2a,14058,x=0.0,MgAg0.97Sb0.99,360.5,0.00003758,0.0018655,0.00026386,0.76955,0.8777,26609.8988823842,0.002424144
4120,10.1016/j.nanoen.2014.11.027,11853,2a,14058,x=0.0,MgAg0.97Sb0.99,361,0.000037533,0.0018663,0.00026373,0.76994,0.87885,26643.2206325101,0.0024239551
4120,10.1016/j.nanoen.2014.11.027,11853,2a,14058,x=0.0,MgAg0.97Sb0.99,361.5,0.000037486,0.0018672,0.0002636,0.77033,0.87999,26676.6259403511,0.0024238963
4120,10.1016/j.nanoen.2014.11.027,11853,2a,14058,x=0.0,MgAg0.97Sb0.99,362,0.000037439,0.0018681,0.00026346,0.77072,0.88114,26710.1151205962,0.0024238375
4120,10.1016/j.nanoen.2014.11.027,11853,2a,14058,x=0.0,MgAg0.97Sb0.99,362.5,0.000037392,0.0018689,0.00026333,0.77111,0.88228,26743.6884895165,0.002423649
4120,10.1016/j.nanoen.2014.11.027,11853,2a,14058,x=0.0,MgAg0.97Sb0.99,363,0.000037345,0.0018698,0.0002632,0.7715,0.88343,26777.3463649752,0.0024235904
4120,10.1016/j.nanoen.2014.11.027,11853,2a,14058,x=0.0,MgAg0.97Sb0.99,363.5,0.000037298,0.0018707,0.00026307,0.77189,0.88457,26811.0890664379,0.0024235319
4120,10.1016/j.nanoen.2014.11.027,11853,2a,14058,x=0.0,MgAg0.97Sb0.99,364,0.000037251,0.0018715,0.00026293,0.77228,0.88572,26844.9169149822,0.0024233439
4120,10.1016/j.nanoen.2014.11.027,11853,2a,14058,x=0.0,MgAg0.97Sb0.99,364.5,0.000037204,0.0018724,0.0002628,0.77267,0.88686,26878.8302333082,0.0024232855
4120,10.1016/j.nanoen.2014.11.027,11853,2a,14058,x=0.0,MgAg0.97Sb0.99,365,0.000037156,0.0018733,0.00026267,0.77305,0.88801,26913.553665626,0.0024232585
4120,10.1016/j.nanoen.2014.11.027,11853,2a,14058,x=0.0,MgAg0.97Sb0.99,365.5,0.000037109,0.0018741,0.00026253,0.77344,0.88915,26947.6407340537,0.002423071
4120,10.1016/j.nanoen.2014.11.027,11853,2a,14058,x=0.0,MgAg0.97Sb0.99,366,0.000037062,0.001875,0.0002624,0.77383,0.8903,26981.8142571907,0.0024230128
4120,10.1016/j.nanoen.2014.11.027,11853,2a,14058,x=0.0,MgAg0.97Sb0.99,366.5,0.000037015,0.0018759,0.00026227,0.77422,0.89144,27016.0745643658,0.0024229547