sid,DOI,figureid,fignum,sampleid,samplename,composition,Temperature,Electrical resistivity,Power factor,Seebeck coefficient,Thermal conductivity,ZT,Electrical conductivity,Figure of merit Z
4120,10.1016/j.nanoen.2014.11.027,11853,2a,14060,x=0.0075,Mg0.9925Na0.0075Ag0.97Sb0.99,370,0.000025831,0.0020798,0.00023138,0.80603,0.95376,38713.1740931439,0.002580301
4120,10.1016/j.nanoen.2014.11.027,11853,2a,14060,x=0.0075,Mg0.9925Na0.0075Ag0.97Sb0.99,370.5,0.000025805,0.0020803,0.00023127,0.8064,0.9548,38752.1798101143,0.0025797371
4120,10.1016/j.nanoen.2014.11.027,11853,2a,14060,x=0.0075,Mg0.9925Na0.0075Ag0.97Sb0.99,371,0.00002578,0.0020808,0.00023117,0.80677,0.95584,38789.7595034911,0.0025791737
4120,10.1016/j.nanoen.2014.11.027,11853,2a,14060,x=0.0075,Mg0.9925Na0.0075Ag0.97Sb0.99,371.5,0.000025754,0.0020813,0.00023107,0.80715,0.95688,38828.9197794517,0.002578579
4120,10.1016/j.nanoen.2014.11.027,11853,2a,14060,x=0.0075,Mg0.9925Na0.0075Ag0.97Sb0.99,372,0.000025728,0.0020818,0.00023096,0.80752,0.95792,38868.1592039801,0.0025780166
4120,10.1016/j.nanoen.2014.11.027,11853,2a,14060,x=0.0075,Mg0.9925Na0.0075Ag0.97Sb0.99,372.5,0.000025702,0.0020823,0.00023086,0.80789,0.95896,38907.4780172749,0.0025774549
4120,10.1016/j.nanoen.2014.11.027,11853,2a,14060,x=0.0075,Mg0.9925Na0.0075Ag0.97Sb0.99,373,0.000025676,0.0020828,0.00023076,0.80826,0.96001,38946.8764605079,0.0025768936
4120,10.1016/j.nanoen.2014.11.027,11853,2a,14060,x=0.0075,Mg0.9925Na0.0075Ag0.97Sb0.99,373.5,0.00002565,0.0020833,0.00023066,0.80864,0.96105,38986.3547758285,0.0025763009
4120,10.1016/j.nanoen.2014.11.027,11853,2a,14060,x=0.0075,Mg0.9925Na0.0075Ag0.97Sb0.99,374,0.000025624,0.0020838,0.00023055,0.80901,0.96209,39025.913206369,0.0025757407
4120,10.1016/j.nanoen.2014.11.027,11853,2a,14060,x=0.0075,Mg0.9925Na0.0075Ag0.97Sb0.99,374.5,0.000025598,0.0020843,0.00023045,0.80938,0.96313,39065.5519962497,0.002575181
4120,10.1016/j.nanoen.2014.11.027,11853,2a,14060,x=0.0075,Mg0.9925Na0.0075Ag0.97Sb0.99,375,0.000025572,0.0020848,0.00023035,0.80976,0.96417,39105.2713905835,0.00257459
4120,10.1016/j.nanoen.2014.11.027,11853,2a,14060,x=0.0075,Mg0.9925Na0.0075Ag0.97Sb0.99,375.5,0.000025546,0.0020853,0.00023024,0.81013,0.96521,39145.0716354811,0.0025740313
4120,10.1016/j.nanoen.2014.11.027,11853,2a,14060,x=0.0075,Mg0.9925Na0.0075Ag0.97Sb0.99,376,0.000025521,0.0020858,0.00023014,0.8105,0.96625,39183.4175776811,0.0025734732
4120,10.1016/j.nanoen.2014.11.027,11853,2a,14060,x=0.0075,Mg0.9925Na0.0075Ag0.97Sb0.99,376.5,0.000025495,0.0020863,0.00023004,0.81087,0.9673,39223.3771327711,0.0025729155
4120,10.1016/j.nanoen.2014.11.027,11853,2a,14060,x=0.0075,Mg0.9925Na0.0075Ag0.97Sb0.99,377,0.000025469,0.0020868,0.00022993,0.81125,0.96834,39263.4182731949,0.0025723267
4120,10.1016/j.nanoen.2014.11.027,11853,2a,14060,x=0.0075,Mg0.9925Na0.0075Ag0.97Sb0.99,377.5,0.000025443,0.0020873,0.00022983,0.81162,0.96938,39303.5412490665,0.00257177
4120,10.1016/j.nanoen.2014.11.027,11853,2a,14060,x=0.0075,Mg0.9925Na0.0075Ag0.97Sb0.99,378,0.000025417,0.0020877,0.00022973,0.81199,0.97042,39343.7463115238,0.0025710908
4120,10.1016/j.nanoen.2014.11.027,11853,2a,14060,x=0.0075,Mg0.9925Na0.0075Ag0.97Sb0.99,378.5,0.000025391,0.0020882,0.00022963,0.81237,0.97146,39384.0337127329,0.0025705036
4120,10.1016/j.nanoen.2014.11.027,11853,2a,14060,x=0.0075,Mg0.9925Na0.0075Ag0.97Sb0.99,379,0.000025365,0.0020887,0.00022952,0.81274,0.9725,39424.403705894,0.0025699486
4120,10.1016/j.nanoen.2014.11.027,11853,2a,14060,x=0.0075,Mg0.9925Na0.0075Ag0.97Sb0.99,379.5,0.000025339,0.0020892,0.00022942,0.81311,0.97354,39464.8565452465,0.0025693941
4120,10.1016/j.nanoen.2014.11.027,11853,2a,14060,x=0.0075,Mg0.9925Na0.0075Ag0.97Sb0.99,380,0.000025313,0.0020897,0.00022932,0.81348,0.97458,39505.3924860744,0.00256884
4120,10.1016/j.nanoen.2014.11.027,11853,2a,14060,x=0.0075,Mg0.9925Na0.0075Ag0.97Sb0.99,380.5,0.000025287,0.0020902,0.00022921,0.81386,0.97563,39546.0117847115,0.002568255
4120,10.1016/j.nanoen.2014.11.027,11853,2a,14060,x=0.0075,Mg0.9925Na0.0075Ag0.97Sb0.99,381,0.000025262,0.0020907,0.00022911,0.81423,0.97667,39585.1476526007,0.002567702
4120,10.1016/j.nanoen.2014.11.027,11853,2a,14060,x=0.0075,Mg0.9925Na0.0075Ag0.97Sb0.99,381.5,0.000025236,0.0020912,0.00022901,0.8146,0.97771,39625.9312093834,0.0025671495
4120,10.1016/j.nanoen.2014.11.027,11853,2a,14060,x=0.0075,Mg0.9925Na0.0075Ag0.97Sb0.99,382,0.00002521,0.0020917,0.00022891,0.81498,0.97875,39666.7988893296,0.0025665661
4120,10.1016/j.nanoen.2014.11.027,11853,2a,14060,x=0.0075,Mg0.9925Na0.0075Ag0.97Sb0.99,382.5,0.000025184,0.0020922,0.0002288,0.81535,0.97979,39707.750952986,0.0025660146
4120,10.1016/j.nanoen.2014.11.027,11853,2a,14060,x=0.0075,Mg0.9925Na0.0075Ag0.97Sb0.99,383,0.000025158,0.0020927,0.0002287,0.81572,0.98083,39748.7876619763,0.0025654636
4120,10.1016/j.nanoen.2014.11.027,11853,2a,14060,x=0.0075,Mg0.9925Na0.0075Ag0.97Sb0.99,383.5,0.000025132,0.0020932,0.0002286,0.81609,0.98187,39789.9092790068,0.0025649132
4120,10.1016/j.nanoen.2014.11.027,11853,2a,14060,x=0.0075,Mg0.9925Na0.0075Ag0.97Sb0.99,384,0.000025106,0.0020937,0.00022849,0.81647,0.98291,39831.1160678722,0.0025643318
4120,10.1016/j.nanoen.2014.11.027,11853,2a,14060,x=0.0075,Mg0.9925Na0.0075Ag0.97Sb0.99,384.5,0.00002508,0.0020942,0.00022839,0.81684,0.98396,39872.4082934609,0.0025637824
4120,10.1016/j.nanoen.2014.11.027,11853,2a,14060,x=0.0075,Mg0.9925Na0.0075Ag0.97Sb0.99,385,0.000025054,0.0020947,0.00022829,0.81721,0.985,39913.786221761,0.0025632334
4120,10.1016/j.nanoen.2014.11.027,11853,2a,14060,x=0.0075,Mg0.9925Na0.0075Ag0.97Sb0.99,385.5,0.000025028,0.0020952,0.00022819,0.81759,0.98604,39955.2501198657,0.0025626537
4120,10.1016/j.nanoen.2014.11.027,11853,2a,14060,x=0.0075,Mg0.9925Na0.0075Ag0.97Sb0.99,386,0.000025003,0.0020957,0.00022808,0.81796,0.98708,39995.2005759309,0.0025621057
4120,10.1016/j.nanoen.2014.11.027,11853,2a,14060,x=0.0075,Mg0.9925Na0.0075Ag0.97Sb0.99,386.5,0.000024977,0.0020962,0.00022798,0.81833,0.98812,40036.8338871762,0.0025615583
4120,10.1016/j.nanoen.2014.11.027,11853,2a,14060,x=0.0075,Mg0.9925Na0.0075Ag0.97Sb0.99,387,0.000024951,0.0020967,0.00022788,0.81871,0.98916,40078.5539657729,0.0025609801
4120,10.1016/j.nanoen.2014.11.027,11853,2a,14060,x=0.0075,Mg0.9925Na0.0075Ag0.97Sb0.99,387.5,0.000024925,0.0020972,0.00022777,0.81908,0.9902,40120.3610832498,0.0025604337
4120,10.1016/j.nanoen.2014.11.027,11853,2a,14060,x=0.0075,Mg0.9925Na0.0075Ag0.97Sb0.99,388,0.000024899,0.0020977,0.00022767,0.81945,0.99124,40162.2555122696,0.0025598877
4120,10.1016/j.nanoen.2014.11.027,11853,2a,14060,x=0.0075,Mg0.9925Na0.0075Ag0.97Sb0.99,388.5,0.000024873,0.0020982,0.00022757,0.81982,0.99229,40204.2375266353,0.0025593423
4120,10.1016/j.nanoen.2014.11.027,11853,2a,14060,x=0.0075,Mg0.9925Na0.0075Ag0.97Sb0.99,389,0.000024847,0.0020987,0.00022747,0.8202,0.99333,40246.3074012959,0.0025587662
4120,10.1016/j.nanoen.2014.11.027,11853,2a,14060,x=0.0075,Mg0.9925Na0.0075Ag0.97Sb0.99,389.5,0.000024821,0.0020992,0.00022736,0.82057,0.99437,40288.4654123524,0.0025582217
4120,10.1016/j.nanoen.2014.11.027,11853,2a,14060,x=0.0075,Mg0.9925Na0.0075Ag0.97Sb0.99,390,0.000024795,0.0020997,0.00022726,0.82094,0.99541,40330.7118370639,0.0025576778
4120,10.1016/j.nanoen.2014.11.027,11853,2a,14060,x=0.0075,Mg0.9925Na0.0075Ag0.97Sb0.99,390.5,0.000024769,0.0021002,0.00022716,0.82132,0.99645,40373.0469538536,0.0025571032
4120,10.1016/j.nanoen.2014.11.027,11853,2a,14060,x=0.0075,Mg0.9925Na0.0075Ag0.97Sb0.99,391,0.000024744,0.0021007,0.00022705,0.82169,0.99749,40413.8376980278,0.0025565603
4120,10.1016/j.nanoen.2014.11.027,11853,2a,14060,x=0.0075,Mg0.9925Na0.0075Ag0.97Sb0.99,391.5,0.000024718,0.0021012,0.00022695,0.82206,0.99853,40456.3476009386,0.0025560178
4120,10.1016/j.nanoen.2014.11.027,11853,2a,14060,x=0.0075,Mg0.9925Na0.0075Ag0.97Sb0.99,392,0.000024692,0.0021016,0.00022685,0.82243,0.99957,40498.9470273773,0.0025553543
4120,10.1016/j.nanoen.2014.11.027,11853,2a,14060,x=0.0075,Mg0.9925Na0.0075Ag0.97Sb0.99,392.5,0.000024666,0.0021021,0.00022674,0.82281,1.0006,40541.6362604395,0.0025547818
4120,10.1016/j.nanoen.2014.11.027,11853,2a,14060,x=0.0075,Mg0.9925Na0.0075Ag0.97Sb0.99,393,0.00002464,0.0021026,0.00022664,0.82318,1.0017,40584.4155844156,0.0025542409
4120,10.1016/j.nanoen.2014.11.027,11853,2a,14060,x=0.0075,Mg0.9925Na0.0075Ag0.97Sb0.99,393.5,0.000024614,0.0021031,0.00022654,0.82355,1.0027,40627.2852847973,0.0025537004
4120,10.1016/j.nanoen.2014.11.027,11853,2a,14060,x=0.0075,Mg0.9925Na0.0075Ag0.97Sb0.99,394,0.000024588,0.0021036,0.00022644,0.82393,1.0037,40670.2456482837,0.0025531295
4120,10.1016/j.nanoen.2014.11.027,11853,2a,14060,x=0.0075,Mg0.9925Na0.0075Ag0.97Sb0.99,394.5,0.000024562,0.0021041,0.00022633,0.8243,1.0048,40713.296962788,0.0025525901
4120,10.1016/j.nanoen.2014.11.027,11853,2a,14060,x=0.0075,Mg0.9925Na0.0075Ag0.97Sb0.99,395,0.000024536,0.0021046,0.00022623,0.82467,1.0058,40756.4395174438,0.0025520511
4120,10.1016/j.nanoen.2014.11.027,11853,2a,14060,x=0.0075,Mg0.9925Na0.0075Ag0.97Sb0.99,395.5,0.00002451,0.0021051,0.00022613,0.82504,1.0069,40799.6736026112,0.0025515127
4120,10.1016/j.nanoen.2014.11.027,11853,2a,14060,x=0.0075,Mg0.9925Na0.0075Ag0.97Sb0.99,396,0.000024485,0.0021056,0.00022602,0.82542,1.0079,40841.3314274045,0.0025509438
4120,10.1016/j.nanoen.2014.11.027,11853,2a,14060,x=0.0075,Mg0.9925Na0.0075Ag0.97Sb0.99,396.5,0.000024459,0.0021061,0.00022592,0.82579,1.0089,40884.7459013042,0.0025504063
4120,10.1016/j.nanoen.2014.11.027,11853,2a,14060,x=0.0075,Mg0.9925Na0.0075Ag0.97Sb0.99,397,0.000024433,0.0021066,0.00022582,0.82616,1.01,40928.2527728891,0.0025498693
4120,10.1016/j.nanoen.2014.11.027,11853,2a,14060,x=0.0075,Mg0.9925Na0.0075Ag0.97Sb0.99,397.5,0.000024407,0.0021071,0.00022572,0.82654,1.011,40971.8523374442,0.0025493019
4120,10.1016/j.nanoen.2014.11.027,11853,2a,14060,x=0.0075,Mg0.9925Na0.0075Ag0.97Sb0.99,398,0.000024381,0.0021076,0.00022561,0.82691,1.0121,41015.5448915139,0.0025487659
4120,10.1016/j.nanoen.2014.11.027,11853,2a,14060,x=0.0075,Mg0.9925Na0.0075Ag0.97Sb0.99,398.5,0.000024355,0.0021081,0.00022551,0.82728,1.0131,41059.3307329091,0.0025482303
4120,10.1016/j.nanoen.2014.11.027,11853,2a,14060,x=0.0075,Mg0.9925Na0.0075Ag0.97Sb0.99,399,0.000024329,0.0021086,0.00022541,0.82765,1.0142,41103.2101607135,0.0025476953
4120,10.1016/j.nanoen.2014.11.027,11853,2a,14060,x=0.0075,Mg0.9925Na0.0075Ag0.97Sb0.99,399.5,0.000024303,0.0021091,0.0002253,0.82803,1.0152,41147.1834752911,0.0025471299
4120,10.1016/j.nanoen.2014.11.027,11853,2a,14060,x=0.0075,Mg0.9925Na0.0075Ag0.97Sb0.99,400,0.000024277,0.0021096,0.0002252,0.8284,1.0162,41191.2509782922,0.0025465958
4120,10.1016/j.nanoen.2014.11.027,11853,2a,14060,x=0.0075,Mg0.9925Na0.0075Ag0.97Sb0.99,400.5,0.000024251,0.0021101,0.0002251,0.82877,1.0173,41235.4129726609,0.0025460622
4120,10.1016/j.nanoen.2014.11.027,11853,2a,14060,x=0.0075,Mg0.9925Na0.0075Ag0.97Sb0.99,401,0.000024226,0.0021106,0.000225,0.82915,1.0183,41277.9658218443,0.0025454984
4120,10.1016/j.nanoen.2014.11.027,11853,2a,14060,x=0.0075,Mg0.9925Na0.0075Ag0.97Sb0.99,401.5,0.0000242,0.0021111,0.00022489,0.82952,1.0194,41322.3140495868,0.0025449658
4120,10.1016/j.nanoen.2014.11.027,11853,2a,14060,x=0.0075,Mg0.9925Na0.0075Ag0.97Sb0.99,402,0.000024174,0.0021116,0.00022479,0.82989,1.0204,41366.7576735335,0.0025444336
4120,10.1016/j.nanoen.2014.11.027,11853,2a,14060,x=0.0075,Mg0.9925Na0.0075Ag0.97Sb0.99,402.5,0.000024148,0.0021121,0.00022469,0.83026,1.0214,41411.2970018221,0.0025439019
4120,10.1016/j.nanoen.2014.11.027,11853,2a,14060,x=0.0075,Mg0.9925Na0.0075Ag0.97Sb0.99,403,0.000024122,0.0021126,0.00022458,0.83064,1.0225,41455.9323439184,0.0025433401
4120,10.1016/j.nanoen.2014.11.027,11853,2a,14060,x=0.0075,Mg0.9925Na0.0075Ag0.97Sb0.99,403.5,0.000024096,0.0021131,0.00022448,0.83101,1.0235,41500.6640106242,0.0025428094
4120,10.1016/j.nanoen.2014.11.027,11853,2a,14060,x=0.0075,Mg0.9925Na0.0075Ag0.97Sb0.99,404,0.00002407,0.0021136,0.00022438,0.83138,1.0246,41545.4923140839,0.0025422791
4120,10.1016/j.nanoen.2014.11.027,11853,2a,14060,x=0.0075,Mg0.9925Na0.0075Ag0.97Sb0.99,404.5,0.000024044,0.0021141,0.00022428,0.83176,1.0256,41590.4175677924,0.0025417188
4120,10.1016/j.nanoen.2014.11.027,11853,2a,14060,x=0.0075,Mg0.9925Na0.0075Ag0.97Sb0.99,405,0.000024018,0.0021146,0.00022417,0.83213,1.0266,41635.4400866017,0.0025411895
4120,10.1016/j.nanoen.2014.11.027,11853,2a,14060,x=0.0075,Mg0.9925Na0.0075Ag0.97Sb0.99,405.5,0.000023992,0.0021151,0.00022407,0.8325,1.0277,41680.5601867289,0.0025406607
4120,10.1016/j.nanoen.2014.11.027,11853,2a,14060,x=0.0075,Mg0.9925Na0.0075Ag0.97Sb0.99,406,0.000023967,0.0021155,0.00022397,0.83287,1.0287,41724.0372178412,0.0025400122
4120,10.1016/j.nanoen.2014.11.027,11853,2a,14060,x=0.0075,Mg0.9925Na0.0075Ag0.97Sb0.99,406.5,0.000023941,0.002116,0.00022386,0.83325,1.0298,41769.3496512259,0.0025394539
4120,10.1016/j.nanoen.2014.11.027,11853,2a,14060,x=0.0075,Mg0.9925Na0.0075Ag0.97Sb0.99,407,0.000023915,0.0021165,0.00022376,0.83362,1.0308,41814.7606104955,0.0025389266
4120,10.1016/j.nanoen.2014.11.027,11853,2a,14060,x=0.0075,Mg0.9925Na0.0075Ag0.97Sb0.99,407.5,0.000023889,0.002117,0.00022366,0.83399,1.0319,41860.2704173469,0.0025383997
4120,10.1016/j.nanoen.2014.11.027,11853,2a,14060,x=0.0075,Mg0.9925Na0.0075Ag0.97Sb0.99,408,0.000023863,0.0021175,0.00022355,0.83437,1.0329,41905.8793948791,0.0025378429
4120,10.1016/j.nanoen.2014.11.027,11853,2a,14060,x=0.0075,Mg0.9925Na0.0075Ag0.97Sb0.99,408.5,0.000023837,0.002118,0.00022345,0.83474,1.0339,41951.5878676008,0.002537317
4120,10.1016/j.nanoen.2014.11.027,11853,2a,14060,x=0.0075,Mg0.9925Na0.0075Ag0.97Sb0.99,409,0.000023811,0.0021185,0.00022335,0.83511,1.035,41997.396161438,0.0025367916
4120,10.1016/j.nanoen.2014.11.027,11853,2a,14060,x=0.0075,Mg0.9925Na0.0075Ag0.97Sb0.99,409.5,0.000023785,0.002119,0.00022325,0.83549,1.036,42043.3046037419,0.0025362362
4120,10.1016/j.nanoen.2014.11.027,11853,2a,14060,x=0.0075,Mg0.9925Na0.0075Ag0.97Sb0.99,410,0.000023759,0.0021195,0.00022314,0.83586,1.0371,42089.3135232964,0.0025357117
4120,10.1016/j.nanoen.2014.11.027,11853,2a,14060,x=0.0075,Mg0.9925Na0.0075Ag0.97Sb0.99,410.5,0.000023733,0.00212,0.00022304,0.83623,1.0381,42135.4232503265,0.0025351877
4120,10.1016/j.nanoen.2014.11.027,11853,2a,14060,x=0.0075,Mg0.9925Na0.0075Ag0.97Sb0.99,411,0.000023708,0.0021205,0.00022294,0.8366,1.0391,42179.8549012991,0.0025346641
4120,10.1016/j.nanoen.2014.11.027,11853,2a,14060,x=0.0075,Mg0.9925Na0.0075Ag0.97Sb0.99,411.5,0.000023682,0.002121,0.00022283,0.83698,1.0402,42226.1633307998,0.0025341107
4120,10.1016/j.nanoen.2014.11.027,11853,2a,14060,x=0.0075,Mg0.9925Na0.0075Ag0.97Sb0.99,412,0.000023656,0.0021215,0.00022273,0.83735,1.0412,42272.573554278,0.0025335881
4120,10.1016/j.nanoen.2014.11.027,11853,2a,14060,x=0.0075,Mg0.9925Na0.0075Ag0.97Sb0.99,412.5,0.00002363,0.002122,0.00022263,0.83772,1.0423,42319.0859077444,0.0025330659
4120,10.1016/j.nanoen.2014.11.027,11853,2a,14060,x=0.0075,Mg0.9925Na0.0075Ag0.97Sb0.99,413,0.000023604,0.0021225,0.00022253,0.8381,1.0433,42365.7007286901,0.002532514
4120,10.1016/j.nanoen.2014.11.027,11853,2a,14060,x=0.0075,Mg0.9925Na0.0075Ag0.97Sb0.99,413.5,0.000023578,0.002123,0.00022242,0.83847,1.0443,42412.4183560947,0.0025319928
4120,10.1016/j.nanoen.2014.11.027,11853,2a,14060,x=0.0075,Mg0.9925Na0.0075Ag0.97Sb0.99,414,0.000023552,0.0021235,0.00022232,0.83884,1.0454,42459.2391304348,0.002531472
4120,10.1016/j.nanoen.2014.11.027,11853,2a,14060,x=0.0075,Mg0.9925Na0.0075Ag0.97Sb0.99,414.5,0.000023526,0.002124,0.00022222,0.83921,1.0464,42506.1633936921,0.0025309517
4120,10.1016/j.nanoen.2014.11.027,11853,2a,14060,x=0.0075,Mg0.9925Na0.0075Ag0.97Sb0.99,415,0.0000235,0.0021245,0.00022211,0.83959,1.0475,42553.1914893617,0.0025304017
4120,10.1016/j.nanoen.2014.11.027,11853,2a,14060,x=0.0075,Mg0.9925Na0.0075Ag0.97Sb0.99,415.5,0.000023474,0.002125,0.00022201,0.83996,1.0485,42600.3237624606,0.0025298824
4120,10.1016/j.nanoen.2014.11.027,11853,2a,14060,x=0.0075,Mg0.9925Na0.0075Ag0.97Sb0.99,416,0.000023449,0.0021255,0.00022191,0.84033,1.0496,42645.741822679,0.0025293635
4120,10.1016/j.nanoen.2014.11.027,11853,2a,14060,x=0.0075,Mg0.9925Na0.0075Ag0.97Sb0.99,416.5,0.000023423,0.002126,0.00022181,0.84071,1.0506,42693.0794518209,0.0025288149
4120,10.1016/j.nanoen.2014.11.027,11853,2a,14060,x=0.0075,Mg0.9925Na0.0075Ag0.97Sb0.99,417,0.000023397,0.0021265,0.0002217,0.84108,1.0516,42740.5222891824,0.002528297
4120,10.1016/j.nanoen.2014.11.027,11853,2a,14060,x=0.0075,Mg0.9925Na0.0075Ag0.97Sb0.99,417.5,0.000023371,0.002127,0.0002216,0.84145,1.0527,42788.0706858928,0.0025277794
4120,10.1016/j.nanoen.2014.11.027,11853,2a,14060,x=0.0075,Mg0.9925Na0.0075Ag0.97Sb0.99,418,0.000023345,0.0021275,0.0002215,0.84182,1.0537,42835.7249946455,0.0025272624
4120,10.1016/j.nanoen.2014.11.027,11853,2a,14060,x=0.0075,Mg0.9925Na0.0075Ag0.97Sb0.99,418.5,0.000023319,0.002128,0.00022139,0.8422,1.0548,42883.4855697071,0.0025267157
4120,10.1016/j.nanoen.2014.11.027,11853,2a,14060,x=0.0075,Mg0.9925Na0.0075Ag0.97Sb0.99,419,0.000023293,0.0021285,0.00022129,0.84257,1.0558,42931.3527669257,0.0025261996
4120,10.1016/j.nanoen.2014.11.027,11853,2a,14060,x=0.0075,Mg0.9925Na0.0075Ag0.97Sb0.99,419.5,0.000023267,0.002129,0.00022119,0.84294,1.0568,42979.3269437401,0.0025256839
4120,10.1016/j.nanoen.2014.11.027,11853,2a,14060,x=0.0075,Mg0.9925Na0.0075Ag0.97Sb0.99,420,0.000023241,0.0021294,0.00022109,0.84332,1.0579,43027.4084591885,0.0025250202
4120,10.1016/j.nanoen.2014.11.027,11853,2a,14060,x=0.0075,Mg0.9925Na0.0075Ag0.97Sb0.99,420.5,0.000023215,0.0021299,0.00022098,0.84369,1.0589,43075.5976739177,0.0025245054
4120,10.1016/j.nanoen.2014.11.027,11853,2a,14060,x=0.0075,Mg0.9925Na0.0075Ag0.97Sb0.99,421,0.00002319,0.0021304,0.00022088,0.84406,1.06,43122.035360069,0.0025239912
4120,10.1016/j.nanoen.2014.11.027,11853,2a,14060,x=0.0075,Mg0.9925Na0.0075Ag0.97Sb0.99,421.5,0.000023164,0.0021309,0.00022078,0.84443,1.061,43170.4368848213,0.0025234774
4120,10.1016/j.nanoen.2014.11.027,11853,2a,14060,x=0.0075,Mg0.9925Na0.0075Ag0.97Sb0.99,422,0.000023138,0.0021314,0.00022067,0.84481,1.0621,43218.9471864465,0.0025229342
4120,10.1016/j.nanoen.2014.11.027,11853,2a,14060,x=0.0075,Mg0.9925Na0.0075Ag0.97Sb0.99,422.5,0.000023112,0.0021319,0.00022057,0.84518,1.0631,43267.5666320526,0.0025224213
4120,10.1016/j.nanoen.2014.11.027,11853,2a,14060,x=0.0075,Mg0.9925Na0.0075Ag0.97Sb0.99,423,0.000023086,0.0021324,0.00022047,0.84555,1.0641,43316.2955904011,0.0025219088
4120,10.1016/j.nanoen.2014.11.027,11853,2a,14060,x=0.0075,Mg0.9925Na0.0075Ag0.97Sb0.99,423.5,0.00002306,0.0021329,0.00022036,0.84593,1.0652,43365.1344319167,0.002521367
4120,10.1016/j.nanoen.2014.11.027,11853,2a,14060,x=0.0075,Mg0.9925Na0.0075Ag0.97Sb0.99,424,0.000023034,0.0021334,0.00022026,0.8463,1.0662,43414.0835286967,0.0025208555
4120,10.1016/j.nanoen.2014.11.027,11853,2a,14060,x=0.0075,Mg0.9925Na0.0075Ag0.97Sb0.99,424.5,0.000023008,0.0021339,0.00022016,0.84667,1.0673,43463.1432545202,0.0025203444
4120,10.1016/j.nanoen.2014.11.027,11853,2a,14060,x=0.0075,Mg0.9925Na0.0075Ag0.97Sb0.99,425,0.000022982,0.0021344,0.00022006,0.84704,1.0683,43512.3139848577,0.0025198338
4120,10.1016/j.nanoen.2014.11.027,11853,2a,14060,x=0.0075,Mg0.9925Na0.0075Ag0.97Sb0.99,425.5,0.000022956,0.0021349,0.00021995,0.84742,1.0693,43561.596096881,0.0025192939
4120,10.1016/j.nanoen.2014.11.027,11853,2a,14060,x=0.0075,Mg0.9925Na0.0075Ag0.97Sb0.99,426,0.000022931,0.0021354,0.00021985,0.84779,1.0704,43609.0881339671,0.0025187841
4120,10.1016/j.nanoen.2014.11.027,11853,2a,14060,x=0.0075,Mg0.9925Na0.0075Ag0.97Sb0.99,426.5,0.000022905,0.0021359,0.00021975,0.84816,1.0714,43658.5898275486,0.0025182749
4120,10.1016/j.nanoen.2014.11.027,11853,2a,14060,x=0.0075,Mg0.9925Na0.0075Ag0.97Sb0.99,427,0.000022879,0.0021364,0.00021964,0.84854,1.0725,43708.2040298964,0.0025177363
4120,10.1016/j.nanoen.2014.11.027,11853,2a,14060,x=0.0075,Mg0.9925Na0.0075Ag0.97Sb0.99,427.5,0.000022853,0.0021369,0.00021954,0.84891,1.0735,43757.9311250164,0.002517228