sid,DOI,figureid,fignum,sampleid,samplename,composition,Temperature,Carrier concentration,Carrier mobility,Electrical conductivity,Seebeck coefficient,Thermal conductivity,ZT,content,Electrical resistivity,Power factor,Figure of merit Z
18596,10.1002/aenm.201700099,25444,2a,31676,Pb1−xBixTe_ x=0.3%,Pb0.997Bi0.003Te,350,,,47831,-0.00014026,2.4533,0.19497,,0.0000209069,0.0009409729,0.000383554
18596,10.1002/aenm.201700099,25444,2a,31676,Pb1−xBixTe_ x=0.3%,Pb0.997Bi0.003Te,400,,,45017,-0.00015253,2.3312,0.25448,,0.0000222138,0.0010473386,0.0004492701
18596,10.1002/aenm.201700099,25444,2a,31676,Pb1−xBixTe_ x=0.3%,Pb0.997Bi0.003Te,450,,,42204,-0.00016479,2.209,0.314,,0.0000236944,0.001146081,0.0005188235
18596,10.1002/aenm.201700099,25444,2a,31676,Pb1−xBixTe_ x=0.3%,Pb0.997Bi0.003Te,500,,,39391,-0.00017705,2.0869,0.37352,,0.0000253865,0.001234778,0.0005916805
18596,10.1002/aenm.201700099,25444,2a,31676,Pb1−xBixTe_ x=0.3%,Pb0.997Bi0.003Te,550,,,36577,-0.00018931,1.9648,0.43303,,0.0000273396,0.0013108566,0.0006671705
18596,10.1002/aenm.201700099,25444,2a,31676,Pb1−xBixTe_ x=0.3%,Pb0.997Bi0.003Te,600,,,33764,-0.00020157,1.8426,0.49255,,0.0000296173,0.001371847,0.000744517
18596,10.1002/aenm.201700099,25444,2a,31676,Pb1−xBixTe_ x=0.3%,Pb0.997Bi0.003Te,650,,,30950,-0.00021383,1.7205,0.55207,,0.0000323102,0.0014151352,0.0008225139
18596,10.1002/aenm.201700099,25444,2a,31676,Pb1−xBixTe_ x=0.3%,Pb0.997Bi0.003Te,700,,,28137,-0.00022609,1.5984,0.61158,,0.0000355404,0.0014382703,0.0008998187
18596,10.1002/aenm.201700099,25444,2a,31676,Pb1−xBixTe_ x=0.3%,Pb0.997Bi0.003Te,750,,,25324,-0.00023835,1.4762,0.6711,,0.0000394882,0.0014386747,0.0009745798
18596,10.1002/aenm.201700099,25444,2a,31676,Pb1−xBixTe_ x=0.3%,Pb0.997Bi0.003Te,800,,,22510,-0.00025061,1.3541,0.73061,,0.0000444247,0.0014137489,0.0010440506
18596,10.1002/aenm.201700099,25444,2a,31676,Pb1−xBixTe_ x=0.3%,Pb0.997Bi0.003Te,850,,,19697,-0.00026287,1.232,0.79013,,0.0000507692,0.0013610752,0.0011047689
18596,10.1002/aenm.201700099,25444,2a,31677,Pb1−xBixTe_ x=0.5%,Pb0.995Bi0.005Te,350,,,65053,-0.00011034,2.613,0.15479,,0.0000153721,0.0007920148,0.0003031055
18596,10.1002/aenm.201700099,25444,2a,31677,Pb1−xBixTe_ x=0.5%,Pb0.995Bi0.005Te,400,,,60480,-0.00012437,2.4764,0.21507,,0.0000165344,0.0009354984,0.0003777655
18596,10.1002/aenm.201700099,25444,2a,31677,Pb1−xBixTe_ x=0.5%,Pb0.995Bi0.005Te,450,,,55906,-0.0001384,2.3398,0.27536,,0.0000178872,0.0010708548,0.0004576694
18596,10.1002/aenm.201700099,25444,2a,31677,Pb1−xBixTe_ x=0.5%,Pb0.995Bi0.005Te,500,,,51333,-0.00015243,2.2032,0.33565,,0.0000194806,0.0011927174,0.0005413568
18596,10.1002/aenm.201700099,25444,2a,31677,Pb1−xBixTe_ x=0.5%,Pb0.995Bi0.005Te,550,,,46759,-0.00016646,2.0666,0.39594,,0.0000213863,0.0012956419,0.0006269437
18596,10.1002/aenm.201700099,25444,2a,31677,Pb1−xBixTe_ x=0.5%,Pb0.995Bi0.005Te,600,,,42186,-0.00018049,1.93,0.45623,,0.0000237045,0.0013742781,0.0007120612
18596,10.1002/aenm.201700099,25444,2a,31677,Pb1−xBixTe_ x=0.5%,Pb0.995Bi0.005Te,650,,,37612,-0.00019452,1.7934,0.51652,,0.0000265873,0.001423164,0.0007935564
18596,10.1002/aenm.201700099,25444,2a,31677,Pb1−xBixTe_ x=0.5%,Pb0.995Bi0.005Te,700,,,33039,-0.00020855,1.6567,0.57681,,0.0000302673,0.0014369686,0.000867368
18596,10.1002/aenm.201700099,25444,2a,31677,Pb1−xBixTe_ x=0.5%,Pb0.995Bi0.005Te,750,,,28465,-0.00022259,1.5201,0.63709,,0.0000351309,0.0014103357,0.0009277914
18596,10.1002/aenm.201700099,25444,2a,31677,Pb1−xBixTe_ x=0.5%,Pb0.995Bi0.005Te,800,,,23892,-0.00023662,1.3835,0.69738,,0.000041855,0.0013376898,0.0009668882
18596,10.1002/aenm.201700099,25444,2a,31677,Pb1−xBixTe_ x=0.5%,Pb0.995Bi0.005Te,850,,,19318,-0.00025065,1.2469,0.75767,,0.0000517652,0.0012136615,0.0009733431
18596,10.1002/aenm.201700099,25444,2a,31678,Pb1−xBixTe_ x= 0.7%,Pb0.993Bi0.007Te,350,,,99311,-0.000088072,2.7077,0.11296,,0.0000100694,0.0007703234,0.0002844936
18596,10.1002/aenm.201700099,25444,2a,31678,Pb1−xBixTe_ x= 0.7%,Pb0.993Bi0.007Te,400,,,91283,-0.00010193,2.5638,0.17573,,0.0000109549,0.0009484053,0.0003699217
18596,10.1002/aenm.201700099,25444,2a,31678,Pb1−xBixTe_ x= 0.7%,Pb0.993Bi0.007Te,450,,,83256,-0.00011578,2.4199,0.2385,,0.0000120111,0.0011160474,0.0004611957
18596,10.1002/aenm.201700099,25444,2a,31678,Pb1−xBixTe_ x= 0.7%,Pb0.993Bi0.007Te,500,,,75228,-0.00012963,2.276,0.30126,,0.0000132929,0.0012641266,0.0005554159
18596,10.1002/aenm.201700099,25444,2a,31678,Pb1−xBixTe_ x= 0.7%,Pb0.993Bi0.007Te,550,,,67200,-0.00014349,2.132,0.36403,,0.000014881,0.0013836063,0.0006489711
18596,10.1002/aenm.201700099,25444,2a,31678,Pb1−xBixTe_ x= 0.7%,Pb0.993Bi0.007Te,600,,,59172,-0.00015734,1.9881,0.4268,,0.0000168999,0.0014648547,0.0007368114
18596,10.1002/aenm.201700099,25444,2a,31678,Pb1−xBixTe_ x= 0.7%,Pb0.993Bi0.007Te,650,,,51145,-0.0001712,1.8442,0.48957,,0.0000195523,0.0014990313,0.0008128355
18596,10.1002/aenm.201700099,25444,2a,31678,Pb1−xBixTe_ x= 0.7%,Pb0.993Bi0.007Te,700,,,43117,-0.00018505,1.7003,0.55233,,0.0000231927,0.0014764771,0.0008683627
18596,10.1002/aenm.201700099,25444,2a,31678,Pb1−xBixTe_ x= 0.7%,Pb0.993Bi0.007Te,750,,,35089,-0.00019891,1.5564,0.6151,,0.000028499,0.0013883029,0.0008919962
18596,10.1002/aenm.201700099,25444,2a,31678,Pb1−xBixTe_ x= 0.7%,Pb0.993Bi0.007Te,800,,,27061,-0.00021276,1.4125,0.67787,,0.0000369535,0.0012249654,0.0008672321
18596,10.1002/aenm.201700099,25444,2a,31678,Pb1−xBixTe_ x= 0.7%,Pb0.993Bi0.007Te,850,,,19034,-0.00022661,1.2685,0.74064,,0.0000525376,0.0009774357,0.0007705445
18596,10.1002/aenm.201700099,25444,2a,31678,Pb1−xBixTe_ x= 0.7%,Pb0.993Bi0.007Te,900,,,11006,-0.00024047,,0.8034,,0.0000908595,0.000636431,
18596,10.1002/aenm.201700099,25444,2a,31679,Pb1−xBixTe. x=1.0%,Pb0.99Bi0.01Te,350,,,118580,-0.000074343,2.7219,0.09837,,0.0000084331,0.0006553776,0.0002407795
18596,10.1002/aenm.201700099,25444,2a,31679,Pb1−xBixTe. x=1.0%,Pb0.99Bi0.01Te,400,,,108610,-0.000088331,2.5789,0.1597,,0.0000092073,0.0008474149,0.0003285955
18596,10.1002/aenm.201700099,25444,2a,31679,Pb1−xBixTe. x=1.0%,Pb0.99Bi0.01Te,450,,,98648,-0.00010232,2.4359,0.22103,,0.0000101371,0.0010327836,0.0004239844
18596,10.1002/aenm.201700099,25444,2a,31679,Pb1−xBixTe. x=1.0%,Pb0.99Bi0.01Te,500,,,88683,-0.00011631,2.293,0.28236,,0.0000112761,0.0011997051,0.0005232032
18596,10.1002/aenm.201700099,25444,2a,31679,Pb1−xBixTe. x=1.0%,Pb0.99Bi0.01Te,550,,,78718,-0.00013029,2.15,0.34369,,0.0000127036,0.0013362762,0.0006215238
18596,10.1002/aenm.201700099,25444,2a,31679,Pb1−xBixTe. x=1.0%,Pb0.99Bi0.01Te,600,,,68752,-0.00014428,2.007,0.40502,,0.000014545,0.001431191,0.0007130997
18596,10.1002/aenm.201700099,25444,2a,31679,Pb1−xBixTe. x=1.0%,Pb0.99Bi0.01Te,650,,,58787,-0.00015827,1.864,0.46635,,0.0000170106,0.0014725787,0.00079001
18596,10.1002/aenm.201700099,25444,2a,31679,Pb1−xBixTe. x=1.0%,Pb0.99Bi0.01Te,700,,,48822,-0.00017226,1.721,0.52768,,0.0000204826,0.00144872,0.0008417897
18596,10.1002/aenm.201700099,25444,2a,31679,Pb1−xBixTe. x=1.0%,Pb0.99Bi0.01Te,750,,,38857,-0.00018625,1.5781,0.58901,,0.0000257354,0.0013479129,0.0008541366
18596,10.1002/aenm.201700099,25444,2a,31679,Pb1−xBixTe. x=1.0%,Pb0.99Bi0.01Te,800,,,28891,-0.00020023,1.4351,0.65034,,0.0000346129,0.0011582995,0.0008071211
18596,10.1002/aenm.201700099,25444,2a,31679,Pb1−xBixTe. x=1.0%,Pb0.99Bi0.01Te,850,,,18926,-0.00021422,1.2921,0.71168,,0.0000528374,0.0008685181,0.0006721756
18596,10.1002/aenm.201700099,25444,2a,31679,Pb1−xBixTe. x=1.0%,Pb0.99Bi0.01Te,900,,,8960.9,,,0.77301,,0.0001115959,,
18596,10.1002/aenm.201700099,25444,2a,31680,Pb1−xBixTe_ x= 1.25%,Pb0.9875Bi0.0125Te,350,,,141990,-0.000068804,2.7694,0.08406,,0.0000070427,0.0006721793,0.0002427166
18596,10.1002/aenm.201700099,25444,2a,31680,Pb1−xBixTe_ x= 1.25%,Pb0.9875Bi0.0125Te,400,,,130180,-0.000081875,2.6306,0.14675,,0.0000076817,0.0008726637,0.0003317356
18596,10.1002/aenm.201700099,25444,2a,31680,Pb1−xBixTe_ x= 1.25%,Pb0.9875Bi0.0125Te,450,,,118360,-0.000094947,2.4917,0.20944,,0.0000084488,0.0010670074,0.0004282247
18596,10.1002/aenm.201700099,25444,2a,31680,Pb1−xBixTe_ x= 1.25%,Pb0.9875Bi0.0125Te,500,,,106550,-0.00010802,2.3529,0.27213,,0.0000093853,0.0012432595,0.0005283946
18596,10.1002/aenm.201700099,25444,2a,31680,Pb1−xBixTe_ x= 1.25%,Pb0.9875Bi0.0125Te,550,,,94742,-0.00012109,2.214,0.33481,,0.000010555,0.0013891819,0.0006274534
18596,10.1002/aenm.201700099,25444,2a,31680,Pb1−xBixTe_ x= 1.25%,Pb0.9875Bi0.0125Te,600,,,82930,-0.00013416,2.0752,0.3975,,0.0000120584,0.0014926492,0.0007192797
18596,10.1002/aenm.201700099,25444,2a,31680,Pb1−xBixTe_ x= 1.25%,Pb0.9875Bi0.0125Te,650,,,71118,-0.00014723,1.9363,0.46019,,0.0000140611,0.0015416016,0.0007961585
18596,10.1002/aenm.201700099,25444,2a,31680,Pb1−xBixTe_ x= 1.25%,Pb0.9875Bi0.0125Te,700,,,59307,-0.0001603,1.7975,0.52288,,0.0000168614,0.001523958,0.0008478209
18596,10.1002/aenm.201700099,25444,2a,31680,Pb1−xBixTe_ x= 1.25%,Pb0.9875Bi0.0125Te,750,,,47495,-0.00017337,1.6586,0.58557,,0.0000210548,0.0014275647,0.0008607046
18596,10.1002/aenm.201700099,25444,2a,31680,Pb1−xBixTe_ x= 1.25%,Pb0.9875Bi0.0125Te,800,,,35684,-0.00018645,1.5198,0.64826,,0.0000280238,0.0012405044,0.0008162287
18596,10.1002/aenm.201700099,25444,2a,31680,Pb1−xBixTe_ x= 1.25%,Pb0.9875Bi0.0125Te,850,,,23872,-0.00019952,1.381,0.71095,,0.0000418901,0.0009503021,0.0006881261
18596,10.1002/aenm.201700099,25444,2a,31680,Pb1−xBixTe_ x= 1.25%,Pb0.9875Bi0.0125Te,900,,,12060,-0.00021259,1.2421,0.77363,,0.0000829187,0.0005450458,0.0004388099
18596,10.1002/aenm.201700099,25445,2b,31680,Pb1−xBixTe_ x= 1.25%,Pb0.9875Bi0.0125Te,300,,,,-0.000055732,,,,,,
18596,10.1002/aenm.201700099,25445,2b,31681,Pb1−xBixTe_ x=1.5%,Pb.985Bi0.015Te,350,,,169820,-0.000051558,2.7642,0.031857,,0.0000058886,0.0004514202,0.0001633095
18596,10.1002/aenm.201700099,25445,2b,31681,Pb1−xBixTe_ x=1.5%,Pb.985Bi0.015Te,400,,,154810,-0.000064668,2.6246,0.093069,,0.0000064595,0.0006474077,0.0002466691
18596,10.1002/aenm.201700099,25445,2b,31681,Pb1−xBixTe_ x=1.5%,Pb.985Bi0.015Te,450,,,139790,-0.000077777,2.485,0.15428,,0.0000071536,0.0008456263,0.0003402923
18596,10.1002/aenm.201700099,25445,2b,31681,Pb1−xBixTe_ x=1.5%,Pb.985Bi0.015Te,500,,,124780,-0.000090886,2.3455,0.21549,,0.0000080141,0.0010307159,0.000439444
18596,10.1002/aenm.201700099,25445,2b,31681,Pb1−xBixTe_ x=1.5%,Pb.985Bi0.015Te,550,,,109770,-0.000104,2.2059,0.2767,,0.00000911,0.0011872723,0.0005382258
18596,10.1002/aenm.201700099,25445,2b,31681,Pb1−xBixTe_ x=1.5%,Pb.985Bi0.015Te,600,,,94755,-0.00011711,2.0664,0.33792,,0.0000105535,0.0012995413,0.0006288915
18596,10.1002/aenm.201700099,25445,2b,31681,Pb1−xBixTe_ x=1.5%,Pb.985Bi0.015Te,650,,,79742,-0.00013021,1.9268,0.39913,,0.0000125404,0.0013519972,0.0007016801
18596,10.1002/aenm.201700099,25445,2b,31681,Pb1−xBixTe_ x=1.5%,Pb.985Bi0.015Te,700,,,64728,-0.00014332,1.7872,0.46034,,0.0000154493,0.0013295534,0.000743931
18596,10.1002/aenm.201700099,25445,2b,31681,Pb1−xBixTe_ x=1.5%,Pb.985Bi0.015Te,750,,,49715,-0.00015643,1.6477,0.52155,,0.0000201147,0.0012165432,0.0007383281
18596,10.1002/aenm.201700099,25445,2b,31681,Pb1−xBixTe_ x=1.5%,Pb.985Bi0.015Te,800,,,34702,-0.00016954,1.5081,0.58276,,0.0000288168,0.0009974678,0.0006614069
18596,10.1002/aenm.201700099,25445,2b,31681,Pb1−xBixTe_ x=1.5%,Pb.985Bi0.015Te,850,,,19689,-0.00018265,1.3686,0.64397,,0.0000507898,0.0006568452,0.0004799395
18596,10.1002/aenm.201700099,25445,2b,31681,Pb1−xBixTe_ x=1.5%,Pb.985Bi0.015Te,900,,,,-0.00019576,,0.70519,,,,
18596,10.1002/aenm.201700099,25474,4a,31681,Pb1−xBixTe_ x=1.5%,Pb.985Bi0.015Te,300,,,184830,,2.9037,,,0.0000054104,,
18596,10.1002/aenm.201700099,25446,2c,31682,Pb1−xSbxTe_ x=0.3%,Pb0.997Sb0.003Te,300,,,2818.8,,,,,0.0003547609,,
18596,10.1002/aenm.201700099,25446,2c,31682,Pb1−xSbxTe_ x=0.3%,Pb0.997Sb0.003Te,350,,,3455.9,-0.0001753,1.8287,0.055373,,0.0002893602,0.0001062001,0.0000580741
18596,10.1002/aenm.201700099,25446,2c,31682,Pb1−xSbxTe_ x=0.3%,Pb0.997Sb0.003Te,400,,,4093,-0.0001851,1.8245,0.075599,,0.0002443196,0.0001402344,0.0000768618
18596,10.1002/aenm.201700099,25446,2c,31682,Pb1−xSbxTe_ x=0.3%,Pb0.997Sb0.003Te,450,,,4730.2,-0.00019491,1.8203,0.095825,,0.0002114076,0.0001796999,0.0000987199
18596,10.1002/aenm.201700099,25446,2c,31682,Pb1−xSbxTe_ x=0.3%,Pb0.997Sb0.003Te,500,,,5367.3,-0.00020472,1.816,0.11605,,0.0001863134,0.000224945,0.0001238684
18596,10.1002/aenm.201700099,25446,2c,31682,Pb1−xSbxTe_ x=0.3%,Pb0.997Sb0.003Te,550,,,6004.5,-0.00021452,1.8118,0.13628,,0.0001665418,0.0002763201,0.0001525114
18596,10.1002/aenm.201700099,25446,2c,31682,Pb1−xSbxTe_ x=0.3%,Pb0.997Sb0.003Te,600,,,6641.6,-0.00022433,1.8076,0.1565,,0.0001505661,0.0003342315,0.0001849035
18596,10.1002/aenm.201700099,25446,2c,31682,Pb1−xSbxTe_ x=0.3%,Pb0.997Sb0.003Te,650,,,7278.8,-0.00023414,1.8034,0.17673,,0.0001373853,0.000399035,0.0002212682
18596,10.1002/aenm.201700099,25446,2c,31682,Pb1−xSbxTe_ x=0.3%,Pb0.997Sb0.003Te,700,,,7915.9,-0.00024394,1.7992,0.19696,,0.000126328,0.0004710493,0.0002618104
18596,10.1002/aenm.201700099,25446,2c,31682,Pb1−xSbxTe_ x=0.3%,Pb0.997Sb0.003Te,750,,,8553,-0.00025375,1.7949,0.21718,,0.000116918,0.0005507197,0.0003068247
18596,10.1002/aenm.201700099,25446,2c,31682,Pb1−xSbxTe_ x=0.3%,Pb0.997Sb0.003Te,800,,,9190.2,-0.00026356,1.7907,0.23741,,0.0001088116,0.0006383869,0.0003565013
18596,10.1002/aenm.201700099,25446,2c,31682,Pb1−xSbxTe_ x=0.3%,Pb0.997Sb0.003Te,850,,,9827.3,-0.00027336,1.7865,0.25763,,0.0001017573,0.0007343518,0.0004110561
18596,10.1002/aenm.201700099,25446,2c,31683,Pb1−xSbxTe_ x=0.5%,Pb0.995Sb0.005Te,300,,,4061,,,,,0.0002462448,,
18596,10.1002/aenm.201700099,25446,2c,31683,Pb1−xSbxTe_ x=0.5%,Pb0.995Sb0.005Te,350,,,4908.9,-0.00020065,1.8469,0.0761,,0.0002037116,0.0001976344,0.0001070087
18596,10.1002/aenm.201700099,25446,2c,31683,Pb1−xSbxTe_ x=0.5%,Pb0.995Sb0.005Te,400,,,5756.8,-0.00020942,1.8068,0.11537,,0.0001737076,0.0002524745,0.0001397357
18596,10.1002/aenm.201700099,25446,2c,31683,Pb1−xSbxTe_ x=0.5%,Pb0.995Sb0.005Te,450,,,6604.7,-0.0002182,1.7666,0.15464,,0.0001514073,0.000314458,0.0001780018
18596,10.1002/aenm.201700099,25446,2c,31683,Pb1−xSbxTe_ x=0.5%,Pb0.995Sb0.005Te,500,,,7452.7,-0.00022697,1.7265,0.19392,,0.0001341796,0.0003839287,0.000222374
18596,10.1002/aenm.201700099,25446,2c,31683,Pb1−xSbxTe_ x=0.5%,Pb0.995Sb0.005Te,550,,,8300.6,-0.00023574,1.6864,0.23319,,0.0001204732,0.0004612921,0.0002735366
18596,10.1002/aenm.201700099,25446,2c,31683,Pb1−xSbxTe_ x=0.5%,Pb0.995Sb0.005Te,600,,,9148.5,-0.00024452,1.6462,0.27246,,0.0001093075,0.0005469891,0.0003322738
18596,10.1002/aenm.201700099,25446,2c,31683,Pb1−xSbxTe_ x=0.5%,Pb0.995Sb0.005Te,650,,,9996.4,-0.00025329,1.6061,0.31173,,0.000100036,0.0006413273,0.0003993072
18596,10.1002/aenm.201700099,25446,2c,31683,Pb1−xSbxTe_ x=0.5%,Pb0.995Sb0.005Te,700,,,10844,-0.00026206,1.5659,0.35101,,0.0000922169,0.0007447165,0.0004755837
18596,10.1002/aenm.201700099,25446,2c,31683,Pb1−xSbxTe_ x=0.5%,Pb0.995Sb0.005Te,750,,,11692,-0.00027084,1.5258,0.39028,,0.0000855286,0.0008576585,0.0005621042
18596,10.1002/aenm.201700099,25446,2c,31683,Pb1−xSbxTe_ x=0.5%,Pb0.995Sb0.005Te,800,,,12540,-0.00027961,1.4857,0.42955,,0.0000797448,0.0009803992,0.0006598904
18596,10.1002/aenm.201700099,25446,2c,31683,Pb1−xSbxTe_ x=0.5%,Pb0.995Sb0.005Te,850,,,13388,-0.00028838,1.4455,0.46882,,0.0000746938,0.0011133866,0.0007702432
18596,10.1002/aenm.201700099,25446,2c,31684,Pb1−xSbxTe_ x= 0.7%,Pb0.993Sb0.007Te,350,,,30843,-0.00018181,2.1773,0.21824,,0.0000324223,0.0010195115,0.0004682458
18596,10.1002/aenm.201700099,25446,2c,31684,Pb1−xSbxTe_ x= 0.7%,Pb0.993Sb0.007Te,400,,,29691,-0.00019032,2.085,0.27079,,0.0000336802,0.0010754586,0.0005158075
18596,10.1002/aenm.201700099,25446,2c,31684,Pb1−xSbxTe_ x= 0.7%,Pb0.993Sb0.007Te,450,,,28539,-0.00019883,1.9928,0.32333,,0.0000350398,0.0011282428,0.0005661596
18596,10.1002/aenm.201700099,25446,2c,31684,Pb1−xSbxTe_ x= 0.7%,Pb0.993Sb0.007Te,500,,,27387,-0.00020734,1.9005,0.37587,,0.0000365137,0.0011773637,0.0006195021
18596,10.1002/aenm.201700099,25446,2c,31684,Pb1−xSbxTe_ x= 0.7%,Pb0.993Sb0.007Te,550,,,26235,-0.00021585,1.8083,0.42842,,0.000038117,0.0012223207,0.0006759502
18596,10.1002/aenm.201700099,25446,2c,31684,Pb1−xSbxTe_ x= 0.7%,Pb0.993Sb0.007Te,600,,,25083,-0.00022436,1.7161,0.48096,,0.0000398676,0.0012626132,0.0007357457
18596,10.1002/aenm.201700099,25446,2c,31684,Pb1−xSbxTe_ x= 0.7%,Pb0.993Sb0.007Te,650,,,23931,-0.00023287,1.6238,0.5335,,0.0000417868,0.0012977407,0.0007991999
18596,10.1002/aenm.201700099,25446,2c,31684,Pb1−xSbxTe_ x= 0.7%,Pb0.993Sb0.007Te,700,,,22779,-0.00024138,1.5316,0.58605,,0.0000439001,0.0013272026,0.0008665465
18596,10.1002/aenm.201700099,25446,2c,31684,Pb1−xSbxTe_ x= 0.7%,Pb0.993Sb0.007Te,750,,,21627,-0.00024989,1.4393,0.63859,,0.0000462385,0.0013504983,0.0009383021
18596,10.1002/aenm.201700099,25446,2c,31684,Pb1−xSbxTe_ x= 0.7%,Pb0.993Sb0.007Te,800,,,20476,-0.0002584,1.3471,0.69114,,0.0000488377,0.001367194,0.0010149165
18596,10.1002/aenm.201700099,25446,2c,31684,Pb1−xSbxTe_ x= 0.7%,Pb0.993Sb0.007Te,850,,,19324,-0.00026691,1.2548,0.74368,,0.0000517491,0.0013766601,0.0010971151
18596,10.1002/aenm.201700099,25448,2d,31684,Pb1−xSbxTe_ x= 0.7%,Pb0.993Sb0.007Te,300,,,,-0.0001733,,,,,,
18596,10.1002/aenm.201700099,25448,2d,31684,Pb1−xSbxTe_ x= 0.7%,Pb0.993Sb0.007Te,900,,,,-0.00027542,1.1626,,,,,
18596,10.1002/aenm.201700099,25446,2c,31685,Pb1−xSbxTe. x=1.0%,Pb1−xSbxTe. x=1.0%,300,,,58381,,,,,0.0000171289,,
18596,10.1002/aenm.201700099,25446,2c,31685,Pb1−xSbxTe. x=1.0%,Pb1−xSbxTe. x=1.0%,350,,,55201,-0.00015622,2.2438,0.28663,,0.0000181156,0.0013471632,0.0006003936
18596,10.1002/aenm.201700099,25446,2c,31685,Pb1−xSbxTe. x=1.0%,Pb1−xSbxTe. x=1.0%,400,,,52022,-0.00016638,2.1286,0.35979,,0.0000192226,0.0014400888,0.0006765427
18596,10.1002/aenm.201700099,25446,2c,31685,Pb1−xSbxTe. x=1.0%,Pb1−xSbxTe. x=1.0%,450,,,48842,-0.00017653,2.0134,0.43295,,0.0000204742,0.0015220555,0.0007559628
18596,10.1002/aenm.201700099,25446,2c,31685,Pb1−xSbxTe. x=1.0%,Pb1−xSbxTe. x=1.0%,500,,,45663,-0.00018669,1.8982,0.50611,,0.0000218996,0.0015914997,0.0008384257
18596,10.1002/aenm.201700099,25446,2c,31685,Pb1−xSbxTe. x=1.0%,Pb1−xSbxTe. x=1.0%,550,,,42483,-0.00019685,1.783,0.57927,,0.0000235388,0.001646213,0.0009232826
18596,10.1002/aenm.201700099,25446,2c,31685,Pb1−xSbxTe. x=1.0%,Pb1−xSbxTe. x=1.0%,600,,,39303,-0.00020701,1.6678,0.65243,,0.0000254434,0.001684257,0.0010098675
18596,10.1002/aenm.201700099,25446,2c,31685,Pb1−xSbxTe. x=1.0%,Pb1−xSbxTe. x=1.0%,650,,,36124,-0.00021717,1.5526,0.72559,,0.0000276824,0.0017037093,0.0010973266
18596,10.1002/aenm.201700099,25446,2c,31685,Pb1−xSbxTe. x=1.0%,Pb1−xSbxTe. x=1.0%,700,,,32944,-0.00022732,1.4374,0.79876,,0.0000303545,0.0017023609,0.0011843334
18596,10.1002/aenm.201700099,25446,2c,31685,Pb1−xSbxTe. x=1.0%,Pb1−xSbxTe. x=1.0%,750,,,29764,-0.00023748,1.3222,0.87192,,0.0000335976,0.0016785929,0.0012695454
18596,10.1002/aenm.201700099,25446,2c,31685,Pb1−xSbxTe. x=1.0%,Pb1−xSbxTe. x=1.0%,800,,,26585,-0.00024764,1.207,0.94508,,0.0000376152,0.0016303403,0.0013507376
18596,10.1002/aenm.201700099,25446,2c,31685,Pb1−xSbxTe. x=1.0%,Pb1−xSbxTe. x=1.0%,850,,,23405,-0.0002578,1.0919,1.0182,,0.0000427259,0.001555516,0.0014245956
18596,10.1002/aenm.201700099,25446,2c,31686,Pb1−xSbxTe_ x= 1.25%,Pb0.9875Sb0.0125Te,350,,,162700,-0.00010338,3.1086,0.23083,,0.0000061463,0.0017388439,0.0005593656
18596,10.1002/aenm.201700099,25446,2c,31686,Pb1−xSbxTe_ x= 1.25%,Pb0.9875Sb0.0125Te,400,,,149000,-0.00011535,2.9115,0.31846,,0.0000067114,0.0019825378,0.0006809335
18596,10.1002/aenm.201700099,25446,2c,31686,Pb1−xSbxTe_ x= 1.25%,Pb0.9875Sb0.0125Te,450,,,135300,-0.00012732,2.7143,0.40609,,0.000007391,0.0021932647,0.0008080407
18596,10.1002/aenm.201700099,25446,2c,31686,Pb1−xSbxTe_ x= 1.25%,Pb0.9875Sb0.0125Te,500,,,121600,-0.00013929,2.5171,0.49371,,0.0000082237,0.0023592472,0.0009372878
18596,10.1002/aenm.201700099,25446,2c,31686,Pb1−xSbxTe_ x= 1.25%,Pb0.9875Sb0.0125Te,550,,,107910,-0.00015126,2.32,0.58134,,0.000009267,0.0024689363,0.0010641967