sid,DOI,figureid,fignum,sampleid,samplename,composition,Temperature,Electrical resistivity,Power factor,Seebeck coefficient,Thermal conductivity,ZT,Electrical conductivity,Figure of merit Z
10954,10.1007/s11664-015-4303-6,5134,3(a),6472,x=1,Eu1Zn2Sb2,502.5,0.000014502,0.0016717,0.0001591,1.8503,0.51506,68956.0060681285,0.0009034751
10954,10.1007/s11664-015-4303-6,5134,3(a),6472,x=1,Eu1Zn2Sb2,503,0.00001451,0.0016727,0.0001592,1.8489,0.51614,68917.9875947622,0.0009047001
10954,10.1007/s11664-015-4303-6,5134,3(a),6472,x=1,Eu1Zn2Sb2,503.5,0.000014518,0.0016738,0.0001593,1.8475,0.51722,68880.0110208018,0.0009059811
10954,10.1007/s11664-015-4303-6,5134,3(a),6472,x=1,Eu1Zn2Sb2,504,0.000014526,0.0016748,0.0001594,1.846,0.5183,68842.0762770205,0.0009072589
10954,10.1007/s11664-015-4303-6,5134,3(a),6472,x=1,Eu1Zn2Sb2,504.5,0.000014534,0.0016758,0.0001595,1.8446,0.51938,68804.1832943443,0.0009084896
10954,10.1007/s11664-015-4303-6,5134,3(a),6472,x=1,Eu1Zn2Sb2,505,0.000014542,0.0016768,0.0001596,1.8432,0.52046,68766.3320038509,0.0009097222
10954,10.1007/s11664-015-4303-6,5134,3(a),6472,x=1,Eu1Zn2Sb2,505.5,0.00001455,0.0016779,0.0001597,1.8418,0.52154,68728.5223367698,0.000911011
10954,10.1007/s11664-015-4303-6,5134,3(a),6472,x=1,Eu1Zn2Sb2,506,0.000014558,0.0016789,0.0001598,1.8404,0.52262,68690.7542244814,0.0009122473
10954,10.1007/s11664-015-4303-6,5134,3(a),6472,x=1,Eu1Zn2Sb2,506.5,0.000014566,0.0016799,0.0001599,1.8389,0.5237,68653.0275985171,0.0009135353
10954,10.1007/s11664-015-4303-6,5134,3(a),6472,x=1,Eu1Zn2Sb2,507,0.000014574,0.001681,0.00016,1.8375,0.52478,68615.3423905585,0.0009148299
10954,10.1007/s11664-015-4303-6,5134,3(a),6472,x=1,Eu1Zn2Sb2,507.5,0.000014582,0.001682,0.0001601,1.8361,0.52586,68577.6985324373,0.0009160721
10954,10.1007/s11664-015-4303-6,5134,3(a),6472,x=1,Eu1Zn2Sb2,508,0.000014591,0.001683,0.0001602,1.8347,0.52694,68535.3985333425,0.0009173162
10954,10.1007/s11664-015-4303-6,5134,3(a),6472,x=1,Eu1Zn2Sb2,508.5,0.000014599,0.0016841,0.0001603,1.8333,0.52802,68497.842317967,0.0009186167
10954,10.1007/s11664-015-4303-6,5134,3(a),6472,x=1,Eu1Zn2Sb2,509,0.000014607,0.0016851,0.0001604,1.8319,0.5291,68460.3272403642,0.0009198646
10954,10.1007/s11664-015-4303-6,5134,3(a),6472,x=1,Eu1Zn2Sb2,509.5,0.000014615,0.0016861,0.00016049,1.8304,0.53018,68422.8532329798,0.0009211648
10954,10.1007/s11664-015-4303-6,5134,3(a),6472,x=1,Eu1Zn2Sb2,510,0.000014623,0.0016872,0.00016059,1.829,0.53126,68385.4202284073,0.0009224713
10954,10.1007/s11664-015-4303-6,5134,3(a),6472,x=1,Eu1Zn2Sb2,510.5,0.000014631,0.0016882,0.00016069,1.8276,0.53234,68348.0281593876,0.0009237251
10954,10.1007/s11664-015-4303-6,5134,3(a),6472,x=1,Eu1Zn2Sb2,511,0.000014639,0.0016892,0.00016079,1.8262,0.53342,68310.6769588087,0.0009249808
10954,10.1007/s11664-015-4303-6,5134,3(a),6472,x=1,Eu1Zn2Sb2,511.5,0.000014647,0.0016902,0.00016089,1.8248,0.5345,68273.3665597051,0.0009262385
10954,10.1007/s11664-015-4303-6,5134,3(a),6472,x=1,Eu1Zn2Sb2,512,0.000014655,0.0016913,0.00016099,1.8233,0.53558,68236.0968952576,0.0009276038
10954,10.1007/s11664-015-4303-6,5134,3(a),6472,x=1,Eu1Zn2Sb2,512.5,0.000014663,0.0016923,0.00016109,1.8219,0.53666,68198.8678987929,0.0009288655
10954,10.1007/s11664-015-4303-6,5134,3(a),6472,x=1,Eu1Zn2Sb2,513,0.000014671,0.0016933,0.00016119,1.8205,0.53774,68161.679503783,0.0009301291
10954,10.1007/s11664-015-4303-6,5134,3(a),6472,x=1,Eu1Zn2Sb2,513.5,0.000014679,0.0016944,0.00016129,1.8191,0.53882,68124.531643845,0.0009314496
10954,10.1007/s11664-015-4303-6,5134,3(a),6472,x=1,Eu1Zn2Sb2,514,0.000014687,0.0016954,0.00016138,1.8177,0.5399,68087.4242527405,0.0009327172
10954,10.1007/s11664-015-4303-6,5134,3(a),6472,x=1,Eu1Zn2Sb2,514.5,0.000014695,0.0016964,0.00016148,1.8163,0.54098,68050.3572643756,0.0009339867
10954,10.1007/s11664-015-4303-6,5134,3(a),6472,x=1,Eu1Zn2Sb2,515,0.000014703,0.0016975,0.00016158,1.8148,0.54206,68013.3306128001,0.0009353648
10954,10.1007/s11664-015-4303-6,5134,3(a),6472,x=1,Eu1Zn2Sb2,515.5,0.000014711,0.0016985,0.00016168,1.8134,0.54314,67976.3442322072,0.0009366384
10954,10.1007/s11664-015-4303-6,5134,3(a),6472,x=1,Eu1Zn2Sb2,516,0.000014719,0.0016995,0.00016178,1.812,0.54421,67939.3980569332,0.0009379139
10954,10.1007/s11664-015-4303-6,5134,3(a),6472,x=1,Eu1Zn2Sb2,516.5,0.000014727,0.0017006,0.00016188,1.8106,0.54529,67902.4920214572,0.0009392467
10954,10.1007/s11664-015-4303-6,5134,3(a),6472,x=1,Eu1Zn2Sb2,517,0.000014735,0.0017016,0.00016198,1.8092,0.54637,67865.6260604004,0.0009405262
10954,10.1007/s11664-015-4303-6,5134,3(a),6472,x=1,Eu1Zn2Sb2,517.5,0.000014743,0.0017026,0.00016207,1.8077,0.54745,67828.8001085261,0.0009418598
10954,10.1007/s11664-015-4303-6,5134,3(a),6472,x=1,Eu1Zn2Sb2,518,0.000014751,0.0017036,0.00016217,1.8063,0.54853,67792.0141007389,0.0009431434
10954,10.1007/s11664-015-4303-6,5134,3(a),6472,x=1,Eu1Zn2Sb2,518.5,0.000014759,0.0017047,0.00016227,1.8049,0.54961,67755.2679720848,0.0009444845
10954,10.1007/s11664-015-4303-6,5134,3(a),6472,x=1,Eu1Zn2Sb2,519,0.000014767,0.0017057,0.00016237,1.8035,0.55069,67718.5616577504,0.0009457721
10954,10.1007/s11664-015-4303-6,5134,3(a),6472,x=1,Eu1Zn2Sb2,519.5,0.000014775,0.0017067,0.00016247,1.8021,0.55177,67681.8950930626,0.0009470618
10954,10.1007/s11664-015-4303-6,5134,3(a),6472,x=1,Eu1Zn2Sb2,520,0.000014783,0.0017078,0.00016257,1.8007,0.55285,67645.2682134885,0.000948409
10954,10.1007/s11664-015-4303-6,5134,3(a),6472,x=1,Eu1Zn2Sb2,520.5,0.000014791,0.0017088,0.00016266,1.7992,0.55393,67608.6809546346,0.0009497554
10954,10.1007/s11664-015-4303-6,5134,3(a),6472,x=1,Eu1Zn2Sb2,521,0.000014799,0.0017098,0.00016276,1.7978,0.55501,67572.1332522468,0.0009510513
10954,10.1007/s11664-015-4303-6,5134,3(a),6472,x=1,Eu1Zn2Sb2,521.5,0.000014807,0.0017109,0.00016286,1.7964,0.55609,67535.6250422098,0.0009524048
10954,10.1007/s11664-015-4303-6,5134,3(a),6472,x=1,Eu1Zn2Sb2,522,0.000014815,0.0017119,0.00016296,1.795,0.55717,67499.1562605467,0.0009537047
10954,10.1007/s11664-015-4303-6,5134,3(a),6472,x=1,Eu1Zn2Sb2,522.5,0.000014823,0.0017129,0.00016306,1.7936,0.55825,67462.726843419,0.0009550067
10954,10.1007/s11664-015-4303-6,5134,3(a),6472,x=1,Eu1Zn2Sb2,523,0.000014832,0.001714,0.00016315,1.7921,0.55933,67421.7907227616,0.0009564198
10954,10.1007/s11664-015-4303-6,5134,3(a),6472,x=1,Eu1Zn2Sb2,523.5,0.00001484,0.001715,0.00016325,1.7907,0.56041,67385.4447439353,0.000957726
10954,10.1007/s11664-015-4303-6,5134,3(a),6472,x=1,Eu1Zn2Sb2,524,0.000014848,0.001716,0.00016335,1.7893,0.56149,67349.1379310345,0.0009590343
10954,10.1007/s11664-015-4303-6,5134,3(a),6472,x=1,Eu1Zn2Sb2,524.5,0.000014856,0.001717,0.00016345,1.7879,0.56257,67312.8702207862,0.0009603445
10954,10.1007/s11664-015-4303-6,5134,3(a),6472,x=1,Eu1Zn2Sb2,525,0.000014864,0.0017181,0.00016355,1.7865,0.56365,67276.6415500538,0.0009617128
10954,10.1007/s11664-015-4303-6,5134,3(a),6472,x=1,Eu1Zn2Sb2,525.5,0.000014872,0.0017191,0.00016364,1.7851,0.56473,67240.4518558365,0.0009630273
10954,10.1007/s11664-015-4303-6,5134,3(a),6472,x=1,Eu1Zn2Sb2,526,0.00001488,0.0017201,0.00016374,1.7836,0.56581,67204.3010752688,0.0009643978
10954,10.1007/s11664-015-4303-6,5134,3(a),6472,x=1,Eu1Zn2Sb2,526.5,0.000014888,0.0017212,0.00016384,1.7822,0.56689,67168.1891456206,0.0009657726
10954,10.1007/s11664-015-4303-6,5134,3(a),6472,x=1,Eu1Zn2Sb2,527,0.000014896,0.0017222,0.00016394,1.7808,0.56797,67132.1160042965,0.0009670934
10954,10.1007/s11664-015-4303-6,5134,3(a),6472,x=1,Eu1Zn2Sb2,527.5,0.000014904,0.0017232,0.00016403,1.7794,0.56905,67096.0815888352,0.0009684163
10954,10.1007/s11664-015-4303-6,5134,3(a),6472,x=1,Eu1Zn2Sb2,528,0.000014912,0.0017243,0.00016413,1.778,0.57013,67060.0858369099,0.0009697975
10954,10.1007/s11664-015-4303-6,5134,3(a),6472,x=1,Eu1Zn2Sb2,528.5,0.00001492,0.0017253,0.00016423,1.7765,0.57121,67024.1286863271,0.0009711793
10954,10.1007/s11664-015-4303-6,5134,3(a),6472,x=1,Eu1Zn2Sb2,529,0.000014928,0.0017263,0.00016433,1.7751,0.57229,66988.2100750268,0.0009725086
10954,10.1007/s11664-015-4303-6,5134,3(a),6472,x=1,Eu1Zn2Sb2,529.5,0.000014936,0.0017274,0.00016442,1.7737,0.57337,66952.3299410819,0.0009738964
10954,10.1007/s11664-015-4303-6,5134,3(a),6472,x=1,Eu1Zn2Sb2,530,0.000014944,0.0017284,0.00016452,1.7723,0.57445,66916.4882226981,0.0009752299
10954,10.1007/s11664-015-4303-6,5134,3(a),6472,x=1,Eu1Zn2Sb2,530.5,0.000014952,0.0017294,0.00016462,1.7709,0.57553,66880.6848582129,0.0009765656
10954,10.1007/s11664-015-4303-6,5134,3(a),6472,x=1,Eu1Zn2Sb2,531,0.00001496,0.0017304,0.00016471,1.7695,0.57661,66844.9197860963,0.0009779034
10954,10.1007/s11664-015-4303-6,5134,3(a),6472,x=1,Eu1Zn2Sb2,531.5,0.000014968,0.0017315,0.00016481,1.768,0.57769,66809.1929449492,0.0009793552
10954,10.1007/s11664-015-4303-6,5134,3(a),6472,x=1,Eu1Zn2Sb2,532,0.000014976,0.0017325,0.00016491,1.7666,0.57877,66773.5042735043,0.0009806974
10954,10.1007/s11664-015-4303-6,5134,3(a),6472,x=1,Eu1Zn2Sb2,532.5,0.000014984,0.0017335,0.000165,1.7652,0.57985,66737.8537106247,0.0009820417
10954,10.1007/s11664-015-4303-6,5134,3(a),6472,x=1,Eu1Zn2Sb2,533,0.000014992,0.0017346,0.0001651,1.7638,0.58092,66702.2411953042,0.0009834448
10954,10.1007/s11664-015-4303-6,5134,3(a),6472,x=1,Eu1Zn2Sb2,533.5,0.000015,0.0017356,0.0001652,1.7624,0.582,66666.6666666667,0.0009847935
10954,10.1007/s11664-015-4303-6,5134,3(a),6472,x=1,Eu1Zn2Sb2,534,0.000015008,0.0017366,0.00016529,1.7609,0.58308,66631.1300639659,0.0009862002
10954,10.1007/s11664-015-4303-6,5134,3(a),6472,x=1,Eu1Zn2Sb2,534.5,0.000015016,0.0017377,0.00016539,1.7595,0.58416,66595.631326585,0.0009876101
10954,10.1007/s11664-015-4303-6,5134,3(a),6472,x=1,Eu1Zn2Sb2,535,0.000015024,0.0017387,0.00016549,1.7581,0.58524,66560.1703940362,0.0009889654
10954,10.1007/s11664-015-4303-6,5134,3(a),6472,x=1,Eu1Zn2Sb2,535.5,0.000015032,0.0017397,0.00016558,1.7567,0.58632,66524.7472059606,0.0009903228
10954,10.1007/s11664-015-4303-6,5134,3(a),6472,x=1,Eu1Zn2Sb2,536,0.00001504,0.0017408,0.00016568,1.7553,0.5874,66489.3617021277,0.0009917393
10954,10.1007/s11664-015-4303-6,5134,3(a),6472,x=1,Eu1Zn2Sb2,536.5,0.000015048,0.0017418,0.00016578,1.7539,0.58848,66454.0138224349,0.0009931011
10954,10.1007/s11664-015-4303-6,5134,3(a),6472,x=1,Eu1Zn2Sb2,537,0.000015056,0.0017428,0.00016587,1.7524,0.58956,66418.7035069076,0.0009945218
10954,10.1007/s11664-015-4303-6,5134,3(a),6472,x=1,Eu1Zn2Sb2,537.5,0.000015064,0.0017438,0.00016597,1.751,0.59064,66383.4306956983,0.0009958881
10954,10.1007/s11664-015-4303-6,5134,3(a),6472,x=1,Eu1Zn2Sb2,538,0.000015073,0.0017449,0.00016607,1.7496,0.59172,66343.7935381145,0.0009973137
10954,10.1007/s11664-015-4303-6,5134,3(a),6472,x=1,Eu1Zn2Sb2,538.5,0.000015081,0.0017459,0.00016616,1.7482,0.5928,66308.6002254492,0.0009986844
10954,10.1007/s11664-015-4303-6,5134,3(a),6472,x=1,Eu1Zn2Sb2,539,0.000015089,0.0017469,0.00016626,1.7468,0.59388,66273.4442308967,0.0010000572
10954,10.1007/s11664-015-4303-6,5134,3(a),6472,x=1,Eu1Zn2Sb2,539.5,0.000015097,0.001748,0.00016635,1.7453,0.59496,66238.3254951315,0.001001547
10954,10.1007/s11664-015-4303-6,5134,3(a),6472,x=1,Eu1Zn2Sb2,540,0.000015105,0.001749,0.00016645,1.7439,0.59604,66203.243958954,0.0010029245
10954,10.1007/s11664-015-4303-6,5134,3(a),6472,x=1,Eu1Zn2Sb2,540.5,0.000015113,0.00175,0.00016655,1.7425,0.59712,66168.1995632899,0.0010043042
10954,10.1007/s11664-015-4303-6,5134,3(a),6472,x=1,Eu1Zn2Sb2,541,0.000015121,0.0017511,0.00016664,1.7411,0.5982,66133.1922491899,0.0010057435
10954,10.1007/s11664-015-4303-6,5134,3(a),6472,x=1,Eu1Zn2Sb2,541.5,0.000015129,0.0017521,0.00016674,1.7397,0.59928,66098.2219578293,0.0010071277
10954,10.1007/s11664-015-4303-6,5134,3(a),6472,x=1,Eu1Zn2Sb2,542,0.000015137,0.0017531,0.00016683,1.7383,0.60036,66063.288630508,0.0010085141
10954,10.1007/s11664-015-4303-6,5134,3(a),6472,x=1,Eu1Zn2Sb2,542.5,0.000015145,0.0017541,0.00016693,1.7368,0.60144,66028.3922086497,0.0010099608
10954,10.1007/s11664-015-4303-6,5134,3(a),6472,x=1,Eu1Zn2Sb2,543,0.000015153,0.0017552,0.00016702,1.7354,0.60252,65993.5326338019,0.0010114095
10954,10.1007/s11664-015-4303-6,5134,3(a),6472,x=1,Eu1Zn2Sb2,543.5,0.000015161,0.0017562,0.00016712,1.734,0.6036,65958.7098476354,0.0010128028
10954,10.1007/s11664-015-4303-6,5134,3(a),6472,x=1,Eu1Zn2Sb2,544,0.000015169,0.0017572,0.00016721,1.7326,0.60468,65923.9237919441,0.0010141983
10954,10.1007/s11664-015-4303-6,5134,3(a),6472,x=1,Eu1Zn2Sb2,544.5,0.000015177,0.0017583,0.00016731,1.7312,0.60576,65889.1744086447,0.0010156539
10954,10.1007/s11664-015-4303-6,5134,3(a),6472,x=1,Eu1Zn2Sb2,545,0.000015185,0.0017593,0.0001674,1.7297,0.60684,65854.4616397761,0.0010171128
10954,10.1007/s11664-015-4303-6,5134,3(a),6472,x=1,Eu1Zn2Sb2,545.5,0.000015193,0.0017603,0.0001675,1.7283,0.60792,65819.7854274995,0.0010185153
10954,10.1007/s11664-015-4303-6,5134,3(a),6472,x=1,Eu1Zn2Sb2,546,0.000015201,0.0017614,0.00016759,1.7269,0.609,65785.1457140978,0.001019978
10954,10.1007/s11664-015-4303-6,5134,3(a),6472,x=1,Eu1Zn2Sb2,546.5,0.000015209,0.0017624,0.00016769,1.7255,0.61008,65750.5424419752,0.0010213851
10954,10.1007/s11664-015-4303-6,5134,3(a),6472,x=1,Eu1Zn2Sb2,547,0.000015217,0.0017634,0.00016778,1.7241,0.61116,65715.9755536571,0.0010227945
10954,10.1007/s11664-015-4303-6,5134,3(a),6472,x=1,Eu1Zn2Sb2,547.5,0.000015225,0.0017645,0.00016788,1.7226,0.61224,65681.4449917898,0.0010243237
10954,10.1007/s11664-015-4303-6,5134,3(a),6472,x=1,Eu1Zn2Sb2,548,0.000015233,0.0017655,0.00016797,1.7212,0.61332,65646.95069914,0.0010257379
10954,10.1007/s11664-015-4303-6,5134,3(a),6472,x=1,Eu1Zn2Sb2,548.5,0.000015241,0.0017665,0.00016807,1.7198,0.6144,65612.4926185946,0.0010271543
10954,10.1007/s11664-015-4303-6,5134,3(a),6472,x=1,Eu1Zn2Sb2,549,0.000015249,0.0017675,0.00016816,1.7184,0.61548,65578.0706931602,0.0010285731
10954,10.1007/s11664-015-4303-6,5134,3(a),6472,x=1,Eu1Zn2Sb2,549.5,0.000015257,0.0017686,0.00016826,1.717,0.61656,65543.6848659632,0.0010300524
10954,10.1007/s11664-015-4303-6,5134,3(a),6472,x=1,Eu1Zn2Sb2,550,0.000015265,0.0017696,0.00016835,1.7156,0.61764,65509.3350802489,0.0010314759
10954,10.1007/s11664-015-4303-6,5134,3(a),6472,x=1,Eu1Zn2Sb2,550.5,0.000015273,0.0017706,0.00016844,1.7141,0.61871,65475.0212793819,0.0010329619
10954,10.1007/s11664-015-4303-6,5134,3(a),6472,x=1,Eu1Zn2Sb2,551,0.000015281,0.0017717,0.00016854,1.7127,0.61979,65440.7434068451,0.0010344485
10954,10.1007/s11664-015-4303-6,5134,3(a),6472,x=1,Eu1Zn2Sb2,551.5,0.000015289,0.0017727,0.00016863,1.7113,0.62087,65406.5014062398,0.0010358792
10954,10.1007/s11664-015-4303-6,5134,3(a),6472,x=1,Eu1Zn2Sb2,552,0.000015297,0.0017737,0.00016873,1.7099,0.62195,65372.2952212852,0.0010373121
10954,10.1007/s11664-015-4303-6,5134,3(a),6472,x=1,Eu1Zn2Sb2,552.5,0.000015305,0.0017748,0.00016882,1.7085,0.62303,65338.1247958184,0.001038806
10954,10.1007/s11664-015-4303-6,5134,3(a),6472,x=1,Eu1Zn2Sb2,553,0.000015314,0.0017758,0.00016891,1.707,0.62411,65299.7257411519,0.0010403046
10954,10.1007/s11664-015-4303-6,5134,3(a),6472,x=1,Eu1Zn2Sb2,553.5,0.000015322,0.0017768,0.00016901,1.7056,0.62519,65265.6311186529,0.0010417448
10954,10.1007/s11664-015-4303-6,5134,3(a),6472,x=1,Eu1Zn2Sb2,554,0.00001533,0.0017779,0.0001691,1.7042,0.62627,65231.5720808871,0.0010432461
10954,10.1007/s11664-015-4303-6,5134,3(a),6472,x=1,Eu1Zn2Sb2,554.5,0.000015338,0.0017789,0.00016919,1.7028,0.62735,65197.5485721737,0.0010446911
10954,10.1007/s11664-015-4303-6,5134,3(a),6472,x=1,Eu1Zn2Sb2,555,0.000015346,0.0017799,0.00016929,1.7014,0.62843,65163.5605369477,0.0010461385
10954,10.1007/s11664-015-4303-6,5134,3(a),6472,x=1,Eu1Zn2Sb2,555.5,0.000015354,0.0017809,0.00016938,1.7,0.62951,65129.6079197603,0.0010475882
10954,10.1007/s11664-015-4303-6,5134,3(a),6472,x=1,Eu1Zn2Sb2,556,0.000015362,0.001782,0.00016947,1.6985,0.63059,65095.690665278,0.001049161
10954,10.1007/s11664-015-4303-6,5134,3(a),6472,x=1,Eu1Zn2Sb2,556.5,0.00001537,0.001783,0.00016957,1.6971,0.63167,65061.8087182824,0.0010506158
10954,10.1007/s11664-015-4303-6,5134,3(a),6472,x=1,Eu1Zn2Sb2,557,0.000015378,0.001784,0.00016966,1.6957,0.63275,65027.9620236702,0.0010520729
10954,10.1007/s11664-015-4303-6,5134,3(a),6472,x=1,Eu1Zn2Sb2,557.5,0.000015386,0.0017851,0.00016975,1.6943,0.63383,64994.1505264526,0.0010535915
10954,10.1007/s11664-015-4303-6,5134,3(a),6472,x=1,Eu1Zn2Sb2,558,0.000015394,0.0017861,0.00016984,1.6929,0.63491,64960.3741717552,0.0010550535
10954,10.1007/s11664-015-4303-6,5134,3(a),6472,x=1,Eu1Zn2Sb2,558.5,0.000015402,0.0017871,0.00016994,1.6914,0.63599,64926.6329048176,0.0010565803
10954,10.1007/s11664-015-4303-6,5134,3(a),6472,x=1,Eu1Zn2Sb2,559,0.00001541,0.0017882,0.00017003,1.69,0.63707,64892.9266709929,0.0010581065
10954,10.1007/s11664-015-4303-6,5134,3(a),6472,x=1,Eu1Zn2Sb2,559.5,0.000015418,0.0017892,0.00017012,1.6886,0.63815,64859.2554157478,0.001059576
10954,10.1007/s11664-015-4303-6,5134,3(a),6472,x=1,Eu1Zn2Sb2,560,0.000015426,0.0017902,0.00017021,1.6872,0.63923,64825.6190846623,0.0010610479
10954,10.1007/s11664-015-4303-6,5134,3(a),6472,x=1,Eu1Zn2Sb2,560.5,0.000015434,0.0017913,0.00017031,1.6858,0.64031,64792.0176234288,0.0010625816
10954,10.1007/s11664-015-4303-6,5134,3(a),6472,x=1,Eu1Zn2Sb2,561,0.000015442,0.0017923,0.0001704,1.6844,0.64139,64758.4509778526,0.0010640584
10954,10.1007/s11664-015-4303-6,5134,3(a),6472,x=1,Eu1Zn2Sb2,561.5,0.00001545,0.0017933,0.00017049,1.6829,0.64247,64724.9190938511,0.001065601
10954,10.1007/s11664-015-4303-6,5134,3(a),6472,x=1,Eu1Zn2Sb2,562,0.000015458,0.0017943,0.00017058,1.6815,0.64355,64691.4219174537,0.001067083
10954,10.1007/s11664-015-4303-6,5134,3(a),6472,x=1,Eu1Zn2Sb2,562.5,0.000015466,0.0017954,0.00017067,1.6801,0.64463,64657.9593948015,0.0010686269
10954,10.1007/s11664-015-4303-6,5134,3(a),6472,x=1,Eu1Zn2Sb2,563,0.000015474,0.0017964,0.00017076,1.6787,0.64571,64624.5314721468,0.0010701138
10954,10.1007/s11664-015-4303-6,5134,3(a),6472,x=1,Eu1Zn2Sb2,563.5,0.000015482,0.0017974,0.00017086,1.6773,0.64679,64591.1380958533,0.0010716032
10954,10.1007/s11664-015-4303-6,5134,3(a),6472,x=1,Eu1Zn2Sb2,564,0.00001549,0.0017985,0.00017095,1.6758,0.64787,64557.7792123951,0.0010732188
10954,10.1007/s11664-015-4303-6,5134,3(a),6472,x=1,Eu1Zn2Sb2,564.5,0.000015498,0.0017995,0.00017104,1.6744,0.64895,64524.4547683572,0.0010747133
10954,10.1007/s11664-015-4303-6,5134,3(a),6472,x=1,Eu1Zn2Sb2,565,0.000015506,0.0018005,0.00017113,1.673,0.65003,64491.1647104347,0.0010762104
10954,10.1007/s11664-015-4303-6,5134,3(a),6472,x=1,Eu1Zn2Sb2,565.5,0.000015514,0.0018016,0.00017122,1.6716,0.65111,64457.9089854325,0.0010777698
10954,10.1007/s11664-015-4303-6,5134,3(a),6472,x=1,Eu1Zn2Sb2,566,0.000015522,0.0018026,0.00017131,1.6702,0.65219,64424.6875402654,0.0010792719
10954,10.1007/s11664-015-4303-6,5134,3(a),6472,x=1,Eu1Zn2Sb2,566.5,0.00001553,0.0018036,0.0001714,1.6688,0.65327,64391.5003219575,0.0010807766
10954,10.1007/s11664-015-4303-6,5134,3(a),6472,x=1,Eu1Zn2Sb2,567,0.000015538,0.0018047,0.00017149,1.6673,0.65435,64358.3472776419,0.0010824087
10954,10.1007/s11664-015-4303-6,5134,3(a),6472,x=1,Eu1Zn2Sb2,567.5,0.000015547,0.0018057,0.00017158,1.6659,0.65543,64321.0908857014,0.0010839186
10954,10.1007/s11664-015-4303-6,5134,3(a),6472,x=1,Eu1Zn2Sb2,568,0.000015555,0.0018067,0.00017167,1.6645,0.6565,64288.0102860816,0.0010854311
10954,10.1007/s11664-015-4303-6,5134,3(a),6472,x=1,Eu1Zn2Sb2,568.5,0.000015563,0.0018077,0.00017176,1.6631,0.65758,64254.9636959455,0.0010869461
10954,10.1007/s11664-015-4303-6,5134,3(a),6472,x=1,Eu1Zn2Sb2,569,0.000015571,0.0018088,0.00017185,1.6617,0.65866,64221.9510628733,0.0010885238
10954,10.1007/s11664-015-4303-6,5134,3(a),6472,x=1,Eu1Zn2Sb2,569.5,0.000015579,0.0018098,0.00017194,1.6602,0.65974,64188.9723345529,0.0010901096
10954,10.1007/s11664-015-4303-6,5134,3(a),6472,x=1,Eu1Zn2Sb2,570,0.000015587,0.0018108,0.00017203,1.6588,0.66082,64156.0274587798,0.0010916325
10954,10.1007/s11664-015-4303-6,5134,3(a),6472,x=1,Eu1Zn2Sb2,570.5,0.000015595,0.0018119,0.00017212,1.6574,0.6619,64123.1163834562,0.0010932183
10954,10.1007/s11664-015-4303-6,5134,3(a),6472,x=1,Eu1Zn2Sb2,571,0.000015603,0.0018129,0.00017221,1.656,0.66298,64090.2390565917,0.0010947464