sid,DOI,figureid,fignum,sampleid,samplename,composition,Temperature,Electrical resistivity,Power factor,Seebeck coefficient,Thermal conductivity,ZT,Electrical conductivity,Figure of merit Z
10954,10.1007/s11664-015-4303-6,5134,3(a),6468,x=0.1,Ca0.9Eu0.1Zn2Sb2,486,0.000020495,0.0010114,0.00014419,2.4808,0.22662,48792.3883874116,0.0004076911
10954,10.1007/s11664-015-4303-6,5134,3(a),6468,x=0.1,Ca0.9Eu0.1Zn2Sb2,486.5,0.00002051,0.001012,0.00014428,2.4789,0.22715,48756.7040468064,0.0004082456
10954,10.1007/s11664-015-4303-6,5134,3(a),6468,x=0.1,Ca0.9Eu0.1Zn2Sb2,487,0.000020525,0.0010125,0.00014438,2.4769,0.22767,48721.071863581,0.0004087771
10954,10.1007/s11664-015-4303-6,5134,3(a),6468,x=0.1,Ca0.9Eu0.1Zn2Sb2,487.5,0.00002054,0.0010131,0.00014447,2.475,0.2282,48685.4917234664,0.0004093333
10954,10.1007/s11664-015-4303-6,5134,3(a),6468,x=0.1,Ca0.9Eu0.1Zn2Sb2,488,0.000020555,0.0010137,0.00014456,2.473,0.22873,48649.9635125274,0.000409907
10954,10.1007/s11664-015-4303-6,5134,3(a),6468,x=0.1,Ca0.9Eu0.1Zn2Sb2,488.5,0.00002057,0.0010142,0.00014465,2.4711,0.22926,48614.4871171609,0.0004104245
10954,10.1007/s11664-015-4303-6,5134,3(a),6468,x=0.1,Ca0.9Eu0.1Zn2Sb2,489,0.000020585,0.0010148,0.00014474,2.4691,0.22978,48579.0624240952,0.000411
10954,10.1007/s11664-015-4303-6,5134,3(a),6468,x=0.1,Ca0.9Eu0.1Zn2Sb2,489.5,0.0000206,0.0010154,0.00014483,2.4672,0.23031,48543.6893203884,0.0004115597
10954,10.1007/s11664-015-4303-6,5134,3(a),6468,x=0.1,Ca0.9Eu0.1Zn2Sb2,490,0.000020616,0.0010159,0.00014493,2.4652,0.23084,48506.0147458285,0.0004120964
10954,10.1007/s11664-015-4303-6,5134,3(a),6468,x=0.1,Ca0.9Eu0.1Zn2Sb2,490.5,0.000020631,0.0010165,0.00014502,2.4633,0.23137,48470.7479036402,0.0004126578
10954,10.1007/s11664-015-4303-6,5134,3(a),6468,x=0.1,Ca0.9Eu0.1Zn2Sb2,491,0.000020646,0.0010171,0.00014511,2.4613,0.23189,48435.5323065,0.0004132369
10954,10.1007/s11664-015-4303-6,5134,3(a),6468,x=0.1,Ca0.9Eu0.1Zn2Sb2,491.5,0.000020661,0.0010176,0.0001452,2.4594,0.23242,48400.3678427956,0.0004137595
10954,10.1007/s11664-015-4303-6,5134,3(a),6468,x=0.1,Ca0.9Eu0.1Zn2Sb2,492,0.000020676,0.0010182,0.00014529,2.4574,0.23295,48365.2544012381,0.0004143404
10954,10.1007/s11664-015-4303-6,5134,3(a),6468,x=0.1,Ca0.9Eu0.1Zn2Sb2,492.5,0.000020691,0.0010188,0.00014539,2.4555,0.23348,48330.1918708617,0.0004149053
10954,10.1007/s11664-015-4303-6,5134,3(a),6468,x=0.1,Ca0.9Eu0.1Zn2Sb2,493,0.000020706,0.0010193,0.00014548,2.4535,0.23401,48295.1801410219,0.0004154473
10954,10.1007/s11664-015-4303-6,5134,3(a),6468,x=0.1,Ca0.9Eu0.1Zn2Sb2,493.5,0.000020721,0.0010199,0.00014557,2.4515,0.23453,48260.2191013947,0.000416031
10954,10.1007/s11664-015-4303-6,5134,3(a),6468,x=0.1,Ca0.9Eu0.1Zn2Sb2,494,0.000020736,0.0010205,0.00014566,2.4496,0.23506,48225.3086419753,0.0004165986
10954,10.1007/s11664-015-4303-6,5134,3(a),6468,x=0.1,Ca0.9Eu0.1Zn2Sb2,494.5,0.000020752,0.001021,0.00014575,2.4476,0.23559,48188.1264456438,0.0004171433
10954,10.1007/s11664-015-4303-6,5134,3(a),6468,x=0.1,Ca0.9Eu0.1Zn2Sb2,495,0.000020767,0.0010216,0.00014585,2.4457,0.23612,48153.3201714258,0.0004177127
10954,10.1007/s11664-015-4303-6,5134,3(a),6468,x=0.1,Ca0.9Eu0.1Zn2Sb2,495.5,0.000020782,0.0010222,0.00014594,2.4437,0.23664,48118.564142046,0.0004183001
10954,10.1007/s11664-015-4303-6,5134,3(a),6468,x=0.1,Ca0.9Eu0.1Zn2Sb2,496,0.000020797,0.0010227,0.00014603,2.4418,0.23717,48083.8582487859,0.0004188304
10954,10.1007/s11664-015-4303-6,5134,3(a),6468,x=0.1,Ca0.9Eu0.1Zn2Sb2,496.5,0.000020812,0.0010233,0.00014612,2.4398,0.2377,48049.2023832404,0.0004194196
10954,10.1007/s11664-015-4303-6,5134,3(a),6468,x=0.1,Ca0.9Eu0.1Zn2Sb2,497,0.000020827,0.0010239,0.00014621,2.4379,0.23823,48014.5964373169,0.0004199926
10954,10.1007/s11664-015-4303-6,5134,3(a),6468,x=0.1,Ca0.9Eu0.1Zn2Sb2,497.5,0.000020842,0.0010245,0.00014631,2.4359,0.23875,47980.0403032339,0.0004205838
10954,10.1007/s11664-015-4303-6,5134,3(a),6468,x=0.1,Ca0.9Eu0.1Zn2Sb2,498,0.000020857,0.001025,0.0001464,2.434,0.23928,47945.5338735197,0.0004211175
10954,10.1007/s11664-015-4303-6,5134,3(a),6468,x=0.1,Ca0.9Eu0.1Zn2Sb2,498.5,0.000020873,0.0010256,0.00014649,2.432,0.23981,47908.7816796819,0.0004217105
10954,10.1007/s11664-015-4303-6,5134,3(a),6468,x=0.1,Ca0.9Eu0.1Zn2Sb2,499,0.000020888,0.0010262,0.00014658,2.4301,0.24034,47874.3776330908,0.0004222871
10954,10.1007/s11664-015-4303-6,5134,3(a),6468,x=0.1,Ca0.9Eu0.1Zn2Sb2,499.5,0.000020903,0.0010267,0.00014667,2.4281,0.24086,47840.022963211,0.0004228409
10954,10.1007/s11664-015-4303-6,5134,3(a),6468,x=0.1,Ca0.9Eu0.1Zn2Sb2,500,0.000020918,0.0010273,0.00014676,2.4262,0.24139,47805.7175638206,0.0004234193
10954,10.1007/s11664-015-4303-6,5134,3(a),6468,x=0.1,Ca0.9Eu0.1Zn2Sb2,500.5,0.000020933,0.0010279,0.00014686,2.4242,0.24192,47771.461329002,0.0004240162
10954,10.1007/s11664-015-4303-6,5134,3(a),6468,x=0.1,Ca0.9Eu0.1Zn2Sb2,501,0.000020948,0.0010284,0.00014695,2.4223,0.24245,47737.2541531411,0.0004245552
10954,10.1007/s11664-015-4303-6,5134,3(a),6468,x=0.1,Ca0.9Eu0.1Zn2Sb2,501.5,0.000020963,0.001029,0.00014704,2.4203,0.24298,47703.0959309259,0.0004251539
10954,10.1007/s11664-015-4303-6,5134,3(a),6468,x=0.1,Ca0.9Eu0.1Zn2Sb2,502,0.000020978,0.0010296,0.00014713,2.4184,0.2435,47668.9865573458,0.000425736
10954,10.1007/s11664-015-4303-6,5134,3(a),6468,x=0.1,Ca0.9Eu0.1Zn2Sb2,502.5,0.000020993,0.0010301,0.00014722,2.4164,0.24403,47634.9259276902,0.0004262953
10954,10.1007/s11664-015-4303-6,5134,3(a),6468,x=0.1,Ca0.9Eu0.1Zn2Sb2,503,0.000021009,0.0010307,0.00014732,2.4145,0.24456,47598.6481983912,0.0004268793
10954,10.1007/s11664-015-4303-6,5134,3(a),6468,x=0.1,Ca0.9Eu0.1Zn2Sb2,503.5,0.000021024,0.0010313,0.00014741,2.4125,0.24509,47564.6879756469,0.0004274819
10954,10.1007/s11664-015-4303-6,5134,3(a),6468,x=0.1,Ca0.9Eu0.1Zn2Sb2,504,0.000021039,0.0010318,0.0001475,2.4105,0.24561,47530.776177575,0.000428044
10954,10.1007/s11664-015-4303-6,5134,3(a),6468,x=0.1,Ca0.9Eu0.1Zn2Sb2,504.5,0.000021054,0.0010324,0.00014759,2.4086,0.24614,47496.9127006745,0.0004286307
10954,10.1007/s11664-015-4303-6,5134,3(a),6468,x=0.1,Ca0.9Eu0.1Zn2Sb2,505,0.000021069,0.001033,0.00014768,2.4066,0.24667,47463.097441739,0.0004292363
10954,10.1007/s11664-015-4303-6,5134,3(a),6468,x=0.1,Ca0.9Eu0.1Zn2Sb2,505.5,0.000021084,0.0010335,0.00014778,2.4047,0.2472,47429.3302978562,0.0004297833
10954,10.1007/s11664-015-4303-6,5134,3(a),6468,x=0.1,Ca0.9Eu0.1Zn2Sb2,506,0.000021099,0.0010341,0.00014787,2.4027,0.24772,47395.611166406,0.0004303908
10954,10.1007/s11664-015-4303-6,5134,3(a),6468,x=0.1,Ca0.9Eu0.1Zn2Sb2,506.5,0.000021114,0.0010347,0.00014796,2.4008,0.24825,47361.9399450601,0.0004309813
10954,10.1007/s11664-015-4303-6,5134,3(a),6468,x=0.1,Ca0.9Eu0.1Zn2Sb2,507,0.00002113,0.0010352,0.00014805,2.3988,0.24878,47326.0766682442,0.0004315491
10954,10.1007/s11664-015-4303-6,5134,3(a),6468,x=0.1,Ca0.9Eu0.1Zn2Sb2,507.5,0.000021145,0.0010358,0.00014814,2.3969,0.24931,47292.5041380941,0.0004321415
10954,10.1007/s11664-015-4303-6,5134,3(a),6468,x=0.1,Ca0.9Eu0.1Zn2Sb2,508,0.00002116,0.0010364,0.00014824,2.3949,0.24984,47258.9792060491,0.0004327529
10954,10.1007/s11664-015-4303-6,5134,3(a),6468,x=0.1,Ca0.9Eu0.1Zn2Sb2,508.5,0.000021175,0.001037,0.00014833,2.393,0.25036,47225.5017709563,0.0004333473
10954,10.1007/s11664-015-4303-6,5134,3(a),6468,x=0.1,Ca0.9Eu0.1Zn2Sb2,509,0.00002119,0.0010375,0.00014842,2.391,0.25089,47192.071731949,0.0004339189
10954,10.1007/s11664-015-4303-6,5134,3(a),6468,x=0.1,Ca0.9Eu0.1Zn2Sb2,509.5,0.000021205,0.0010381,0.00014851,2.3891,0.25142,47158.6889884461,0.0004345151
10954,10.1007/s11664-015-4303-6,5134,3(a),6468,x=0.1,Ca0.9Eu0.1Zn2Sb2,510,0.00002122,0.0010387,0.0001486,2.3871,0.25195,47125.3534401508,0.0004351305
10954,10.1007/s11664-015-4303-6,5134,3(a),6468,x=0.1,Ca0.9Eu0.1Zn2Sb2,510.5,0.000021235,0.0010392,0.00014869,2.3852,0.25247,47092.0649870497,0.0004356867
10954,10.1007/s11664-015-4303-6,5134,3(a),6468,x=0.1,Ca0.9Eu0.1Zn2Sb2,511,0.000021251,0.0010398,0.00014879,2.3832,0.253,47056.6091007482,0.0004363041
10954,10.1007/s11664-015-4303-6,5134,3(a),6468,x=0.1,Ca0.9Eu0.1Zn2Sb2,511.5,0.000021266,0.0010404,0.00014888,2.3813,0.25353,47023.4176619957,0.0004369042
10954,10.1007/s11664-015-4303-6,5134,3(a),6468,x=0.1,Ca0.9Eu0.1Zn2Sb2,512,0.000021281,0.0010409,0.00014897,2.3793,0.25406,46990.2730134862,0.0004374816
10954,10.1007/s11664-015-4303-6,5134,3(a),6468,x=0.1,Ca0.9Eu0.1Zn2Sb2,512.5,0.000021296,0.0010415,0.00014906,2.3774,0.25458,46957.1750563486,0.0004380836
10954,10.1007/s11664-015-4303-6,5134,3(a),6468,x=0.1,Ca0.9Eu0.1Zn2Sb2,513,0.000021311,0.0010421,0.00014915,2.3754,0.25511,46924.1236919901,0.0004387051
10954,10.1007/s11664-015-4303-6,5134,3(a),6468,x=0.1,Ca0.9Eu0.1Zn2Sb2,513.5,0.000021326,0.0010426,0.00014925,2.3734,0.25564,46891.1188220951,0.0004392854
10954,10.1007/s11664-015-4303-6,5134,3(a),6468,x=0.1,Ca0.9Eu0.1Zn2Sb2,514,0.000021341,0.0010432,0.00014934,2.3715,0.25617,46858.1603486247,0.0004398904
10954,10.1007/s11664-015-4303-6,5134,3(a),6468,x=0.1,Ca0.9Eu0.1Zn2Sb2,514.5,0.000021356,0.0010438,0.00014943,2.3695,0.25669,46825.2481738153,0.0004405149
10954,10.1007/s11664-015-4303-6,5134,3(a),6468,x=0.1,Ca0.9Eu0.1Zn2Sb2,515,0.000021371,0.0010443,0.00014952,2.3676,0.25722,46792.3822001778,0.0004410796
10954,10.1007/s11664-015-4303-6,5134,3(a),6468,x=0.1,Ca0.9Eu0.1Zn2Sb2,515.5,0.000021387,0.0010449,0.00014961,2.3656,0.25775,46757.3759760602,0.0004417061
10954,10.1007/s11664-015-4303-6,5134,3(a),6468,x=0.1,Ca0.9Eu0.1Zn2Sb2,516,0.000021402,0.0010455,0.00014971,2.3637,0.25828,46724.6051770863,0.000442315
10954,10.1007/s11664-015-4303-6,5134,3(a),6468,x=0.1,Ca0.9Eu0.1Zn2Sb2,516.5,0.000021417,0.001046,0.0001498,2.3617,0.25881,46691.880282019,0.0004429013
10954,10.1007/s11664-015-4303-6,5134,3(a),6468,x=0.1,Ca0.9Eu0.1Zn2Sb2,517,0.000021432,0.0010466,0.00014989,2.3598,0.25933,46659.2011944756,0.0004435122
10954,10.1007/s11664-015-4303-6,5134,3(a),6468,x=0.1,Ca0.9Eu0.1Zn2Sb2,517.5,0.000021447,0.0010472,0.00014998,2.3578,0.25986,46626.5678183429,0.0004441428
10954,10.1007/s11664-015-4303-6,5134,3(a),6468,x=0.1,Ca0.9Eu0.1Zn2Sb2,518,0.000021462,0.0010477,0.00015007,2.3559,0.26039,46593.9800577765,0.0004447133
10954,10.1007/s11664-015-4303-6,5134,3(a),6468,x=0.1,Ca0.9Eu0.1Zn2Sb2,518.5,0.000021477,0.0010483,0.00015017,2.3539,0.26092,46561.4378171998,0.000445346
10954,10.1007/s11664-015-4303-6,5134,3(a),6468,x=0.1,Ca0.9Eu0.1Zn2Sb2,519,0.000021492,0.0010489,0.00015026,2.352,0.26144,46528.9410013028,0.0004459609
10954,10.1007/s11664-015-4303-6,5134,3(a),6468,x=0.1,Ca0.9Eu0.1Zn2Sb2,519.5,0.000021508,0.0010494,0.00015035,2.35,0.26197,46494.3276920216,0.0004465532
10954,10.1007/s11664-015-4303-6,5134,3(a),6468,x=0.1,Ca0.9Eu0.1Zn2Sb2,520,0.000021523,0.00105,0.00015044,2.3481,0.2625,46461.9244529108,0.0004471701
10954,10.1007/s11664-015-4303-6,5134,3(a),6468,x=0.1,Ca0.9Eu0.1Zn2Sb2,520.5,0.000021538,0.0010506,0.00015053,2.3461,0.26303,46429.5663478503,0.000447807
10954,10.1007/s11664-015-4303-6,5134,3(a),6468,x=0.1,Ca0.9Eu0.1Zn2Sb2,521,0.000021553,0.0010512,0.00015062,2.3442,0.26355,46397.2532826057,0.0004484259
10954,10.1007/s11664-015-4303-6,5134,3(a),6468,x=0.1,Ca0.9Eu0.1Zn2Sb2,521.5,0.000021568,0.0010517,0.00015072,2.3422,0.26408,46364.9851632047,0.0004490223
10954,10.1007/s11664-015-4303-6,5134,3(a),6468,x=0.1,Ca0.9Eu0.1Zn2Sb2,522,0.000021583,0.0010523,0.00015081,2.3403,0.26461,46332.7618959366,0.0004496432
10954,10.1007/s11664-015-4303-6,5134,3(a),6468,x=0.1,Ca0.9Eu0.1Zn2Sb2,522.5,0.000021598,0.0010529,0.0001509,2.3383,0.26514,46300.5833873507,0.0004502844
10954,10.1007/s11664-015-4303-6,5134,3(a),6468,x=0.1,Ca0.9Eu0.1Zn2Sb2,523,0.000021613,0.0010534,0.00015099,2.3364,0.26566,46268.4495442558,0.0004508646
10954,10.1007/s11664-015-4303-6,5134,3(a),6468,x=0.1,Ca0.9Eu0.1Zn2Sb2,523.5,0.000021628,0.001054,0.00015108,2.3344,0.26619,46236.3602737192,0.0004515079
10954,10.1007/s11664-015-4303-6,5134,3(a),6468,x=0.1,Ca0.9Eu0.1Zn2Sb2,524,0.000021644,0.0010546,0.00015118,2.3324,0.26672,46202.1807429311,0.0004521523
10954,10.1007/s11664-015-4303-6,5134,3(a),6468,x=0.1,Ca0.9Eu0.1Zn2Sb2,524.5,0.000021659,0.0010551,0.00015127,2.3305,0.26725,46170.1832956277,0.0004527355
10954,10.1007/s11664-015-4303-6,5134,3(a),6468,x=0.1,Ca0.9Eu0.1Zn2Sb2,525,0.000021674,0.0010557,0.00015136,2.3285,0.26778,46138.2301374919,0.000453382
10954,10.1007/s11664-015-4303-6,5134,3(a),6468,x=0.1,Ca0.9Eu0.1Zn2Sb2,525.5,0.000021689,0.0010563,0.00015145,2.3266,0.2683,46106.3211766333,0.0004540101
10954,10.1007/s11664-015-4303-6,5134,3(a),6468,x=0.1,Ca0.9Eu0.1Zn2Sb2,526,0.000021704,0.0010568,0.00015154,2.3246,0.26883,46074.4563214154,0.0004546158
10954,10.1007/s11664-015-4303-6,5134,3(a),6468,x=0.1,Ca0.9Eu0.1Zn2Sb2,526.5,0.000021719,0.0010574,0.00015164,2.3227,0.26936,46042.6354804549,0.000455246
10954,10.1007/s11664-015-4303-6,5134,3(a),6468,x=0.1,Ca0.9Eu0.1Zn2Sb2,527,0.000021734,0.001058,0.00015173,2.3207,0.26989,46010.8585626208,0.0004558969
10954,10.1007/s11664-015-4303-6,5134,3(a),6468,x=0.1,Ca0.9Eu0.1Zn2Sb2,527.5,0.000021749,0.0010585,0.00015182,2.3188,0.27041,45979.1254770334,0.0004564861
10954,10.1007/s11664-015-4303-6,5134,3(a),6468,x=0.1,Ca0.9Eu0.1Zn2Sb2,528,0.000021765,0.0010591,0.00015191,2.3168,0.27094,45945.3250631748,0.0004571392
10954,10.1007/s11664-015-4303-6,5134,3(a),6468,x=0.1,Ca0.9Eu0.1Zn2Sb2,528.5,0.00002178,0.0010597,0.000152,2.3149,0.27147,45913.6822773186,0.0004577736
10954,10.1007/s11664-015-4303-6,5134,3(a),6468,x=0.1,Ca0.9Eu0.1Zn2Sb2,529,0.000021795,0.0010602,0.0001521,2.3129,0.272,45882.0830465703,0.0004583856
10954,10.1007/s11664-015-4303-6,5134,3(a),6468,x=0.1,Ca0.9Eu0.1Zn2Sb2,529.5,0.00002181,0.0010608,0.00015219,2.311,0.27252,45850.5272810637,0.0004590221
10954,10.1007/s11664-015-4303-6,5134,3(a),6468,x=0.1,Ca0.9Eu0.1Zn2Sb2,530,0.000021825,0.0010614,0.00015228,2.309,0.27305,45819.0148911798,0.0004596795
10954,10.1007/s11664-015-4303-6,5134,3(a),6468,x=0.1,Ca0.9Eu0.1Zn2Sb2,530.5,0.00002184,0.0010619,0.00015237,2.3071,0.27358,45787.5457875458,0.0004602748
10954,10.1007/s11664-015-4303-6,5134,3(a),6468,x=0.1,Ca0.9Eu0.1Zn2Sb2,531,0.000021855,0.0010625,0.00015246,2.3051,0.27411,45756.1198810341,0.0004609344
10954,10.1007/s11664-015-4303-6,5134,3(a),6468,x=0.1,Ca0.9Eu0.1Zn2Sb2,531.5,0.00002187,0.0010631,0.00015255,2.3032,0.27463,45724.7370827618,0.0004615752
10954,10.1007/s11664-015-4303-6,5134,3(a),6468,x=0.1,Ca0.9Eu0.1Zn2Sb2,532,0.000021886,0.0010636,0.00015265,2.3012,0.27516,45691.3095129306,0.0004621936
10954,10.1007/s11664-015-4303-6,5134,3(a),6468,x=0.1,Ca0.9Eu0.1Zn2Sb2,532.5,0.000021901,0.0010642,0.00015274,2.2993,0.27569,45660.0155244053,0.0004628365
10954,10.1007/s11664-015-4303-6,5134,3(a),6468,x=0.1,Ca0.9Eu0.1Zn2Sb2,533,0.000021916,0.0010648,0.00015283,2.2973,0.27622,45628.7643730608,0.0004635006
10954,10.1007/s11664-015-4303-6,5134,3(a),6468,x=0.1,Ca0.9Eu0.1Zn2Sb2,533.5,0.000021931,0.0010654,0.00015292,2.2954,0.27675,45597.555971,0.0004641457
10954,10.1007/s11664-015-4303-6,5134,3(a),6468,x=0.1,Ca0.9Eu0.1Zn2Sb2,534,0.000021946,0.0010659,0.00015301,2.2934,0.27727,45566.3902305659,0.0004647685
10954,10.1007/s11664-015-4303-6,5134,3(a),6468,x=0.1,Ca0.9Eu0.1Zn2Sb2,534.5,0.000021961,0.0010665,0.00015311,2.2914,0.2778,45535.2670643413,0.000465436
10954,10.1007/s11664-015-4303-6,5134,3(a),6468,x=0.1,Ca0.9Eu0.1Zn2Sb2,535,0.000021976,0.0010671,0.0001532,2.2895,0.27833,45504.1863851474,0.0004660843
10954,10.1007/s11664-015-4303-6,5134,3(a),6468,x=0.1,Ca0.9Eu0.1Zn2Sb2,535.5,0.000021991,0.0010676,0.00015329,2.2875,0.27886,45473.1481060434,0.0004667104
10954,10.1007/s11664-015-4303-6,5134,3(a),6468,x=0.1,Ca0.9Eu0.1Zn2Sb2,536,0.000022006,0.0010682,0.00015338,2.2856,0.27938,45442.1521403254,0.0004673609
10954,10.1007/s11664-015-4303-6,5134,3(a),6468,x=0.1,Ca0.9Eu0.1Zn2Sb2,536.5,0.000022022,0.0010688,0.00015347,2.2836,0.27991,45409.1363182272,0.0004680329
10954,10.1007/s11664-015-4303-6,5134,3(a),6468,x=0.1,Ca0.9Eu0.1Zn2Sb2,537,0.000022037,0.0010693,0.00015357,2.2817,0.28044,45378.2275264328,0.0004686418
10954,10.1007/s11664-015-4303-6,5134,3(a),6468,x=0.1,Ca0.9Eu0.1Zn2Sb2,537.5,0.000022052,0.0010699,0.00015366,2.2797,0.28097,45347.3607836024,0.0004693161
10954,10.1007/s11664-015-4303-6,5134,3(a),6468,x=0.1,Ca0.9Eu0.1Zn2Sb2,538,0.000022067,0.0010705,0.00015375,2.2778,0.28149,45316.5360039879,0.000469971
10954,10.1007/s11664-015-4303-6,5134,3(a),6468,x=0.1,Ca0.9Eu0.1Zn2Sb2,538.5,0.000022082,0.001071,0.00015384,2.2758,0.28202,45285.7531020741,0.0004706037
10954,10.1007/s11664-015-4303-6,5134,3(a),6468,x=0.1,Ca0.9Eu0.1Zn2Sb2,539,0.000022097,0.0010716,0.00015393,2.2739,0.28255,45255.0119925782,0.0004712608
10954,10.1007/s11664-015-4303-6,5134,3(a),6468,x=0.1,Ca0.9Eu0.1Zn2Sb2,539.5,0.000022112,0.0010722,0.00015403,2.2719,0.28308,45224.3125904486,0.0004719398
10954,10.1007/s11664-015-4303-6,5134,3(a),6468,x=0.1,Ca0.9Eu0.1Zn2Sb2,540,0.000022127,0.0010727,0.00015412,2.27,0.2836,45193.6548108646,0.0004725551
10954,10.1007/s11664-015-4303-6,5134,3(a),6468,x=0.1,Ca0.9Eu0.1Zn2Sb2,540.5,0.000022143,0.0010733,0.00015421,2.268,0.28413,45160.998961297,0.0004732363
10954,10.1007/s11664-015-4303-6,5134,3(a),6468,x=0.1,Ca0.9Eu0.1Zn2Sb2,541,0.000022158,0.0010739,0.0001543,2.2661,0.28466,45130.4269338388,0.0004738979
10954,10.1007/s11664-015-4303-6,5134,3(a),6468,x=0.1,Ca0.9Eu0.1Zn2Sb2,541.5,0.000022173,0.0010744,0.00015439,2.2641,0.28519,45099.8962702386,0.0004745373
10954,10.1007/s11664-015-4303-6,5134,3(a),6468,x=0.1,Ca0.9Eu0.1Zn2Sb2,542,0.000022188,0.001075,0.00015448,2.2622,0.28572,45069.4068866054,0.0004752011
10954,10.1007/s11664-015-4303-6,5134,3(a),6468,x=0.1,Ca0.9Eu0.1Zn2Sb2,542.5,0.000022203,0.0010756,0.00015458,2.2602,0.28624,45038.9586992749,0.0004758871
10954,10.1007/s11664-015-4303-6,5134,3(a),6468,x=0.1,Ca0.9Eu0.1Zn2Sb2,543,0.000022218,0.0010761,0.00015467,2.2583,0.28677,45008.5516248087,0.0004765089
10954,10.1007/s11664-015-4303-6,5134,3(a),6468,x=0.1,Ca0.9Eu0.1Zn2Sb2,543.5,0.000022233,0.0010767,0.00015476,2.2563,0.2873,44978.1855799937,0.0004771972
10954,10.1007/s11664-015-4303-6,5134,3(a),6468,x=0.1,Ca0.9Eu0.1Zn2Sb2,544,0.000022248,0.0010773,0.00015485,2.2543,0.28783,44947.8604818411,0.0004778867
10954,10.1007/s11664-015-4303-6,5134,3(a),6468,x=0.1,Ca0.9Eu0.1Zn2Sb2,544.5,0.000022263,0.0010778,0.00015494,2.2524,0.28835,44917.5762475857,0.0004785118
10954,10.1007/s11664-015-4303-6,5134,3(a),6468,x=0.1,Ca0.9Eu0.1Zn2Sb2,545,0.000022279,0.0010784,0.00015504,2.2504,0.28888,44885.3180124781,0.0004792037
10954,10.1007/s11664-015-4303-6,5134,3(a),6468,x=0.1,Ca0.9Eu0.1Zn2Sb2,545.5,0.000022294,0.001079,0.00015513,2.2485,0.28941,44855.1179689603,0.0004798755
10954,10.1007/s11664-015-4303-6,5134,3(a),6468,x=0.1,Ca0.9Eu0.1Zn2Sb2,546,0.000022309,0.0010796,0.00015522,2.2465,0.28994,44824.9585369134,0.0004805698
10954,10.1007/s11664-015-4303-6,5134,3(a),6468,x=0.1,Ca0.9Eu0.1Zn2Sb2,546.5,0.000022324,0.0010801,0.00015531,2.2446,0.29046,44794.8396344741,0.0004811993
10954,10.1007/s11664-015-4303-6,5134,3(a),6468,x=0.1,Ca0.9Eu0.1Zn2Sb2,547,0.000022339,0.0010807,0.0001554,2.2426,0.29099,44764.7611799991,0.000481896
10954,10.1007/s11664-015-4303-6,5134,3(a),6468,x=0.1,Ca0.9Eu0.1Zn2Sb2,547.5,0.000022354,0.0010813,0.0001555,2.2407,0.29152,44734.7230920641,0.0004825724
10954,10.1007/s11664-015-4303-6,5134,3(a),6468,x=0.1,Ca0.9Eu0.1Zn2Sb2,548,0.000022369,0.0010818,0.00015559,2.2387,0.29205,44704.7252894631,0.0004832269
10954,10.1007/s11664-015-4303-6,5134,3(a),6468,x=0.1,Ca0.9Eu0.1Zn2Sb2,548.5,0.000022384,0.0010824,0.00015568,2.2368,0.29258,44674.767691208,0.0004839056
10954,10.1007/s11664-015-4303-6,5134,3(a),6468,x=0.1,Ca0.9Eu0.1Zn2Sb2,549,0.0000224,0.001083,0.00015577,2.2348,0.2931,44642.8571428571,0.0004846071
10954,10.1007/s11664-015-4303-6,5134,3(a),6468,x=0.1,Ca0.9Eu0.1Zn2Sb2,549.5,0.000022415,0.0010835,0.00015586,2.2329,0.29363,44612.982377872,0.0004852434
10954,10.1007/s11664-015-4303-6,5134,3(a),6468,x=0.1,Ca0.9Eu0.1Zn2Sb2,550,0.00002243,0.0010841,0.00015596,2.2309,0.29416,44583.1475702185,0.0004859474
10954,10.1007/s11664-015-4303-6,5134,3(a),6468,x=0.1,Ca0.9Eu0.1Zn2Sb2,550.5,0.000022445,0.0010847,0.00015605,2.229,0.29469,44553.3526397861,0.0004866308