sid,DOI,figureid,fignum,sampleid,samplename,composition,Temperature,Electrical resistivity,Power factor,Seebeck coefficient,Thermal conductivity,ZT,Electrical conductivity,Figure of merit Z
10954,10.1007/s11664-015-4303-6,5134,3(a),6469,x=0.3,Ca0.7Eu0.3Zn2Sb2,711,0.000024981,0.0014608,0.00018883,1.7965,0.47173,40030.4231215724,0.0008131367
10954,10.1007/s11664-015-4303-6,5134,3(a),6469,x=0.3,Ca0.7Eu0.3Zn2Sb2,711.5,0.000024995,0.0014614,0.00018892,1.7947,0.47226,40008.0016003201,0.0008142865
10954,10.1007/s11664-015-4303-6,5134,3(a),6469,x=0.3,Ca0.7Eu0.3Zn2Sb2,712,0.000025008,0.0014621,0.00018901,1.7928,0.47279,39987.2040946897,0.0008155399
10954,10.1007/s11664-015-4303-6,5134,3(a),6469,x=0.3,Ca0.7Eu0.3Zn2Sb2,712.5,0.000025021,0.0014628,0.0001891,1.7909,0.47331,39966.4282003117,0.000816796
10954,10.1007/s11664-015-4303-6,5134,3(a),6469,x=0.3,Ca0.7Eu0.3Zn2Sb2,713,0.000025035,0.0014635,0.00018919,1.789,0.47384,39944.0782903935,0.0008180548
10954,10.1007/s11664-015-4303-6,5134,3(a),6469,x=0.3,Ca0.7Eu0.3Zn2Sb2,713.5,0.000025048,0.0014642,0.00018929,1.7871,0.47437,39923.347173427,0.0008193162
10954,10.1007/s11664-015-4303-6,5134,3(a),6469,x=0.3,Ca0.7Eu0.3Zn2Sb2,714,0.000025061,0.0014649,0.00018938,1.7852,0.4749,39902.637564343,0.0008205803
10954,10.1007/s11664-015-4303-6,5134,3(a),6469,x=0.3,Ca0.7Eu0.3Zn2Sb2,714.5,0.000025075,0.0014655,0.00018947,1.7833,0.47543,39880.3589232303,0.0008217911
10954,10.1007/s11664-015-4303-6,5134,3(a),6469,x=0.3,Ca0.7Eu0.3Zn2Sb2,715,0.000025088,0.0014662,0.00018956,1.7814,0.47596,39859.693877551,0.0008230605
10954,10.1007/s11664-015-4303-6,5134,3(a),6469,x=0.3,Ca0.7Eu0.3Zn2Sb2,715.5,0.000025101,0.0014669,0.00018966,1.7796,0.47649,39839.0502370423,0.0008242864
10954,10.1007/s11664-015-4303-6,5134,3(a),6469,x=0.3,Ca0.7Eu0.3Zn2Sb2,716,0.000025115,0.0014336,0.00018975,1.7777,0.47701,39816.8425243878,0.0008064353
10954,10.1007/s11664-015-4303-6,5134,3(a),6469,x=0.3,Ca0.7Eu0.3Zn2Sb2,716.5,0.000025128,0.0014342,0.00018984,1.7758,0.47754,39796.2432346386,0.000807636
10954,10.1007/s11664-015-4303-6,5134,3(a),6469,x=0.3,Ca0.7Eu0.3Zn2Sb2,717,0.000025141,0.0014348,0.00018993,,0.47807,39775.6652480013,
10954,10.1007/s11664-015-4303-6,5134,3(a),6469,x=0.3,Ca0.7Eu0.3Zn2Sb2,717.5,0.000025155,0.0014356,0.00019003,,0.4786,39753.5281256212,
10954,10.1007/s11664-015-4303-6,5134,3(a),6469,x=0.3,Ca0.7Eu0.3Zn2Sb2,718,0.000025168,0.0014362,0.00019012,,0.47913,39732.9942784488,
10954,10.1007/s11664-015-4303-6,5134,3(a),6469,x=0.3,Ca0.7Eu0.3Zn2Sb2,718.5,0.000025182,0.0014367,0.00019021,,0.47966,39710.9046144071,
10954,10.1007/s11664-015-4303-6,5134,3(a),6469,x=0.3,Ca0.7Eu0.3Zn2Sb2,719,0.000025195,0.0014374,0.0001903,,0.48019,39690.4147648343,
10954,10.1007/s11664-015-4303-6,5134,3(a),6469,x=0.3,Ca0.7Eu0.3Zn2Sb2,719.5,0.000025208,0.001438,0.00019039,,0.48072,39669.9460488734,
10954,10.1007/s11664-015-4303-6,5134,3(a),6469,x=0.3,Ca0.7Eu0.3Zn2Sb2,720,0.000025222,0.0014387,0.00019049,,0.48124,39647.9264134486,
10954,10.1007/s11664-015-4303-6,5139,4,6469,x=0.3,Ca0.7Eu0.3Zn2Sb2,720.5,,,,,0.48177,,
10954,10.1007/s11664-015-4303-6,5134,3(a),6470,x=0.7,Ca0.3Eu0.7Zn2Sb2,301.5,0.000012882,0.0010155,0.00011347,2.9005,0.053237,77627.6975624903,0.000350112
10954,10.1007/s11664-015-4303-6,5134,3(a),6470,x=0.7,Ca0.3Eu0.7Zn2Sb2,302,0.000012895,0.0010162,0.00011356,2.8989,0.053901,77549.4377665762,0.0003505468
10954,10.1007/s11664-015-4303-6,5134,3(a),6470,x=0.7,Ca0.3Eu0.7Zn2Sb2,302.5,0.000012908,0.0010169,0.00011366,2.8973,0.054565,77471.3356058258,0.0003509819
10954,10.1007/s11664-015-4303-6,5134,3(a),6470,x=0.7,Ca0.3Eu0.7Zn2Sb2,303,0.000012921,0.0010176,0.00011375,2.8958,0.055229,77393.3906044424,0.0003514055
10954,10.1007/s11664-015-4303-6,5134,3(a),6470,x=0.7,Ca0.3Eu0.7Zn2Sb2,303.5,0.000012934,0.0010183,0.00011385,2.8942,0.055892,77315.6022885418,0.0003518416
10954,10.1007/s11664-015-4303-6,5134,3(a),6470,x=0.7,Ca0.3Eu0.7Zn2Sb2,304,0.000012946,0.001019,0.00011394,2.8926,0.056556,77243.9363509964,0.0003522782
10954,10.1007/s11664-015-4303-6,5134,3(a),6470,x=0.7,Ca0.3Eu0.7Zn2Sb2,304.5,0.000012959,0.0010196,0.00011404,2.891,0.05722,77166.4480283973,0.0003526807
10954,10.1007/s11664-015-4303-6,5134,3(a),6470,x=0.7,Ca0.3Eu0.7Zn2Sb2,305,0.000012972,0.0010203,0.00011413,2.8894,0.057884,77089.1150169596,0.0003531183
10954,10.1007/s11664-015-4303-6,5134,3(a),6470,x=0.7,Ca0.3Eu0.7Zn2Sb2,305.5,0.000012985,0.001021,0.00011423,2.8878,0.058548,77011.9368502118,0.0003535563
10954,10.1007/s11664-015-4303-6,5134,3(a),6470,x=0.7,Ca0.3Eu0.7Zn2Sb2,306,0.000012998,0.0010217,0.00011432,2.8862,0.059211,76934.9130635482,0.0003539949
10954,10.1007/s11664-015-4303-6,5134,3(a),6470,x=0.7,Ca0.3Eu0.7Zn2Sb2,306.5,0.000013011,0.0010224,0.00011442,2.8846,0.059875,76858.0431942203,0.0003544339
10954,10.1007/s11664-015-4303-6,5134,3(a),6470,x=0.7,Ca0.3Eu0.7Zn2Sb2,307,0.000013023,0.001023,0.00011451,2.8831,0.060539,76787.2226061583,0.0003548264
10954,10.1007/s11664-015-4303-6,5134,3(a),6470,x=0.7,Ca0.3Eu0.7Zn2Sb2,307.5,0.000013036,0.0010237,0.00011461,2.8815,0.061203,76710.6474378644,0.0003552664
10954,10.1007/s11664-015-4303-6,5134,3(a),6470,x=0.7,Ca0.3Eu0.7Zn2Sb2,308,0.000013049,0.0010244,0.0001147,2.8799,0.061866,76634.2248448157,0.0003557068
10954,10.1007/s11664-015-4303-6,5134,3(a),6470,x=0.7,Ca0.3Eu0.7Zn2Sb2,308.5,0.000013062,0.0010251,0.0001148,2.8783,0.06253,76557.9543714592,0.0003561477
10954,10.1007/s11664-015-4303-6,5134,3(a),6470,x=0.7,Ca0.3Eu0.7Zn2Sb2,309,0.000013075,0.0010258,0.00011489,2.8767,0.063194,76481.8355640535,0.0003565891
10954,10.1007/s11664-015-4303-6,5134,3(a),6470,x=0.7,Ca0.3Eu0.7Zn2Sb2,309.5,0.000013088,0.0010265,0.00011499,2.8751,0.063858,76405.8679706601,0.0003570311
10954,10.1007/s11664-015-4303-6,5134,3(a),6470,x=0.7,Ca0.3Eu0.7Zn2Sb2,310,0.0000131,0.0010271,0.00011508,2.8735,0.064521,76335.8778625954,0.0003574387
10954,10.1007/s11664-015-4303-6,5134,3(a),6470,x=0.7,Ca0.3Eu0.7Zn2Sb2,310.5,0.000013113,0.0010278,0.00011518,2.872,0.065185,76260.1998017235,0.0003578691
10954,10.1007/s11664-015-4303-6,5134,3(a),6470,x=0.7,Ca0.3Eu0.7Zn2Sb2,311,0.000013126,0.0010285,0.00011527,2.8704,0.065849,76184.6716440652,0.0003583124
10954,10.1007/s11664-015-4303-6,5134,3(a),6470,x=0.7,Ca0.3Eu0.7Zn2Sb2,311.5,0.000013139,0.0010292,0.00011537,2.8688,0.066513,76109.2929446685,0.0003587563
10954,10.1007/s11664-015-4303-6,5134,3(a),6470,x=0.7,Ca0.3Eu0.7Zn2Sb2,312,0.000013152,0.0010299,0.00011546,2.8672,0.067176,76034.0632603406,0.0003592006
10954,10.1007/s11664-015-4303-6,5134,3(a),6470,x=0.7,Ca0.3Eu0.7Zn2Sb2,312.5,0.000013165,0.0010305,0.00011556,2.8656,0.06784,75958.9821496392,0.0003596106
10954,10.1007/s11664-015-4303-6,5134,3(a),6470,x=0.7,Ca0.3Eu0.7Zn2Sb2,313,0.000013178,0.0010312,0.00011565,2.864,0.068504,75884.0491728639,0.0003600559
10954,10.1007/s11664-015-4303-6,5134,3(a),6470,x=0.7,Ca0.3Eu0.7Zn2Sb2,313.5,0.00001319,0.0010319,0.00011575,2.8624,0.069168,75815.0113722517,0.0003605017
10954,10.1007/s11664-015-4303-6,5134,3(a),6470,x=0.7,Ca0.3Eu0.7Zn2Sb2,314,0.000013203,0.0010326,0.00011584,2.8608,0.069831,75740.3620389305,0.000360948
10954,10.1007/s11664-015-4303-6,5134,3(a),6470,x=0.7,Ca0.3Eu0.7Zn2Sb2,314.5,0.000013216,0.0010333,0.00011594,2.8593,0.070495,75665.8595641647,0.0003613822
10954,10.1007/s11664-015-4303-6,5134,3(a),6470,x=0.7,Ca0.3Eu0.7Zn2Sb2,315,0.000013229,0.001034,0.00011603,2.8577,0.071159,75591.5035150049,0.0003618294
10954,10.1007/s11664-015-4303-6,5134,3(a),6470,x=0.7,Ca0.3Eu0.7Zn2Sb2,315.5,0.000013242,0.0010346,0.00011613,2.8561,0.071823,75517.2934602024,0.0003622422
10954,10.1007/s11664-015-4303-6,5134,3(a),6470,x=0.7,Ca0.3Eu0.7Zn2Sb2,316,0.000013255,0.0010353,0.00011622,2.8545,0.072486,75443.2289701999,0.0003626905
10954,10.1007/s11664-015-4303-6,5134,3(a),6470,x=0.7,Ca0.3Eu0.7Zn2Sb2,316.5,0.000013267,0.001036,0.00011632,2.8529,0.07315,75374.9905781262,0.0003631393
10954,10.1007/s11664-015-4303-6,5134,3(a),6470,x=0.7,Ca0.3Eu0.7Zn2Sb2,317,0.00001328,0.0010367,0.00011641,2.8513,0.073814,75301.2048192771,0.0003635885
10954,10.1007/s11664-015-4303-6,5134,3(a),6470,x=0.7,Ca0.3Eu0.7Zn2Sb2,317.5,0.000013293,0.0010374,0.00011651,2.8497,0.074478,75227.5633792221,0.0003640383
10954,10.1007/s11664-015-4303-6,5134,3(a),6470,x=0.7,Ca0.3Eu0.7Zn2Sb2,318,0.000013306,0.0010381,0.0001166,2.8481,0.075141,75154.0658349617,0.0003644886
10954,10.1007/s11664-015-4303-6,5134,3(a),6470,x=0.7,Ca0.3Eu0.7Zn2Sb2,318.5,0.000013319,0.0010387,0.0001167,2.8466,0.075805,75080.7117651475,0.0003648914
10954,10.1007/s11664-015-4303-6,5134,3(a),6470,x=0.7,Ca0.3Eu0.7Zn2Sb2,319,0.000013332,0.0010394,0.00011679,2.845,0.076469,75007.500750075,0.0003653427
10954,10.1007/s11664-015-4303-6,5134,3(a),6470,x=0.7,Ca0.3Eu0.7Zn2Sb2,319.5,0.000013344,0.0010401,0.00011688,2.8434,0.077133,74940.0479616307,0.0003657945
10954,10.1007/s11664-015-4303-6,5134,3(a),6470,x=0.7,Ca0.3Eu0.7Zn2Sb2,320,0.000013357,0.0010408,0.00011698,2.8418,0.077797,74867.1108781912,0.0003662467
10954,10.1007/s11664-015-4303-6,5134,3(a),6470,x=0.7,Ca0.3Eu0.7Zn2Sb2,320.5,0.00001337,0.0010415,0.00011707,2.8402,0.07846,74794.315632012,0.0003666995
10954,10.1007/s11664-015-4303-6,5134,3(a),6470,x=0.7,Ca0.3Eu0.7Zn2Sb2,321,0.000013383,0.0010421,0.00011717,2.8386,0.079124,74721.6618097586,0.0003671176
10954,10.1007/s11664-015-4303-6,5134,3(a),6470,x=0.7,Ca0.3Eu0.7Zn2Sb2,321.5,0.000013396,0.0010428,0.00011726,2.837,0.079788,74649.1489997014,0.0003675714
10954,10.1007/s11664-015-4303-6,5134,3(a),6470,x=0.7,Ca0.3Eu0.7Zn2Sb2,322,0.000013409,0.0010435,0.00011736,2.8354,0.080452,74576.7767917071,0.0003680257
10954,10.1007/s11664-015-4303-6,5134,3(a),6470,x=0.7,Ca0.3Eu0.7Zn2Sb2,322.5,0.000013422,0.0010442,0.00011745,2.8339,0.081115,74504.5447772314,0.0003684675
10954,10.1007/s11664-015-4303-6,5134,3(a),6470,x=0.7,Ca0.3Eu0.7Zn2Sb2,323,0.000013434,0.0010449,0.00011755,2.8323,0.081779,74437.9931517046,0.0003689228
10954,10.1007/s11664-015-4303-6,5134,3(a),6470,x=0.7,Ca0.3Eu0.7Zn2Sb2,323.5,0.000013447,0.0010456,0.00011764,2.8307,0.082443,74366.0295976798,0.0003693786
10954,10.1007/s11664-015-4303-6,5134,3(a),6470,x=0.7,Ca0.3Eu0.7Zn2Sb2,324,0.00001346,0.0010462,0.00011774,2.8291,0.083107,74294.2050520059,0.0003697996
10954,10.1007/s11664-015-4303-6,5134,3(a),6470,x=0.7,Ca0.3Eu0.7Zn2Sb2,324.5,0.000013473,0.0010469,0.00011783,2.8275,0.08377,74222.5191122987,0.0003702564
10954,10.1007/s11664-015-4303-6,5134,3(a),6470,x=0.7,Ca0.3Eu0.7Zn2Sb2,325,0.000013486,0.0010476,0.00011793,2.8259,0.084434,74150.9713777251,0.0003707138
10954,10.1007/s11664-015-4303-6,5134,3(a),6470,x=0.7,Ca0.3Eu0.7Zn2Sb2,325.5,0.000013499,0.0010483,0.00011802,2.8243,0.085098,74079.5614489962,0.0003711716
10954,10.1007/s11664-015-4303-6,5134,3(a),6470,x=0.7,Ca0.3Eu0.7Zn2Sb2,326,0.000013511,0.001049,0.00011812,2.8228,0.085762,74013.7665605803,0.0003716168
10954,10.1007/s11664-015-4303-6,5134,3(a),6470,x=0.7,Ca0.3Eu0.7Zn2Sb2,326.5,0.000013524,0.0010497,0.00011821,2.8212,0.086425,73942.6205264715,0.0003720757
10954,10.1007/s11664-015-4303-6,5134,3(a),6470,x=0.7,Ca0.3Eu0.7Zn2Sb2,327,0.000013537,0.0010503,0.00011831,2.8196,0.087089,73871.611139839,0.0003724996
10954,10.1007/s11664-015-4303-6,5134,3(a),6470,x=0.7,Ca0.3Eu0.7Zn2Sb2,327.5,0.00001355,0.001051,0.0001184,2.818,0.087753,73800.7380073801,0.0003729595
10954,10.1007/s11664-015-4303-6,5134,3(a),6470,x=0.7,Ca0.3Eu0.7Zn2Sb2,328,0.000013563,0.0010517,0.0001185,2.8164,0.088417,73730.0007373,0.00037342
10954,10.1007/s11664-015-4303-6,5134,3(a),6470,x=0.7,Ca0.3Eu0.7Zn2Sb2,328.5,0.000013576,0.0010524,0.00011859,2.8148,0.08908,73659.3989393047,0.0003738809
10954,10.1007/s11664-015-4303-6,5134,3(a),6470,x=0.7,Ca0.3Eu0.7Zn2Sb2,329,0.000013588,0.0010531,0.00011869,2.8132,0.089744,73594.3479540771,0.0003743424
10954,10.1007/s11664-015-4303-6,5134,3(a),6470,x=0.7,Ca0.3Eu0.7Zn2Sb2,329.5,0.000013601,0.0010537,0.00011878,2.8116,0.090408,73524.0055878244,0.0003747688
10954,10.1007/s11664-015-4303-6,5134,3(a),6470,x=0.7,Ca0.3Eu0.7Zn2Sb2,330,0.000013614,0.0010544,0.00011888,2.8101,0.091072,73453.7975613339,0.000375218
10954,10.1007/s11664-015-4303-6,5134,3(a),6470,x=0.7,Ca0.3Eu0.7Zn2Sb2,330.5,0.000013627,0.0010551,0.00011897,2.8085,0.091735,73383.7234901299,0.000375681
10954,10.1007/s11664-015-4303-6,5134,3(a),6470,x=0.7,Ca0.3Eu0.7Zn2Sb2,331,0.00001364,0.0010558,0.00011907,2.8069,0.092399,73313.7829912023,0.0003761445
10954,10.1007/s11664-015-4303-6,5134,3(a),6470,x=0.7,Ca0.3Eu0.7Zn2Sb2,331.5,0.000013653,0.0010565,0.00011916,2.8053,0.093063,73243.9756830001,0.0003766086
10954,10.1007/s11664-015-4303-6,5134,3(a),6470,x=0.7,Ca0.3Eu0.7Zn2Sb2,332,0.000013666,0.0010572,0.00011926,2.8037,0.093727,73174.3011854237,0.0003770732
10954,10.1007/s11664-015-4303-6,5134,3(a),6470,x=0.7,Ca0.3Eu0.7Zn2Sb2,332.5,0.000013678,0.0010578,0.00011935,2.8021,0.09439,73110.1038163474,0.0003775026
10954,10.1007/s11664-015-4303-6,5134,3(a),6470,x=0.7,Ca0.3Eu0.7Zn2Sb2,333,0.000013691,0.0010585,0.00011945,2.8005,0.095054,73040.6836607991,0.0003779682
10954,10.1007/s11664-015-4303-6,5134,3(a),6470,x=0.7,Ca0.3Eu0.7Zn2Sb2,333.5,0.000013704,0.0010592,0.00011954,2.7989,0.095718,72971.3952130765,0.0003784344
10954,10.1007/s11664-015-4303-6,5134,3(a),6470,x=0.7,Ca0.3Eu0.7Zn2Sb2,334,0.000013717,0.0010599,0.00011964,2.7974,0.096382,72902.2380987096,0.0003788875
10954,10.1007/s11664-015-4303-6,5134,3(a),6470,x=0.7,Ca0.3Eu0.7Zn2Sb2,334.5,0.00001373,0.0010606,0.00011973,2.7958,0.097046,72833.2119446468,0.0003793547
10954,10.1007/s11664-015-4303-6,5134,3(a),6470,x=0.7,Ca0.3Eu0.7Zn2Sb2,335,0.000013743,0.0010613,0.00011983,2.7942,0.097709,72764.3163792476,0.0003798225
10954,10.1007/s11664-015-4303-6,5134,3(a),6470,x=0.7,Ca0.3Eu0.7Zn2Sb2,335.5,0.000013755,0.0010619,0.00011992,2.7926,0.098373,72700.8360596147,0.000380255
10954,10.1007/s11664-015-4303-6,5134,3(a),6470,x=0.7,Ca0.3Eu0.7Zn2Sb2,336,0.000013768,0.0010626,0.00012002,2.791,0.099037,72632.1905868681,0.0003807238
10954,10.1007/s11664-015-4303-6,5134,3(a),6470,x=0.7,Ca0.3Eu0.7Zn2Sb2,336.5,0.000013781,0.0010633,0.00012011,2.7894,0.099701,72563.674624483,0.0003811931
10954,10.1007/s11664-015-4303-6,5134,3(a),6470,x=0.7,Ca0.3Eu0.7Zn2Sb2,337,0.000013794,0.001064,0.00012021,2.7878,0.10036,72495.2878062926,0.000381663
10954,10.1007/s11664-015-4303-6,5134,3(a),6470,x=0.7,Ca0.3Eu0.7Zn2Sb2,337.5,0.000013807,0.0010647,0.0001203,2.7862,0.10103,72427.0297675092,0.0003821334
10954,10.1007/s11664-015-4303-6,5134,3(a),6470,x=0.7,Ca0.3Eu0.7Zn2Sb2,338,0.00001382,0.0010653,0.00012039,2.7847,0.10169,72358.9001447178,0.0003825547
10954,10.1007/s11664-015-4303-6,5134,3(a),6470,x=0.7,Ca0.3Eu0.7Zn2Sb2,338.5,0.000013832,0.001066,0.00012049,2.7831,0.10236,72296.1249277039,0.0003830261
10954,10.1007/s11664-015-4303-6,5134,3(a),6470,x=0.7,Ca0.3Eu0.7Zn2Sb2,339,0.000013845,0.0010667,0.00012058,2.7815,0.10302,72228.2412423257,0.0003834981
10954,10.1007/s11664-015-4303-6,5134,3(a),6470,x=0.7,Ca0.3Eu0.7Zn2Sb2,339.5,0.000013858,0.0010674,0.00012068,2.7799,0.10368,72160.4849184586,0.0003839706
10954,10.1007/s11664-015-4303-6,5134,3(a),6470,x=0.7,Ca0.3Eu0.7Zn2Sb2,340,0.000013871,0.0010681,0.00012077,2.7783,0.10435,72092.8555980102,0.0003844437
10954,10.1007/s11664-015-4303-6,5134,3(a),6470,x=0.7,Ca0.3Eu0.7Zn2Sb2,340.5,0.000013884,0.0010688,0.00012087,2.7767,0.10501,72025.3529242293,0.0003849173
10954,10.1007/s11664-015-4303-6,5134,3(a),6470,x=0.7,Ca0.3Eu0.7Zn2Sb2,341,0.000013897,0.0010694,0.00012096,2.7751,0.10567,71957.9765416997,0.0003853555
10954,10.1007/s11664-015-4303-6,5134,3(a),6470,x=0.7,Ca0.3Eu0.7Zn2Sb2,341.5,0.000013909,0.0010701,0.00012106,2.7736,0.10634,71895.8947444101,0.0003858163
10954,10.1007/s11664-015-4303-6,5134,3(a),6470,x=0.7,Ca0.3Eu0.7Zn2Sb2,342,0.000013922,0.0010708,0.00012115,2.772,0.107,71828.7602355983,0.0003862915
10954,10.1007/s11664-015-4303-6,5134,3(a),6470,x=0.7,Ca0.3Eu0.7Zn2Sb2,342.5,0.000013935,0.0010715,0.00012125,2.7704,0.10767,71761.7509867241,0.0003867673
10954,10.1007/s11664-015-4303-6,5134,3(a),6470,x=0.7,Ca0.3Eu0.7Zn2Sb2,343,0.000013948,0.0010722,0.00012134,2.7688,0.10833,71694.866647548,0.0003872436
10954,10.1007/s11664-015-4303-6,5134,3(a),6470,x=0.7,Ca0.3Eu0.7Zn2Sb2,343.5,0.000013961,0.0010728,0.00012144,2.7672,0.10899,71628.1068691354,0.0003876843
10954,10.1007/s11664-015-4303-6,5134,3(a),6470,x=0.7,Ca0.3Eu0.7Zn2Sb2,344,0.000013974,0.0010735,0.00012153,2.7656,0.10966,71561.47130385,0.0003881617
10954,10.1007/s11664-015-4303-6,5134,3(a),6470,x=0.7,Ca0.3Eu0.7Zn2Sb2,344.5,0.000013987,0.0010742,0.00012163,2.764,0.11032,71494.9596053478,0.0003886397
10954,10.1007/s11664-015-4303-6,5134,3(a),6470,x=0.7,Ca0.3Eu0.7Zn2Sb2,345,0.000013999,0.0010749,0.00012172,2.7624,0.11098,71433.6738338453,0.0003891182
10954,10.1007/s11664-015-4303-6,5134,3(a),6470,x=0.7,Ca0.3Eu0.7Zn2Sb2,345.5,0.000014012,0.0010756,0.00012182,2.7609,0.11165,71367.3993719669,0.0003895831
10954,10.1007/s11664-015-4303-6,5134,3(a),6470,x=0.7,Ca0.3Eu0.7Zn2Sb2,346,0.000014025,0.0010763,0.00012191,2.7593,0.11231,71301.247771836,0.0003900627
10954,10.1007/s11664-015-4303-6,5134,3(a),6470,x=0.7,Ca0.3Eu0.7Zn2Sb2,346.5,0.000014038,0.0010769,0.00012201,2.7577,0.11298,71235.2186921214,0.0003905066
10954,10.1007/s11664-015-4303-6,5134,3(a),6470,x=0.7,Ca0.3Eu0.7Zn2Sb2,347,0.000014051,0.0010776,0.0001221,2.7561,0.11364,71169.311792755,0.0003909873
10954,10.1007/s11664-015-4303-6,5134,3(a),6470,x=0.7,Ca0.3Eu0.7Zn2Sb2,347.5,0.000014064,0.0010783,0.0001222,2.7545,0.1143,71103.5267349261,0.0003914685
10954,10.1007/s11664-015-4303-6,5134,3(a),6470,x=0.7,Ca0.3Eu0.7Zn2Sb2,348,0.000014076,0.001079,0.00012229,2.7529,0.11497,71042.9099175902,0.0003919503
10954,10.1007/s11664-015-4303-6,5134,3(a),6470,x=0.7,Ca0.3Eu0.7Zn2Sb2,348.5,0.000014089,0.0010797,0.00012239,2.7513,0.11563,70977.358222727,0.0003924327
10954,10.1007/s11664-015-4303-6,5134,3(a),6470,x=0.7,Ca0.3Eu0.7Zn2Sb2,349,0.000014102,0.0010804,0.00012248,2.7497,0.11629,70911.9273861864,0.0003929156
10954,10.1007/s11664-015-4303-6,5134,3(a),6470,x=0.7,Ca0.3Eu0.7Zn2Sb2,349.5,0.000014115,0.001081,0.00012258,2.7482,0.11696,70846.6170740347,0.0003933484
10954,10.1007/s11664-015-4303-6,5134,3(a),6470,x=0.7,Ca0.3Eu0.7Zn2Sb2,350,0.000014128,0.0010817,0.00012267,2.7466,0.11762,70781.4269535674,0.0003938324
10954,10.1007/s11664-015-4303-6,5134,3(a),6470,x=0.7,Ca0.3Eu0.7Zn2Sb2,350.5,0.000014141,0.0010824,0.00012277,2.745,0.11829,70716.3566933032,0.0003943169
10954,10.1007/s11664-015-4303-6,5134,3(a),6470,x=0.7,Ca0.3Eu0.7Zn2Sb2,351,0.000014153,0.0010831,0.00012286,2.7434,0.11895,70656.3979368332,0.0003948021
10954,10.1007/s11664-015-4303-6,5134,3(a),6470,x=0.7,Ca0.3Eu0.7Zn2Sb2,351.5,0.000014166,0.0010838,0.00012296,2.7418,0.11961,70591.5572497529,0.0003952878
10954,10.1007/s11664-015-4303-6,5134,3(a),6470,x=0.7,Ca0.3Eu0.7Zn2Sb2,352,0.000014179,0.0010844,0.00012305,2.7402,0.12028,70526.8354608929,0.0003957375
10954,10.1007/s11664-015-4303-6,5134,3(a),6470,x=0.7,Ca0.3Eu0.7Zn2Sb2,352.5,0.000014192,0.0010851,0.00012315,2.7386,0.12094,70462.2322435175,0.0003962243
10954,10.1007/s11664-015-4303-6,5134,3(a),6470,x=0.7,Ca0.3Eu0.7Zn2Sb2,353,0.000014205,0.0010858,0.00012324,2.737,0.1216,70397.7472720873,0.0003967117
10954,10.1007/s11664-015-4303-6,5134,3(a),6470,x=0.7,Ca0.3Eu0.7Zn2Sb2,353.5,0.000014218,0.0010865,0.00012334,2.7355,0.12227,70333.3802222535,0.0003971852
10954,10.1007/s11664-015-4303-6,5134,3(a),6470,x=0.7,Ca0.3Eu0.7Zn2Sb2,354,0.000014231,0.0010872,0.00012343,2.7339,0.12293,70269.1307708524,0.0003976737
10954,10.1007/s11664-015-4303-6,5134,3(a),6470,x=0.7,Ca0.3Eu0.7Zn2Sb2,354.5,0.000014243,0.0010879,0.00012353,2.7323,0.1236,70209.9276837745,0.0003981627
10954,10.1007/s11664-015-4303-6,5134,3(a),6470,x=0.7,Ca0.3Eu0.7Zn2Sb2,355,0.000014256,0.0010885,0.00012362,2.7307,0.12426,70145.9034792368,0.0003986157
10954,10.1007/s11664-015-4303-6,5134,3(a),6470,x=0.7,Ca0.3Eu0.7Zn2Sb2,355.5,0.000014269,0.0010892,0.00012372,2.7291,0.12492,70081.9959352442,0.0003991059
10954,10.1007/s11664-015-4303-6,5134,3(a),6470,x=0.7,Ca0.3Eu0.7Zn2Sb2,356,0.000014282,0.0010899,0.00012381,2.7275,0.12559,70018.2047332306,0.0003995967