sid,DOI,figureid,fignum,sampleid,samplename,composition,Temperature,Electrical resistivity,Power factor,Seebeck coefficient,Thermal conductivity,ZT,Electrical conductivity,Figure of merit Z
73,10.1016/j.actamat.2015.04.023,4591,3(a),5860,x=0.025,Mg2.975Na0.025Sb2,482.5,0.000027774,0.00044753,0.00010497,1.6435,0.18758,36004.8966659466,0.000272303
73,10.1016/j.actamat.2015.04.023,4591,3(a),5860,x=0.025,Mg2.975Na0.025Sb2,483,0.00002778,0.00044812,0.00010506,1.6425,0.18808,35997.1202303816,0.000272828
73,10.1016/j.actamat.2015.04.023,4591,3(a),5860,x=0.025,Mg2.975Na0.025Sb2,483.5,0.000027785,0.00044872,0.00010515,1.6415,0.18857,35990.6424329674,0.0002733597
73,10.1016/j.actamat.2015.04.023,4591,3(a),5860,x=0.025,Mg2.975Na0.025Sb2,484,0.00002779,0.00044932,0.00010524,1.6405,0.18907,35984.1669665347,0.0002738921
73,10.1016/j.actamat.2015.04.023,4591,3(a),5860,x=0.025,Mg2.975Na0.025Sb2,484.5,0.000027795,0.00044991,0.00010533,1.6395,0.18957,35977.6938298255,0.000274419
73,10.1016/j.actamat.2015.04.023,4591,3(a),5860,x=0.025,Mg2.975Na0.025Sb2,485,0.0000278,0.00045051,0.00010542,1.6386,0.19007,35971.2230215827,0.0002749359
73,10.1016/j.actamat.2015.04.023,4591,3(a),5860,x=0.025,Mg2.975Na0.025Sb2,485.5,0.000027805,0.00045111,0.00010551,1.6376,0.19056,35964.7545405503,0.0002754702
73,10.1016/j.actamat.2015.04.023,4591,3(a),5860,x=0.025,Mg2.975Na0.025Sb2,486,0.00002781,0.0004517,0.00010559,1.6366,0.19106,35958.2883854728,0.000275999
73,10.1016/j.actamat.2015.04.023,4591,3(a),5860,x=0.025,Mg2.975Na0.025Sb2,486.5,0.000027815,0.0004523,0.00010568,1.6356,0.19156,35951.8245550962,0.0002765346
73,10.1016/j.actamat.2015.04.023,4591,3(a),5860,x=0.025,Mg2.975Na0.025Sb2,487,0.000027821,0.0004529,0.00010577,1.6346,0.19206,35944.0710254843,0.0002770708
73,10.1016/j.actamat.2015.04.023,4591,3(a),5860,x=0.025,Mg2.975Na0.025Sb2,487.5,0.000027826,0.00045349,0.00010586,1.6336,0.19255,35937.6123050384,0.0002776016
73,10.1016/j.actamat.2015.04.023,4591,3(a),5860,x=0.025,Mg2.975Na0.025Sb2,488,0.000027831,0.00045409,0.00010595,1.6327,0.19305,35931.1559052855,0.0002781221
73,10.1016/j.actamat.2015.04.023,4591,3(a),5860,x=0.025,Mg2.975Na0.025Sb2,488.5,0.000027836,0.00045469,0.00010604,1.6317,0.19355,35924.7018249749,0.0002786603
73,10.1016/j.actamat.2015.04.023,4591,3(a),5860,x=0.025,Mg2.975Na0.025Sb2,489,0.000027841,0.00045528,0.00010613,1.6307,0.19405,35918.2500628569,0.000279193
73,10.1016/j.actamat.2015.04.023,4591,3(a),5860,x=0.025,Mg2.975Na0.025Sb2,489.5,0.000027846,0.00045588,0.00010622,1.6297,0.19454,35911.800617683,0.0002797325
73,10.1016/j.actamat.2015.04.023,4591,3(a),5860,x=0.025,Mg2.975Na0.025Sb2,490,0.000027851,0.00045647,0.00010631,1.6287,0.19504,35905.3534882051,0.0002802665
73,10.1016/j.actamat.2015.04.023,4591,3(a),5860,x=0.025,Mg2.975Na0.025Sb2,490.5,0.000027857,0.00045707,0.0001064,1.6278,0.19554,35897.6199877948,0.00028079
73,10.1016/j.actamat.2015.04.023,4591,3(a),5860,x=0.025,Mg2.975Na0.025Sb2,491,0.000027862,0.00045767,0.00010649,1.6268,0.19604,35891.1779484603,0.0002813314
73,10.1016/j.actamat.2015.04.023,4591,3(a),5860,x=0.025,Mg2.975Na0.025Sb2,491.5,0.000027867,0.00045826,0.00010658,1.6258,0.19653,35884.7382208347,0.0002818674
73,10.1016/j.actamat.2015.04.023,4591,3(a),5860,x=0.025,Mg2.975Na0.025Sb2,492,0.000027872,0.00045886,0.00010667,1.6248,0.19703,35878.3008036739,0.0002824101
73,10.1016/j.actamat.2015.04.023,4591,3(a),5860,x=0.025,Mg2.975Na0.025Sb2,492.5,0.000027877,0.00045946,0.00010676,1.6238,0.19753,35871.8656957348,0.0002829536
73,10.1016/j.actamat.2015.04.023,4591,3(a),5860,x=0.025,Mg2.975Na0.025Sb2,493,0.000027882,0.00046005,0.00010685,1.6229,0.19803,35865.4328957751,0.000283474
73,10.1016/j.actamat.2015.04.023,4591,3(a),5860,x=0.025,Mg2.975Na0.025Sb2,493.5,0.000027887,0.00046065,0.00010694,1.6219,0.19852,35859.0024025532,0.0002840187
73,10.1016/j.actamat.2015.04.023,4591,3(a),5860,x=0.025,Mg2.975Na0.025Sb2,494,0.000027892,0.00046125,0.00010703,1.6209,0.19902,35852.5742148286,0.0002845641
73,10.1016/j.actamat.2015.04.023,4591,3(a),5860,x=0.025,Mg2.975Na0.025Sb2,494.5,0.000027898,0.00046184,0.00010712,1.6199,0.19952,35844.8634310703,0.000285104
73,10.1016/j.actamat.2015.04.023,4591,3(a),5860,x=0.025,Mg2.975Na0.025Sb2,495,0.000027903,0.00046244,0.0001072,1.6189,0.20002,35838.4403110777,0.0002856508
73,10.1016/j.actamat.2015.04.023,4591,3(a),5860,x=0.025,Mg2.975Na0.025Sb2,495.5,0.000027908,0.00046304,0.00010729,1.6179,0.20051,35832.0194926186,0.0002861982
73,10.1016/j.actamat.2015.04.023,4591,3(a),5860,x=0.025,Mg2.975Na0.025Sb2,496,0.000027913,0.00046363,0.00010738,1.617,0.20101,35825.6009744563,0.0002867223
73,10.1016/j.actamat.2015.04.023,4591,3(a),5860,x=0.025,Mg2.975Na0.025Sb2,496.5,0.000027918,0.00046423,0.00010747,1.616,0.20151,35819.184755355,0.000287271
73,10.1016/j.actamat.2015.04.023,4591,3(a),5860,x=0.025,Mg2.975Na0.025Sb2,497,0.000027923,0.00046483,0.00010756,1.615,0.202,35812.7708340794,0.0002878204
73,10.1016/j.actamat.2015.04.023,4591,3(a),5860,x=0.025,Mg2.975Na0.025Sb2,497.5,0.000027928,0.00046542,0.00010765,1.614,0.2025,35806.3592093956,0.0002883643
73,10.1016/j.actamat.2015.04.023,4591,3(a),5860,x=0.025,Mg2.975Na0.025Sb2,498,0.000027933,0.00046602,0.00010774,1.613,0.203,35799.9498800702,0.0002889151
73,10.1016/j.actamat.2015.04.023,4591,3(a),5860,x=0.025,Mg2.975Na0.025Sb2,498.5,0.000027939,0.00046662,0.00010783,1.6121,0.2035,35792.2617130176,0.0002894485
73,10.1016/j.actamat.2015.04.023,4591,3(a),5860,x=0.025,Mg2.975Na0.025Sb2,499,0.000027944,0.00046721,0.00010792,1.6111,0.20399,35785.857429144,0.0002899944
73,10.1016/j.actamat.2015.04.023,4591,3(a),5860,x=0.025,Mg2.975Na0.025Sb2,499.5,0.000027949,0.00046781,0.00010801,1.6101,0.20449,35779.4554366883,0.0002905472
73,10.1016/j.actamat.2015.04.023,4591,3(a),5860,x=0.025,Mg2.975Na0.025Sb2,500,0.000027954,0.00046841,0.0001081,1.6091,0.20499,35773.0557344208,0.0002911006
73,10.1016/j.actamat.2015.04.023,4591,3(a),5860,x=0.025,Mg2.975Na0.025Sb2,500.5,0.000027959,0.000469,0.00010819,1.6081,0.20549,35766.6583211131,0.0002916485
73,10.1016/j.actamat.2015.04.023,4591,3(a),5860,x=0.025,Mg2.975Na0.025Sb2,501,0.000027964,0.0004696,0.00010828,1.6071,0.20598,35760.2631955371,0.0002922033
73,10.1016/j.actamat.2015.04.023,4591,3(a),5860,x=0.025,Mg2.975Na0.025Sb2,501.5,0.000027969,0.0004702,0.00010837,1.6062,0.20648,35753.8703564661,0.0002927406
73,10.1016/j.actamat.2015.04.023,4591,3(a),5860,x=0.025,Mg2.975Na0.025Sb2,502,0.000027974,0.00047079,0.00010846,1.6052,0.20698,35747.4798026739,0.0002932906
73,10.1016/j.actamat.2015.04.023,4591,3(a),5860,x=0.025,Mg2.975Na0.025Sb2,502.5,0.00002798,0.00047139,0.00010855,1.6042,0.20748,35739.8141529664,0.0002938474
73,10.1016/j.actamat.2015.04.023,4591,3(a),5860,x=0.025,Mg2.975Na0.025Sb2,503,0.000027985,0.00047198,0.00010864,1.6032,0.20797,35733.4286224763,0.0002943987
73,10.1016/j.actamat.2015.04.023,4591,3(a),5860,x=0.025,Mg2.975Na0.025Sb2,503.5,0.00002799,0.00047258,0.00010873,1.6022,0.20847,35727.0453733476,0.0002949569
73,10.1016/j.actamat.2015.04.023,4591,3(a),5860,x=0.025,Mg2.975Na0.025Sb2,504,0.000027995,0.00047318,0.00010882,1.6013,0.20897,35720.6644043579,0.0002954974
73,10.1016/j.actamat.2015.04.023,4591,3(a),5860,x=0.025,Mg2.975Na0.025Sb2,504.5,0.000028,0.00047377,0.0001089,1.6003,0.20947,35714.2857142857,0.0002960507
73,10.1016/j.actamat.2015.04.023,4591,3(a),5860,x=0.025,Mg2.975Na0.025Sb2,505,0.000028005,0.00047437,0.00010899,1.5993,0.20996,35707.9093019104,0.000296611
73,10.1016/j.actamat.2015.04.023,4591,3(a),5860,x=0.025,Mg2.975Na0.025Sb2,505.5,0.00002801,0.00047497,0.00010908,1.5983,0.21046,35701.5351660121,0.000297172
73,10.1016/j.actamat.2015.04.023,4591,3(a),5860,x=0.025,Mg2.975Na0.025Sb2,506,0.000028016,0.00047556,0.00010917,1.5973,0.21096,35693.8892061679,0.0002977274
73,10.1016/j.actamat.2015.04.023,4591,3(a),5860,x=0.025,Mg2.975Na0.025Sb2,506.5,0.000028021,0.00047616,0.00010926,1.5964,0.21146,35687.52007423,0.0002982711
73,10.1016/j.actamat.2015.04.023,4591,3(a),5860,x=0.025,Mg2.975Na0.025Sb2,507,0.000028026,0.00047676,0.00010935,1.5954,0.21195,35681.1532148719,0.0002988341
73,10.1016/j.actamat.2015.04.023,4591,3(a),5860,x=0.025,Mg2.975Na0.025Sb2,507.5,0.000028031,0.00047735,0.00010944,1.5944,0.21245,35674.7886268774,0.0002993916
73,10.1016/j.actamat.2015.04.023,4591,3(a),5860,x=0.025,Mg2.975Na0.025Sb2,508,0.000028036,0.00047795,0.00010953,1.5934,0.21295,35668.4263090312,0.0002999561
73,10.1016/j.actamat.2015.04.023,4591,3(a),5860,x=0.025,Mg2.975Na0.025Sb2,508.5,0.000028041,0.00047855,0.00010962,1.5924,0.21345,35662.0662601191,0.0003005212
73,10.1016/j.actamat.2015.04.023,4591,3(a),5860,x=0.025,Mg2.975Na0.025Sb2,509,0.000028046,0.00047914,0.00010971,1.5914,0.21394,35655.7084789275,0.0003010808
73,10.1016/j.actamat.2015.04.023,4591,3(a),5860,x=0.025,Mg2.975Na0.025Sb2,509.5,0.000028051,0.00047974,0.0001098,1.5905,0.21444,35649.3529642437,0.0003016284
73,10.1016/j.actamat.2015.04.023,4591,3(a),5860,x=0.025,Mg2.975Na0.025Sb2,510,0.000028057,0.00048034,0.00010989,1.5895,0.21494,35641.7293367074,0.0003021957
73,10.1016/j.actamat.2015.04.023,4591,3(a),5860,x=0.025,Mg2.975Na0.025Sb2,510.5,0.000028062,0.00048093,0.00010998,1.5885,0.21544,35635.3788040767,0.0003027573
73,10.1016/j.actamat.2015.04.023,4591,3(a),5860,x=0.025,Mg2.975Na0.025Sb2,511,0.000028067,0.00048153,0.00011007,1.5875,0.21593,35629.0305340792,0.000303326
73,10.1016/j.actamat.2015.04.023,4591,3(a),5860,x=0.025,Mg2.975Na0.025Sb2,511.5,0.000028072,0.00048213,0.00011016,1.5865,0.21643,35622.6845255058,0.0003038954
73,10.1016/j.actamat.2015.04.023,4591,3(a),5860,x=0.025,Mg2.975Na0.025Sb2,512,0.000028077,0.00048272,0.00011025,1.5856,0.21693,35616.3407771486,0.00030444
73,10.1016/j.actamat.2015.04.023,4591,3(a),5860,x=0.025,Mg2.975Na0.025Sb2,512.5,0.000028082,0.00048332,0.00011034,1.5846,0.21743,35609.9992878,0.0003050107
73,10.1016/j.actamat.2015.04.023,4591,3(a),5860,x=0.025,Mg2.975Na0.025Sb2,513,0.000028087,0.00048392,0.00011043,1.5836,0.21792,35603.6600562538,0.0003055822
73,10.1016/j.actamat.2015.04.023,4591,3(a),5860,x=0.025,Mg2.975Na0.025Sb2,513.5,0.000028092,0.00048451,0.00011051,1.5826,0.21842,35597.3230813043,0.0003061481
73,10.1016/j.actamat.2015.04.023,4591,3(a),5860,x=0.025,Mg2.975Na0.025Sb2,514,0.000028098,0.00048511,0.0001106,1.5816,0.21892,35589.7216883764,0.000306721
73,10.1016/j.actamat.2015.04.023,4591,3(a),5860,x=0.025,Mg2.975Na0.025Sb2,514.5,0.000028103,0.00048571,0.00011069,1.5806,0.21942,35583.3896737003,0.0003072947
73,10.1016/j.actamat.2015.04.023,4591,3(a),5860,x=0.025,Mg2.975Na0.025Sb2,515,0.000028108,0.0004863,0.00011078,1.5797,0.21991,35577.0599117689,0.0003078433
73,10.1016/j.actamat.2015.04.023,4591,3(a),5860,x=0.025,Mg2.975Na0.025Sb2,515.5,0.000028113,0.0004869,0.00011087,1.5787,0.22041,35570.7324013801,0.0003084183
73,10.1016/j.actamat.2015.04.023,4591,3(a),5860,x=0.025,Mg2.975Na0.025Sb2,516,0.000028118,0.0004875,0.00011096,1.5777,0.22091,35564.407141333,0.0003089941
73,10.1016/j.actamat.2015.04.023,4591,3(a),5860,x=0.025,Mg2.975Na0.025Sb2,516.5,0.000028123,0.00048809,0.00011105,1.5767,0.22141,35558.0841304271,0.0003095643
73,10.1016/j.actamat.2015.04.023,4591,3(a),5860,x=0.025,Mg2.975Na0.025Sb2,517,0.000028128,0.00048869,0.00011114,1.5757,0.2219,35551.763367463,0.0003101415
73,10.1016/j.actamat.2015.04.023,4591,3(a),5860,x=0.025,Mg2.975Na0.025Sb2,517.5,0.000028133,0.00048928,0.00011123,1.5748,0.2224,35545.4448512423,0.0003106934
73,10.1016/j.actamat.2015.04.023,4591,3(a),5860,x=0.025,Mg2.975Na0.025Sb2,518,0.000028139,0.00048988,0.00011132,1.5738,0.2229,35537.8655957923,0.0003112721
73,10.1016/j.actamat.2015.04.023,4591,3(a),5860,x=0.025,Mg2.975Na0.025Sb2,518.5,0.000028144,0.00049048,0.00011141,1.5728,0.2234,35531.5520181922,0.0003118515
73,10.1016/j.actamat.2015.04.023,4591,3(a),5860,x=0.025,Mg2.975Na0.025Sb2,519,0.000028149,0.00049107,0.0001115,1.5718,0.22389,35525.2406835056,0.0003124252
73,10.1016/j.actamat.2015.04.023,4591,3(a),5860,x=0.025,Mg2.975Na0.025Sb2,519.5,0.000028154,0.00049167,0.00011159,1.5708,0.22439,35518.9315905378,0.0003130061
73,10.1016/j.actamat.2015.04.023,4591,3(a),5860,x=0.025,Mg2.975Na0.025Sb2,520,0.000028159,0.00049227,0.00011168,1.5698,0.22489,35512.6247380944,0.0003135877
73,10.1016/j.actamat.2015.04.023,4591,3(a),5860,x=0.025,Mg2.975Na0.025Sb2,520.5,0.000028164,0.00049286,0.00011177,1.5689,0.22539,35506.3201249822,0.0003141437
73,10.1016/j.actamat.2015.04.023,4591,3(a),5860,x=0.025,Mg2.975Na0.025Sb2,521,0.000028169,0.00049346,0.00011186,1.5679,0.22588,35500.0177500089,0.0003147267
73,10.1016/j.actamat.2015.04.023,4591,3(a),5860,x=0.025,Mg2.975Na0.025Sb2,521.5,0.000028175,0.00049406,0.00011195,1.5669,0.22638,35492.4578527063,0.0003153105
73,10.1016/j.actamat.2015.04.023,4591,3(a),5860,x=0.025,Mg2.975Na0.025Sb2,522,0.00002818,0.00049465,0.00011204,1.5659,0.22688,35486.160397445,0.0003158886
73,10.1016/j.actamat.2015.04.023,4591,3(a),5860,x=0.025,Mg2.975Na0.025Sb2,522.5,0.000028185,0.00049525,0.00011213,1.5649,0.22738,35479.8651765123,0.0003164739
73,10.1016/j.actamat.2015.04.023,4591,3(a),5860,x=0.025,Mg2.975Na0.025Sb2,523,0.00002819,0.00049585,0.00011221,1.564,0.22787,35473.5721887194,0.0003170396
73,10.1016/j.actamat.2015.04.023,4591,3(a),5860,x=0.025,Mg2.975Na0.025Sb2,523.5,0.000028195,0.00049644,0.0001123,1.563,0.22837,35467.2814328782,0.00031762
73,10.1016/j.actamat.2015.04.023,4591,3(a),5860,x=0.025,Mg2.975Na0.025Sb2,524,0.0000282,0.00049704,0.00011239,1.562,0.22887,35460.9929078014,0.0003182074
73,10.1016/j.actamat.2015.04.023,4591,3(a),5860,x=0.025,Mg2.975Na0.025Sb2,524.5,0.000028205,0.00049764,0.00011248,1.561,0.22937,35454.7066123028,0.0003187956
73,10.1016/j.actamat.2015.04.023,4591,3(a),5860,x=0.025,Mg2.975Na0.025Sb2,525,0.00002821,0.00049823,0.00011257,1.56,0.22986,35448.4225451967,0.0003193782
73,10.1016/j.actamat.2015.04.023,4591,3(a),5860,x=0.025,Mg2.975Na0.025Sb2,525.5,0.000028216,0.00049883,0.00011266,1.5591,0.23036,35440.8846044797,0.0003199474
73,10.1016/j.actamat.2015.04.023,4591,3(a),5860,x=0.025,Mg2.975Na0.025Sb2,526,0.000028221,0.00049943,0.00011275,1.5581,0.23086,35434.6054356685,0.0003205378
73,10.1016/j.actamat.2015.04.023,4591,3(a),5860,x=0.025,Mg2.975Na0.025Sb2,526.5,0.000028226,0.00050002,0.00011284,1.5571,0.23136,35428.3284914618,0.0003211226
73,10.1016/j.actamat.2015.04.023,4591,3(a),5860,x=0.025,Mg2.975Na0.025Sb2,527,0.000028231,0.00050062,0.00011293,1.5561,0.23185,35422.0537706776,0.0003217145
73,10.1016/j.actamat.2015.04.023,4591,3(a),5860,x=0.025,Mg2.975Na0.025Sb2,527.5,0.000028236,0.00050122,0.00011302,1.5551,0.23235,35415.7812721349,0.0003223072
73,10.1016/j.actamat.2015.04.023,4591,3(a),5860,x=0.025,Mg2.975Na0.025Sb2,528,0.000028241,0.00050181,0.00011311,1.5541,0.23285,35409.5109946532,0.0003228943
73,10.1016/j.actamat.2015.04.023,4591,3(a),5860,x=0.025,Mg2.975Na0.025Sb2,528.5,0.000028246,0.00050241,0.0001132,1.5532,0.23335,35403.242937053,0.0003234677
73,10.1016/j.actamat.2015.04.023,4591,3(a),5860,x=0.025,Mg2.975Na0.025Sb2,529,0.000028251,0.00050301,0.00011329,1.5522,0.23384,35396.9770981558,0.0003240626
73,10.1016/j.actamat.2015.04.023,4591,3(a),5860,x=0.025,Mg2.975Na0.025Sb2,529.5,0.000028257,0.0005036,0.00011338,1.5512,0.23434,35389.4610185087,0.0003246519
73,10.1016/j.actamat.2015.04.023,4591,3(a),5860,x=0.025,Mg2.975Na0.025Sb2,530,0.000028262,0.0005042,0.00011347,1.5502,0.23484,35383.2000566131,0.0003252484
73,10.1016/j.actamat.2015.04.023,4591,3(a),5860,x=0.025,Mg2.975Na0.025Sb2,530.5,0.000028267,0.00050479,0.00011356,1.5492,0.23534,35376.9413096544,0.0003258391
73,10.1016/j.actamat.2015.04.023,4591,3(a),5860,x=0.025,Mg2.975Na0.025Sb2,531,0.000028272,0.00050539,0.00011365,1.5483,0.23583,35370.6847764573,0.0003264161
73,10.1016/j.actamat.2015.04.023,4591,3(a),5860,x=0.025,Mg2.975Na0.025Sb2,531.5,0.000028277,0.00050599,0.00011374,1.5473,0.23633,35364.4304558475,0.0003270148
73,10.1016/j.actamat.2015.04.023,4591,3(a),5860,x=0.025,Mg2.975Na0.025Sb2,532,0.000028282,0.00050658,0.00011383,1.5463,0.23683,35358.1783466516,0.0003276078
73,10.1016/j.actamat.2015.04.023,4591,3(a),5860,x=0.025,Mg2.975Na0.025Sb2,532.5,0.000028287,0.00050718,0.00011391,1.5453,0.23733,35351.9284476968,0.0003282081
73,10.1016/j.actamat.2015.04.023,4591,3(a),5860,x=0.025,Mg2.975Na0.025Sb2,533,0.000028292,0.00050778,0.000114,1.5443,0.23782,35345.6807578114,0.0003288092
73,10.1016/j.actamat.2015.04.023,4591,3(a),5860,x=0.025,Mg2.975Na0.025Sb2,533.5,0.000028298,0.00050837,0.00011409,1.5433,0.23832,35338.1864442717,0.0003294045
73,10.1016/j.actamat.2015.04.023,4591,3(a),5860,x=0.025,Mg2.975Na0.025Sb2,534,0.000028303,0.00050897,0.00011418,1.5424,0.23882,35331.943610218,0.0003299857
73,10.1016/j.actamat.2015.04.023,4591,3(a),5860,x=0.025,Mg2.975Na0.025Sb2,534.5,0.000028308,0.00050957,0.00011427,1.5414,0.23931,35325.7029814893,0.0003305891
73,10.1016/j.actamat.2015.04.023,4591,3(a),5860,x=0.025,Mg2.975Na0.025Sb2,535,0.000028313,0.00051016,0.00011436,1.5404,0.23981,35319.4645569173,0.0003311867
73,10.1016/j.actamat.2015.04.023,4591,3(a),5860,x=0.025,Mg2.975Na0.025Sb2,535.5,0.000028318,0.00051076,0.00011445,1.5394,0.24031,35313.2283353344,0.0003317916
73,10.1016/j.actamat.2015.04.023,4591,3(a),5860,x=0.025,Mg2.975Na0.025Sb2,536,0.000028323,0.00051136,0.00011454,1.5384,0.24081,35306.9943155739,0.0003323973
73,10.1016/j.actamat.2015.04.023,4591,3(a),5860,x=0.025,Mg2.975Na0.025Sb2,536.5,0.000028328,0.00051195,0.00011463,1.5375,0.2413,35300.7624964699,0.0003329756
73,10.1016/j.actamat.2015.04.023,4591,3(a),5860,x=0.025,Mg2.975Na0.025Sb2,537,0.000028334,0.00051255,0.00011472,1.5365,0.2418,35293.2872167714,0.0003335828
73,10.1016/j.actamat.2015.04.023,4591,3(a),5860,x=0.025,Mg2.975Na0.025Sb2,537.5,0.000028339,0.00051315,0.00011481,1.5355,0.2423,35287.0602350118,0.0003341908
73,10.1016/j.actamat.2015.04.023,4591,3(a),5860,x=0.025,Mg2.975Na0.025Sb2,538,0.000028344,0.00051374,0.0001149,1.5345,0.2428,35280.8354501835,0.0003347931
73,10.1016/j.actamat.2015.04.023,4591,3(a),5860,x=0.025,Mg2.975Na0.025Sb2,538.5,0.000028349,0.00051434,0.00011499,1.5335,0.24329,35274.6128611239,0.0003354027
73,10.1016/j.actamat.2015.04.023,4591,3(a),5860,x=0.025,Mg2.975Na0.025Sb2,539,0.000028354,0.00051494,0.00011508,1.5325,0.24379,35268.3924666714,0.0003360131
73,10.1016/j.actamat.2015.04.023,4591,3(a),5860,x=0.025,Mg2.975Na0.025Sb2,539.5,0.000028359,0.00051553,0.00011517,1.5316,0.24429,35262.1742656652,0.0003365957
73,10.1016/j.actamat.2015.04.023,4591,3(a),5860,x=0.025,Mg2.975Na0.025Sb2,540,0.000028364,0.00051613,0.00011526,1.5306,0.24479,35255.9582569454,0.0003372076
73,10.1016/j.actamat.2015.04.023,4591,3(a),5860,x=0.025,Mg2.975Na0.025Sb2,540.5,0.000028369,0.00051673,0.00011535,1.5296,0.24528,35249.7444393528,0.0003378203
73,10.1016/j.actamat.2015.04.023,4591,3(a),5860,x=0.025,Mg2.975Na0.025Sb2,541,0.000028375,0.00051732,0.00011544,1.5286,0.24578,35242.2907488987,0.0003384273
73,10.1016/j.actamat.2015.04.023,4591,3(a),5860,x=0.025,Mg2.975Na0.025Sb2,541.5,0.00002838,0.00051792,0.00011552,1.5276,0.24628,35236.0817477097,0.0003390416
73,10.1016/j.actamat.2015.04.023,4591,3(a),5860,x=0.025,Mg2.975Na0.025Sb2,542,0.000028385,0.00051852,0.00011561,1.5267,0.24678,35229.874933944,0.0003396345
73,10.1016/j.actamat.2015.04.023,4591,3(a),5860,x=0.025,Mg2.975Na0.025Sb2,542.5,0.00002839,0.00051911,0.0001157,1.5257,0.24727,35223.6703064459,0.0003402438
73,10.1016/j.actamat.2015.04.023,4591,3(a),5860,x=0.025,Mg2.975Na0.025Sb2,543,0.000028395,0.00051971,0.00011579,1.5247,0.24777,35217.4678640606,0.0003408605
73,10.1016/j.actamat.2015.04.023,4591,3(a),5860,x=0.025,Mg2.975Na0.025Sb2,543.5,0.0000284,0.0005203,0.00011588,1.5237,0.24827,35211.2676056338,0.0003414714
73,10.1016/j.actamat.2015.04.023,4591,3(a),5860,x=0.025,Mg2.975Na0.025Sb2,544,0.000028405,0.0005209,0.00011597,1.5227,0.24877,35205.0695300123,0.0003420897
73,10.1016/j.actamat.2015.04.023,4591,3(a),5860,x=0.025,Mg2.975Na0.025Sb2,544.5,0.00002841,0.0005215,0.00011606,1.5218,0.24926,35198.8736360436,0.0003426863
73,10.1016/j.actamat.2015.04.023,4591,3(a),5860,x=0.025,Mg2.975Na0.025Sb2,545,0.000028416,0.00052209,0.00011615,1.5208,0.24976,35191.4414414414,0.0003432996