sid,DOI,figureid,fignum,sampleid,samplename,composition,Temperature,Electrical resistivity,Power factor,Seebeck coefficient,Thermal conductivity,ZT,Electrical conductivity,Figure of merit Z
73,10.1016/j.actamat.2015.04.023,4591,3(a),5858,x=0.006,Mg2.994Na0.006Sb2,448.5,0.000075946,0.00035482,0.00015218,1.2632,0.18055,13167.2504147684,0.0002808898
73,10.1016/j.actamat.2015.04.023,4591,3(a),5858,x=0.006,Mg2.994Na0.006Sb2,449,0.00007596,0.00035523,0.0001523,1.2624,0.18109,13164.8235913639,0.0002813926
73,10.1016/j.actamat.2015.04.023,4591,3(a),5858,x=0.006,Mg2.994Na0.006Sb2,449.5,0.000075974,0.00035564,0.00015242,1.2615,0.18163,13162.3976623582,0.0002819184
73,10.1016/j.actamat.2015.04.023,4591,3(a),5858,x=0.006,Mg2.994Na0.006Sb2,450,0.000075989,0.00035605,0.00015254,1.2607,0.18216,13159.7994446565,0.0002824225
73,10.1016/j.actamat.2015.04.023,4591,3(a),5858,x=0.006,Mg2.994Na0.006Sb2,450.5,0.000076003,0.00035646,0.00015266,1.2598,0.1827,13157.3753667618,0.0002829497
73,10.1016/j.actamat.2015.04.023,4591,3(a),5858,x=0.006,Mg2.994Na0.006Sb2,451,0.000076017,0.00035687,0.00015278,1.259,0.18324,13154.9521817488,0.0002834551
73,10.1016/j.actamat.2015.04.023,4591,3(a),5858,x=0.006,Mg2.994Na0.006Sb2,451.5,0.000076032,0.00035728,0.0001529,1.2581,0.18377,13152.3569023569,0.0002839838
73,10.1016/j.actamat.2015.04.023,4591,3(a),5858,x=0.006,Mg2.994Na0.006Sb2,452,0.000076046,0.0003577,0.00015302,1.2573,0.18431,13149.9355653157,0.0002844985
73,10.1016/j.actamat.2015.04.023,4591,3(a),5858,x=0.006,Mg2.994Na0.006Sb2,452.5,0.00007606,0.00035811,0.00015314,1.2564,0.18485,13147.5151196424,0.0002850287
73,10.1016/j.actamat.2015.04.023,4591,3(a),5858,x=0.006,Mg2.994Na0.006Sb2,453,0.000076074,0.00035852,0.00015327,1.2556,0.18538,13145.0955648448,0.0002855368
73,10.1016/j.actamat.2015.04.023,4591,3(a),5858,x=0.006,Mg2.994Na0.006Sb2,453.5,0.000076089,0.00035893,0.00015339,1.2547,0.18592,13142.5041727451,0.0002860684
73,10.1016/j.actamat.2015.04.023,4591,3(a),5858,x=0.006,Mg2.994Na0.006Sb2,454,0.000076103,0.00035934,0.00015351,1.2539,0.18646,13140.0864617689,0.0002865779
73,10.1016/j.actamat.2015.04.023,4591,3(a),5858,x=0.006,Mg2.994Na0.006Sb2,454.5,0.000076117,0.00035975,0.00015363,1.2531,0.18699,13137.6696401592,0.000287088
73,10.1016/j.actamat.2015.04.023,4591,3(a),5858,x=0.006,Mg2.994Na0.006Sb2,455,0.000076132,0.00036016,0.00015375,1.2522,0.18753,13135.0811748017,0.0002876218
73,10.1016/j.actamat.2015.04.023,4591,3(a),5858,x=0.006,Mg2.994Na0.006Sb2,455.5,0.000076146,0.00036057,0.00015387,1.2514,0.18807,13132.6661938907,0.0002881333
73,10.1016/j.actamat.2015.04.023,4591,3(a),5858,x=0.006,Mg2.994Na0.006Sb2,456,0.00007616,0.00036098,0.00015399,1.2505,0.1886,13130.2521008403,0.0002886685
73,10.1016/j.actamat.2015.04.023,4591,3(a),5858,x=0.006,Mg2.994Na0.006Sb2,456.5,0.000076175,0.00036139,0.00015411,1.2497,0.18914,13127.6665572694,0.0002891814
73,10.1016/j.actamat.2015.04.023,4591,3(a),5858,x=0.006,Mg2.994Na0.006Sb2,457,0.000076189,0.0003618,0.00015423,1.2488,0.18968,13125.2543018021,0.0002897181
73,10.1016/j.actamat.2015.04.023,4591,3(a),5858,x=0.006,Mg2.994Na0.006Sb2,457.5,0.000076203,0.00036221,0.00015435,1.248,0.19021,13122.8429326929,0.0002902324
73,10.1016/j.actamat.2015.04.023,4591,3(a),5858,x=0.006,Mg2.994Na0.006Sb2,458,0.000076218,0.00036262,0.00015447,1.2471,0.19075,13120.2603059645,0.0002907706
73,10.1016/j.actamat.2015.04.023,4591,3(a),5858,x=0.006,Mg2.994Na0.006Sb2,458.5,0.000076232,0.00036304,0.0001546,1.2463,0.19128,13117.8507713296,0.0002912942
73,10.1016/j.actamat.2015.04.023,4591,3(a),5858,x=0.006,Mg2.994Na0.006Sb2,459,0.000076246,0.00036345,0.00015472,1.2454,0.19182,13115.4421215539,0.0002918339
73,10.1016/j.actamat.2015.04.023,4591,3(a),5858,x=0.006,Mg2.994Na0.006Sb2,459.5,0.00007626,0.00036386,0.00015484,1.2446,0.19236,13113.03435615,0.000292351
73,10.1016/j.actamat.2015.04.023,4591,3(a),5858,x=0.006,Mg2.994Na0.006Sb2,460,0.000076275,0.00036427,0.00015496,1.2437,0.19289,13110.4555883317,0.0002928922
73,10.1016/j.actamat.2015.04.023,4591,3(a),5858,x=0.006,Mg2.994Na0.006Sb2,460.5,0.000076289,0.00036468,0.00015508,1.2429,0.19343,13108.0496532921,0.0002934106
73,10.1016/j.actamat.2015.04.023,4591,3(a),5858,x=0.006,Mg2.994Na0.006Sb2,461,0.000076303,0.00036509,0.0001552,1.242,0.19397,13105.6446011297,0.0002939533
73,10.1016/j.actamat.2015.04.023,4591,3(a),5858,x=0.006,Mg2.994Na0.006Sb2,461.5,0.000076318,0.0003655,0.00015532,1.2412,0.1945,13103.0687386986,0.0002944731
73,10.1016/j.actamat.2015.04.023,4591,3(a),5858,x=0.006,Mg2.994Na0.006Sb2,462,0.000076332,0.00036591,0.00015544,1.2404,0.19504,13100.6655138081,0.0002949936
73,10.1016/j.actamat.2015.04.023,4591,3(a),5858,x=0.006,Mg2.994Na0.006Sb2,462.5,0.000076346,0.00036632,0.00015556,1.2395,0.19558,13098.2631703036,0.0002955385
73,10.1016/j.actamat.2015.04.023,4591,3(a),5858,x=0.006,Mg2.994Na0.006Sb2,463,0.000076361,0.00036673,0.00015568,1.2387,0.19611,13095.6902083524,0.0002960604
73,10.1016/j.actamat.2015.04.023,4591,3(a),5858,x=0.006,Mg2.994Na0.006Sb2,463.5,0.000076375,0.00036714,0.00015581,1.2378,0.19665,13093.2896890344,0.0002966069
73,10.1016/j.actamat.2015.04.023,4591,3(a),5858,x=0.006,Mg2.994Na0.006Sb2,464,0.000076389,0.00036755,0.00015593,1.237,0.19719,13090.8900496145,0.0002971302
73,10.1016/j.actamat.2015.04.023,4591,3(a),5858,x=0.006,Mg2.994Na0.006Sb2,464.5,0.000076404,0.00036796,0.00015605,1.2361,0.19772,13088.319983247,0.0002976782
73,10.1016/j.actamat.2015.04.023,4591,3(a),5858,x=0.006,Mg2.994Na0.006Sb2,465,0.000076418,0.00036838,0.00015617,1.2353,0.19826,13085.922164935,0.000298211
73,10.1016/j.actamat.2015.04.023,4591,3(a),5858,x=0.006,Mg2.994Na0.006Sb2,465.5,0.000076432,0.00036879,0.00015629,1.2344,0.1988,13083.5252250366,0.0002987605
73,10.1016/j.actamat.2015.04.023,4591,3(a),5858,x=0.006,Mg2.994Na0.006Sb2,466,0.000076446,0.0003692,0.00015641,1.2336,0.19933,13081.1291630694,0.0002992866
73,10.1016/j.actamat.2015.04.023,4591,3(a),5858,x=0.006,Mg2.994Na0.006Sb2,466.5,0.000076461,0.00036961,0.00015653,1.2327,0.19987,13078.5629275055,0.0002998378
73,10.1016/j.actamat.2015.04.023,4591,3(a),5858,x=0.006,Mg2.994Na0.006Sb2,467,0.000076475,0.00037002,0.00015665,1.2319,0.20041,13076.168682576,0.0003003653
73,10.1016/j.actamat.2015.04.023,4591,3(a),5858,x=0.006,Mg2.994Na0.006Sb2,467.5,0.000076489,0.00037043,0.00015677,1.231,0.20094,13073.7753140975,0.000300918
73,10.1016/j.actamat.2015.04.023,4591,3(a),5858,x=0.006,Mg2.994Na0.006Sb2,468,0.000076504,0.00037084,0.00015689,1.2302,0.20148,13071.2119627732,0.0003014469
73,10.1016/j.actamat.2015.04.023,4591,3(a),5858,x=0.006,Mg2.994Na0.006Sb2,468.5,0.000076518,0.00037125,0.00015701,1.2294,0.20202,13068.8204082699,0.0003019766
73,10.1016/j.actamat.2015.04.023,4591,3(a),5858,x=0.006,Mg2.994Na0.006Sb2,469,0.000076532,0.00037166,0.00015714,1.2285,0.20255,13066.4297287409,0.0003025315
73,10.1016/j.actamat.2015.04.023,4591,3(a),5858,x=0.006,Mg2.994Na0.006Sb2,469.5,0.000076547,0.00037207,0.00015726,1.2277,0.20309,13063.8692567965,0.0003030626
73,10.1016/j.actamat.2015.04.023,4591,3(a),5858,x=0.006,Mg2.994Na0.006Sb2,470,0.000076561,0.00037248,0.00015738,1.2268,0.20363,13061.4803881872,0.0003036192
73,10.1016/j.actamat.2015.04.023,4591,3(a),5858,x=0.006,Mg2.994Na0.006Sb2,470.5,0.000076575,0.00037289,0.0001575,1.226,0.20416,13059.0923930787,0.0003041517
73,10.1016/j.actamat.2015.04.023,4591,3(a),5858,x=0.006,Mg2.994Na0.006Sb2,471,0.000076589,0.0003733,0.00015762,1.2251,0.2047,13056.7052709919,0.0003047098
73,10.1016/j.actamat.2015.04.023,4591,3(a),5858,x=0.006,Mg2.994Na0.006Sb2,471.5,0.000076604,0.00037372,0.00015774,1.2243,0.20524,13054.1486084278,0.000305252
73,10.1016/j.actamat.2015.04.023,4591,3(a),5858,x=0.006,Mg2.994Na0.006Sb2,472,0.000076618,0.00037413,0.00015786,1.2234,0.20577,13051.7632932209,0.0003058117
73,10.1016/j.actamat.2015.04.023,4591,3(a),5858,x=0.006,Mg2.994Na0.006Sb2,472.5,0.000076632,0.00037454,0.00015798,1.2226,0.20631,13049.3788495668,0.0003063471
73,10.1016/j.actamat.2015.04.023,4591,3(a),5858,x=0.006,Mg2.994Na0.006Sb2,473,0.000076647,0.00037495,0.0001581,1.2217,0.20684,13046.8250551228,0.0003069084
73,10.1016/j.actamat.2015.04.023,4591,3(a),5858,x=0.006,Mg2.994Na0.006Sb2,473.5,0.000076661,0.00037536,0.00015822,1.2209,0.20738,13044.442415309,0.0003074453
73,10.1016/j.actamat.2015.04.023,4591,3(a),5858,x=0.006,Mg2.994Na0.006Sb2,474,0.000076675,0.00037577,0.00015834,1.22,0.20792,13042.060645582,0.0003080082
73,10.1016/j.actamat.2015.04.023,4591,3(a),5858,x=0.006,Mg2.994Na0.006Sb2,474.5,0.00007669,0.00037618,0.00015847,1.2192,0.20845,13039.5097144347,0.0003085466
73,10.1016/j.actamat.2015.04.023,4591,3(a),5858,x=0.006,Mg2.994Na0.006Sb2,475,0.000076704,0.00037659,0.00015859,1.2183,0.20899,13037.1297455152,0.0003091111
73,10.1016/j.actamat.2015.04.023,4591,3(a),5858,x=0.006,Mg2.994Na0.006Sb2,475.5,0.000076718,0.000377,0.00015871,1.2175,0.20953,13034.7506452202,0.0003096509
73,10.1016/j.actamat.2015.04.023,4591,3(a),5858,x=0.006,Mg2.994Na0.006Sb2,476,0.000076733,0.00037741,0.00015883,1.2167,0.21006,13032.2025725568,0.0003101915
73,10.1016/j.actamat.2015.04.023,4591,3(a),5858,x=0.006,Mg2.994Na0.006Sb2,476.5,0.000076747,0.00037782,0.00015895,1.2158,0.2106,13029.8252700431,0.0003107583
73,10.1016/j.actamat.2015.04.023,4591,3(a),5858,x=0.006,Mg2.994Na0.006Sb2,477,0.000076761,0.00037823,0.00015907,1.215,0.21114,13027.4488346947,0.0003113004
73,10.1016/j.actamat.2015.04.023,4591,3(a),5858,x=0.006,Mg2.994Na0.006Sb2,477.5,0.000076775,0.00037864,0.00015919,1.2141,0.21167,13025.0732660371,0.0003118689
73,10.1016/j.actamat.2015.04.023,4591,3(a),5858,x=0.006,Mg2.994Na0.006Sb2,478,0.00007679,0.00037905,0.00015931,1.2133,0.21221,13022.528975127,0.0003124124
73,10.1016/j.actamat.2015.04.023,4591,3(a),5858,x=0.006,Mg2.994Na0.006Sb2,478.5,0.000076804,0.00037947,0.00015943,1.2124,0.21275,13020.15520025,0.0003129908
73,10.1016/j.actamat.2015.04.023,4591,3(a),5858,x=0.006,Mg2.994Na0.006Sb2,479,0.000076818,0.00037988,0.00015955,1.2116,0.21328,13017.782290609,0.0003135358
73,10.1016/j.actamat.2015.04.023,4591,3(a),5858,x=0.006,Mg2.994Na0.006Sb2,479.5,0.000076833,0.00038029,0.00015968,1.2107,0.21382,13015.2408470319,0.0003141075
73,10.1016/j.actamat.2015.04.023,4591,3(a),5858,x=0.006,Mg2.994Na0.006Sb2,480,0.000076847,0.0003807,0.0001598,1.2099,0.21436,13012.8697281612,0.0003146541
73,10.1016/j.actamat.2015.04.023,4591,3(a),5858,x=0.006,Mg2.994Na0.006Sb2,480.5,0.000076861,0.00038111,0.00015992,1.209,0.21489,13010.4994730748,0.0003152275
73,10.1016/j.actamat.2015.04.023,4591,3(a),5858,x=0.006,Mg2.994Na0.006Sb2,481,0.000076876,0.00038152,0.00016004,1.2082,0.21543,13007.9608720537,0.0003157755
73,10.1016/j.actamat.2015.04.023,4591,3(a),5858,x=0.006,Mg2.994Na0.006Sb2,481.5,0.00007689,0.00038193,0.00016016,1.2073,0.21597,13005.592404734,0.0003163505
73,10.1016/j.actamat.2015.04.023,4591,3(a),5858,x=0.006,Mg2.994Na0.006Sb2,482,0.000076904,0.00038234,0.00016028,1.2065,0.2165,13003.2247997503,0.0003169001
73,10.1016/j.actamat.2015.04.023,4591,3(a),5858,x=0.006,Mg2.994Na0.006Sb2,482.5,0.000076918,0.00038275,0.0001604,1.2056,0.21704,13000.8580566317,0.0003174768
73,10.1016/j.actamat.2015.04.023,4591,3(a),5858,x=0.006,Mg2.994Na0.006Sb2,483,0.000076933,0.00038316,0.00016052,1.2048,0.21758,12998.3232163051,0.0003180279
73,10.1016/j.actamat.2015.04.023,4591,3(a),5858,x=0.006,Mg2.994Na0.006Sb2,483.5,0.000076947,0.00038357,0.00016064,1.204,0.21811,12995.9582569821,0.0003185797
73,10.1016/j.actamat.2015.04.023,4591,3(a),5858,x=0.006,Mg2.994Na0.006Sb2,484,0.000076961,0.00038398,0.00016076,1.2031,0.21865,12993.5941580801,0.0003191588
73,10.1016/j.actamat.2015.04.023,4591,3(a),5858,x=0.006,Mg2.994Na0.006Sb2,484.5,0.000076976,0.00038439,0.00016088,1.2023,0.21919,12991.0621492413,0.0003197122
73,10.1016/j.actamat.2015.04.023,4591,3(a),5858,x=0.006,Mg2.994Na0.006Sb2,485,0.00007699,0.00038481,0.00016101,1.2014,0.21972,12988.6998311469,0.0003203013
73,10.1016/j.actamat.2015.04.023,4591,3(a),5858,x=0.006,Mg2.994Na0.006Sb2,485.5,0.000077004,0.00038522,0.00016113,1.2006,0.22026,12986.3383720326,0.0003208562
73,10.1016/j.actamat.2015.04.023,4591,3(a),5858,x=0.006,Mg2.994Na0.006Sb2,486,0.000077019,0.00038563,0.00016125,1.1997,0.22079,12983.8091899401,0.0003214387
73,10.1016/j.actamat.2015.04.023,4591,3(a),5858,x=0.006,Mg2.994Na0.006Sb2,486.5,0.000077033,0.00038604,0.00016137,1.1989,0.22133,12981.4495086521,0.0003219952
73,10.1016/j.actamat.2015.04.023,4591,3(a),5858,x=0.006,Mg2.994Na0.006Sb2,487,0.000077047,0.00038645,0.00016149,1.198,0.22187,12979.0906849066,0.0003225793
73,10.1016/j.actamat.2015.04.023,4591,3(a),5858,x=0.006,Mg2.994Na0.006Sb2,487.5,0.000077062,0.00038686,0.00016161,1.1972,0.2224,12976.5643248294,0.0003231373
73,10.1016/j.actamat.2015.04.023,4591,3(a),5858,x=0.006,Mg2.994Na0.006Sb2,488,0.000077076,0.00038727,0.00016173,1.1963,0.22294,12974.2072759354,0.0003237231
73,10.1016/j.actamat.2015.04.023,4591,3(a),5858,x=0.006,Mg2.994Na0.006Sb2,488.5,0.00007709,0.00038768,0.00016185,1.1955,0.22348,12971.8510831496,0.0003242827
73,10.1016/j.actamat.2015.04.023,4591,3(a),5858,x=0.006,Mg2.994Na0.006Sb2,489,0.000077104,0.00038809,0.00016197,1.1946,0.22401,12969.4957460054,0.0003248702
73,10.1016/j.actamat.2015.04.023,4591,3(a),5858,x=0.006,Mg2.994Na0.006Sb2,489.5,0.000077119,0.0003885,0.00016209,1.1938,0.22455,12966.9731194647,0.0003254314
73,10.1016/j.actamat.2015.04.023,4591,3(a),5858,x=0.006,Mg2.994Na0.006Sb2,490,0.000077133,0.00038891,0.00016221,1.193,0.22509,12964.6195532392,0.0003259933
73,10.1016/j.actamat.2015.04.023,4591,3(a),5858,x=0.006,Mg2.994Na0.006Sb2,490.5,0.000077147,0.00038932,0.00016234,1.1921,0.22562,12962.2668412252,0.0003265833
73,10.1016/j.actamat.2015.04.023,4591,3(a),5858,x=0.006,Mg2.994Na0.006Sb2,491,0.000077162,0.00038973,0.00016246,1.1913,0.22616,12959.7470257381,0.0003271468
73,10.1016/j.actamat.2015.04.023,4591,3(a),5858,x=0.006,Mg2.994Na0.006Sb2,491.5,0.000077176,0.00039015,0.00016258,1.1904,0.2267,12957.3960816834,0.000327747
73,10.1016/j.actamat.2015.04.023,4591,3(a),5858,x=0.006,Mg2.994Na0.006Sb2,492,0.00007719,0.00039056,0.0001627,1.1896,0.22723,12955.0459904133,0.000328312
73,10.1016/j.actamat.2015.04.023,4591,3(a),5858,x=0.006,Mg2.994Na0.006Sb2,492.5,0.000077205,0.00039097,0.00016282,1.1887,0.22777,12952.5289812836,0.0003289055
73,10.1016/j.actamat.2015.04.023,4591,3(a),5858,x=0.006,Mg2.994Na0.006Sb2,493,0.000077219,0.00039138,0.00016294,1.1879,0.22831,12950.1806550201,0.0003294722
73,10.1016/j.actamat.2015.04.023,4591,3(a),5858,x=0.006,Mg2.994Na0.006Sb2,493.5,0.000077233,0.00039179,0.00016306,1.187,0.22884,12947.8331801173,0.0003300674
73,10.1016/j.actamat.2015.04.023,4591,3(a),5858,x=0.006,Mg2.994Na0.006Sb2,494,0.000077247,0.0003922,0.00016318,1.1862,0.22938,12945.4865561122,0.0003306356
73,10.1016/j.actamat.2015.04.023,4591,3(a),5858,x=0.006,Mg2.994Na0.006Sb2,494.5,0.000077262,0.00039261,0.0001633,1.1853,0.22992,12942.9732598172,0.0003312326
73,10.1016/j.actamat.2015.04.023,4591,3(a),5858,x=0.006,Mg2.994Na0.006Sb2,495,0.000077276,0.00039302,0.00016342,1.1845,0.23045,12940.628396915,0.0003318024
73,10.1016/j.actamat.2015.04.023,4591,3(a),5858,x=0.006,Mg2.994Na0.006Sb2,495.5,0.00007729,0.00039343,0.00016355,1.1836,0.23099,12938.2843834907,0.0003324011
73,10.1016/j.actamat.2015.04.023,4591,3(a),5858,x=0.006,Mg2.994Na0.006Sb2,496,0.000077305,0.00039384,0.00016367,1.1828,0.23153,12935.7738826725,0.0003329726
73,10.1016/j.actamat.2015.04.023,4591,3(a),5858,x=0.006,Mg2.994Na0.006Sb2,496.5,0.000077319,0.00039425,0.00016379,1.1819,0.23206,12933.4316274137,0.0003335731
73,10.1016/j.actamat.2015.04.023,4591,3(a),5858,x=0.006,Mg2.994Na0.006Sb2,497,0.000077333,0.00039466,0.00016391,1.1811,0.2326,12931.0902202165,0.0003341461
73,10.1016/j.actamat.2015.04.023,4591,3(a),5858,x=0.006,Mg2.994Na0.006Sb2,497.5,0.000077348,0.00039507,0.00016403,1.1803,0.23314,12928.5825102136,0.00033472
73,10.1016/j.actamat.2015.04.023,4591,3(a),5858,x=0.006,Mg2.994Na0.006Sb2,498,0.000077362,0.00039548,0.00016415,1.1794,0.23367,12926.2428582508,0.000335323
73,10.1016/j.actamat.2015.04.023,4591,3(a),5858,x=0.006,Mg2.994Na0.006Sb2,498.5,0.000077376,0.0003959,0.00016427,1.1786,0.23421,12923.9040529363,0.000335907
73,10.1016/j.actamat.2015.04.023,4591,3(a),5858,x=0.006,Mg2.994Na0.006Sb2,499,0.000077391,0.00039631,0.00016439,1.1777,0.23474,12921.3991290977,0.0003365118
73,10.1016/j.actamat.2015.04.023,4591,3(a),5858,x=0.006,Mg2.994Na0.006Sb2,499.5,0.000077405,0.00039672,0.00016451,1.1769,0.23528,12919.0620760933,0.000337089
73,10.1016/j.actamat.2015.04.023,4591,3(a),5858,x=0.006,Mg2.994Na0.006Sb2,500,0.000077419,0.00039713,0.00016463,1.176,0.23582,12916.7258683269,0.0003376956
73,10.1016/j.actamat.2015.04.023,4591,3(a),5858,x=0.006,Mg2.994Na0.006Sb2,500.5,0.000077433,0.00039754,0.00016475,1.1752,0.23635,12914.3905053401,0.0003382743
73,10.1016/j.actamat.2015.04.023,4591,3(a),5858,x=0.006,Mg2.994Na0.006Sb2,501,0.000077448,0.00039795,0.00016488,1.1743,0.23689,12911.8892676376,0.0003388827
73,10.1016/j.actamat.2015.04.023,4591,3(a),5858,x=0.006,Mg2.994Na0.006Sb2,501.5,0.000077462,0.00039836,0.000165,1.1735,0.23743,12909.5556530944,0.0003394631
73,10.1016/j.actamat.2015.04.023,4591,3(a),5858,x=0.006,Mg2.994Na0.006Sb2,502,0.000077476,0.00039877,0.00016512,1.1726,0.23796,12907.2228819247,0.0003400733
73,10.1016/j.actamat.2015.04.023,4591,3(a),5858,x=0.006,Mg2.994Na0.006Sb2,502.5,0.000077491,0.00039918,0.00016524,1.1718,0.2385,12904.72441961,0.0003406554
73,10.1016/j.actamat.2015.04.023,4591,3(a),5858,x=0.006,Mg2.994Na0.006Sb2,503,0.000077505,0.00039959,0.00016536,1.1709,0.23904,12902.3933939746,0.0003412674
73,10.1016/j.actamat.2015.04.023,4591,3(a),5858,x=0.006,Mg2.994Na0.006Sb2,503.5,0.000077519,0.0004,0.00016548,1.1701,0.23957,12900.0632103097,0.0003418511
73,10.1016/j.actamat.2015.04.023,4591,3(a),5858,x=0.006,Mg2.994Na0.006Sb2,504,0.000077534,0.00040041,0.0001656,1.1692,0.24011,12897.567518766,0.0003424649
73,10.1016/j.actamat.2015.04.023,4591,3(a),5858,x=0.006,Mg2.994Na0.006Sb2,504.5,0.000077548,0.00040082,0.00016572,1.1684,0.24065,12895.2390777325,0.0003430503
73,10.1016/j.actamat.2015.04.023,4591,3(a),5858,x=0.006,Mg2.994Na0.006Sb2,505,0.000077562,0.00040124,0.00016584,1.1676,0.24118,12892.9114772698,0.0003436451
73,10.1016/j.actamat.2015.04.023,4591,3(a),5858,x=0.006,Mg2.994Na0.006Sb2,505.5,0.000077577,0.00040165,0.00016596,1.1667,0.24172,12890.4185518904,0.0003442616
73,10.1016/j.actamat.2015.04.023,4591,3(a),5858,x=0.006,Mg2.994Na0.006Sb2,506,0.000077591,0.00040206,0.00016609,1.1659,0.24226,12888.0926911626,0.0003448495
73,10.1016/j.actamat.2015.04.023,4591,3(a),5858,x=0.006,Mg2.994Na0.006Sb2,506.5,0.000077605,0.00040247,0.00016621,1.165,0.24279,12885.7676696089,0.0003454678
73,10.1016/j.actamat.2015.04.023,4591,3(a),5858,x=0.006,Mg2.994Na0.006Sb2,507,0.000077619,0.00040288,0.00016633,1.1642,0.24333,12883.4434867751,0.0003460574
73,10.1016/j.actamat.2015.04.023,4591,3(a),5858,x=0.006,Mg2.994Na0.006Sb2,507.5,0.000077634,0.00040329,0.00016645,1.1633,0.24387,12880.9542210887,0.0003466776
73,10.1016/j.actamat.2015.04.023,4591,3(a),5858,x=0.006,Mg2.994Na0.006Sb2,508,0.000077648,0.0004037,0.00016657,1.1625,0.2444,12878.6317741603,0.0003472688
73,10.1016/j.actamat.2015.04.023,4591,3(a),5858,x=0.006,Mg2.994Na0.006Sb2,508.5,0.000077662,0.00040411,0.00016669,1.1616,0.24494,12876.3101645592,0.0003478908
73,10.1016/j.actamat.2015.04.023,4591,3(a),5858,x=0.006,Mg2.994Na0.006Sb2,509,0.000077677,0.00040452,0.00016681,1.1608,0.24548,12873.8236543636,0.0003484838
73,10.1016/j.actamat.2015.04.023,4591,3(a),5858,x=0.006,Mg2.994Na0.006Sb2,509.5,0.000077691,0.00040493,0.00016693,1.1599,0.24601,12871.5037777864,0.0003491077
73,10.1016/j.actamat.2015.04.023,4591,3(a),5858,x=0.006,Mg2.994Na0.006Sb2,510,0.000077705,0.00040534,0.00016705,1.1591,0.24655,12869.1847371469,0.0003497024
73,10.1016/j.actamat.2015.04.023,4591,3(a),5858,x=0.006,Mg2.994Na0.006Sb2,510.5,0.00007772,0.00040575,0.00016717,1.1582,0.24709,12866.7009778693,0.0003503281
73,10.1016/j.actamat.2015.04.023,4591,3(a),5858,x=0.006,Mg2.994Na0.006Sb2,511,0.000077734,0.00040616,0.00016729,1.1574,0.24762,12864.3836673785,0.0003509245