sid,DOI,figureid,fignum,sampleid,samplename,composition,Temperature,Electrical resistivity,Power factor,Seebeck coefficient,Thermal conductivity,ZT,Electrical conductivity,Figure of merit Z
73,10.1016/j.actamat.2015.04.023,4591,3(a),5859,x=0.0125,Mg2.9875Na0.0125Sb2,657,0.00004399,0.00065957,0.00016689,1.0679,0.44533,22732.4391907252,0.0006176327
73,10.1016/j.actamat.2015.04.023,4591,3(a),5859,x=0.0125,Mg2.9875Na0.0125Sb2,657.5,0.000043997,0.00066018,0.000167,1.067,0.44595,22728.8224197104,0.0006187254
73,10.1016/j.actamat.2015.04.023,4591,3(a),5859,x=0.0125,Mg2.9875Na0.0125Sb2,658,0.000044004,0.00066078,0.00016711,1.0661,0.44657,22725.2067993819,0.0006198105
73,10.1016/j.actamat.2015.04.023,4591,3(a),5859,x=0.0125,Mg2.9875Na0.0125Sb2,658.5,0.00004401,0.00066139,0.00016722,1.0652,0.4472,22722.1086116792,0.0006209069
73,10.1016/j.actamat.2015.04.023,4591,3(a),5859,x=0.0125,Mg2.9875Na0.0125Sb2,659,0.000044017,0.000662,0.00016733,1.0643,0.44782,22718.4951268828,0.0006220051
73,10.1016/j.actamat.2015.04.023,4591,3(a),5859,x=0.0125,Mg2.9875Na0.0125Sb2,659.5,0.000044023,0.00066261,0.00016745,1.0634,0.44844,22715.3987688254,0.0006231051
73,10.1016/j.actamat.2015.04.023,4591,3(a),5859,x=0.0125,Mg2.9875Na0.0125Sb2,660,0.00004403,0.00066321,0.00016756,1.0624,0.44906,22711.7874176698,0.0006242564
73,10.1016/j.actamat.2015.04.023,4591,3(a),5859,x=0.0125,Mg2.9875Na0.0125Sb2,660.5,0.000044037,0.00066382,0.00016767,1.0615,0.44969,22708.177214615,0.0006253603
73,10.1016/j.actamat.2015.04.023,4591,3(a),5859,x=0.0125,Mg2.9875Na0.0125Sb2,661,0.000044043,0.00066443,0.00016778,1.0606,0.45031,22705.0836682333,0.0006264662
73,10.1016/j.actamat.2015.04.023,4591,3(a),5859,x=0.0125,Mg2.9875Na0.0125Sb2,661.5,0.00004405,0.00066504,0.00016789,1.0597,0.45093,22701.4755959137,0.0006275738
73,10.1016/j.actamat.2015.04.023,4591,3(a),5859,x=0.0125,Mg2.9875Na0.0125Sb2,662,0.000044056,0.00066564,0.000168,1.0588,0.45155,22698.3838750681,0.000628674
73,10.1016/j.actamat.2015.04.023,4591,3(a),5859,x=0.0125,Mg2.9875Na0.0125Sb2,662.5,0.000044063,0.00066625,0.00016811,1.0579,0.45218,22694.7779315979,0.0006297854
73,10.1016/j.actamat.2015.04.023,4591,3(a),5859,x=0.0125,Mg2.9875Na0.0125Sb2,663,0.00004407,0.00066686,0.00016822,1.057,0.4528,22691.173133651,0.0006308988
73,10.1016/j.actamat.2015.04.023,4591,3(a),5859,x=0.0125,Mg2.9875Na0.0125Sb2,663.5,0.000044076,0.00066747,0.00016834,1.0561,0.45342,22688.0842181686,0.000632014
73,10.1016/j.actamat.2015.04.023,4591,3(a),5859,x=0.0125,Mg2.9875Na0.0125Sb2,664,0.000044083,0.00066808,0.00016845,1.0552,0.45404,22684.4815461743,0.0006331312
73,10.1016/j.actamat.2015.04.023,4591,3(a),5859,x=0.0125,Mg2.9875Na0.0125Sb2,664.5,0.000044089,0.00066868,0.00016856,1.0543,0.45466,22681.3944521309,0.0006342407
73,10.1016/j.actamat.2015.04.023,4591,3(a),5859,x=0.0125,Mg2.9875Na0.0125Sb2,665,0.000044096,0.00066929,0.00016867,1.0534,0.45529,22677.793904209,0.0006353617
73,10.1016/j.actamat.2015.04.023,4591,3(a),5859,x=0.0125,Mg2.9875Na0.0125Sb2,665.5,0.000044103,0.0006699,0.00016878,1.0525,0.45591,22674.1944992404,0.0006364846
73,10.1016/j.actamat.2015.04.023,4591,3(a),5859,x=0.0125,Mg2.9875Na0.0125Sb2,666,0.000044109,0.00067051,0.00016889,1.0516,0.45653,22671.1102042667,0.0006376094
73,10.1016/j.actamat.2015.04.023,4591,3(a),5859,x=0.0125,Mg2.9875Na0.0125Sb2,666.5,0.000044116,0.00067111,0.000169,1.0506,0.45715,22667.5129204824,0.0006387874
73,10.1016/j.actamat.2015.04.023,4591,3(a),5859,x=0.0125,Mg2.9875Na0.0125Sb2,667,0.000044123,0.00067172,0.00016911,1.0497,0.45778,22663.9167780976,0.0006399162
73,10.1016/j.actamat.2015.04.023,4591,3(a),5859,x=0.0125,Mg2.9875Na0.0125Sb2,667.5,0.000044129,0.00067233,0.00016923,1.0488,0.4584,22660.8352783884,0.0006410469
73,10.1016/j.actamat.2015.04.023,4591,3(a),5859,x=0.0125,Mg2.9875Na0.0125Sb2,668,0.000044136,0.00067294,0.00016934,1.0479,0.45902,22657.2412543049,0.0006421796
73,10.1016/j.actamat.2015.04.023,4591,3(a),5859,x=0.0125,Mg2.9875Na0.0125Sb2,668.5,0.000044142,0.00067354,0.00016945,1.047,0.45964,22654.1615694803,0.0006433047
73,10.1016/j.actamat.2015.04.023,4591,3(a),5859,x=0.0125,Mg2.9875Na0.0125Sb2,669,0.000044149,0.00067415,0.00016956,1.0461,0.46027,22650.569661827,0.0006444413
73,10.1016/j.actamat.2015.04.023,4591,3(a),5859,x=0.0125,Mg2.9875Na0.0125Sb2,669.5,0.000044156,0.00067476,0.00016967,1.0452,0.46089,22646.9788930157,0.0006455798
73,10.1016/j.actamat.2015.04.023,4591,3(a),5859,x=0.0125,Mg2.9875Na0.0125Sb2,670,0.000044162,0.00067537,0.00016978,1.0443,0.46151,22643.9019971922,0.0006467203
73,10.1016/j.actamat.2015.04.023,4591,3(a),5859,x=0.0125,Mg2.9875Na0.0125Sb2,670.5,0.000044169,0.00067597,0.00016989,1.0434,0.46213,22640.3133419367,0.0006478532
73,10.1016/j.actamat.2015.04.023,4591,3(a),5859,x=0.0125,Mg2.9875Na0.0125Sb2,671,0.000044175,0.00067658,0.00017,1.0425,0.46276,22637.2382569327,0.0006489976
73,10.1016/j.actamat.2015.04.023,4591,3(a),5859,x=0.0125,Mg2.9875Na0.0125Sb2,671.5,0.000044182,0.00067719,0.00017011,1.0416,0.46338,22633.6517133674,0.000650144
73,10.1016/j.actamat.2015.04.023,4591,3(a),5859,x=0.0125,Mg2.9875Na0.0125Sb2,672,0.000044189,0.0006778,0.00017023,1.0407,0.464,22630.0663060943,0.0006512924
73,10.1016/j.actamat.2015.04.023,4591,3(a),5859,x=0.0125,Mg2.9875Na0.0125Sb2,672.5,0.000044195,0.0006784,0.00017034,1.0398,0.46462,22626.9940038466,0.0006524332
73,10.1016/j.actamat.2015.04.023,4591,3(a),5859,x=0.0125,Mg2.9875Na0.0125Sb2,673,0.000044202,0.00067901,0.00017045,1.0389,0.46524,22623.4107053979,0.0006535855
73,10.1016/j.actamat.2015.04.023,4591,3(a),5859,x=0.0125,Mg2.9875Na0.0125Sb2,673.5,0.000044208,0.00067962,0.00017056,1.0379,0.46587,22620.3402099168,0.000654803
73,10.1016/j.actamat.2015.04.023,4591,3(a),5859,x=0.0125,Mg2.9875Na0.0125Sb2,674,0.000044215,0.00068023,0.00017067,1.037,0.46649,22616.7590184327,0.0006559595
73,10.1016/j.actamat.2015.04.023,4591,3(a),5859,x=0.0125,Mg2.9875Na0.0125Sb2,674.5,0.000044222,0.00068083,0.00017078,1.0361,0.46711,22613.1789606983,0.0006571084
73,10.1016/j.actamat.2015.04.023,4591,3(a),5859,x=0.0125,Mg2.9875Na0.0125Sb2,675,0.000044228,0.00068144,0.00017089,1.0352,0.46773,22610.1112417473,0.0006582689
73,10.1016/j.actamat.2015.04.023,4591,3(a),5859,x=0.0125,Mg2.9875Na0.0125Sb2,675.5,0.000044235,0.00068205,0.000171,1.0343,0.46836,22606.5332881203,0.0006594315
73,10.1016/j.actamat.2015.04.023,4591,3(a),5859,x=0.0125,Mg2.9875Na0.0125Sb2,676,0.000044241,0.00068266,0.00017112,1.0334,0.46898,22603.4673718949,0.0006605961
73,10.1016/j.actamat.2015.04.023,4591,3(a),5859,x=0.0125,Mg2.9875Na0.0125Sb2,676.5,0.000044248,0.00068326,0.00017123,1.0325,0.4696,22599.8915205207,0.000661753
73,10.1016/j.actamat.2015.04.023,4591,3(a),5859,x=0.0125,Mg2.9875Na0.0125Sb2,677,0.000044255,0.00068387,0.00017134,1.0316,0.47022,22596.3168003615,0.0006629217
73,10.1016/j.actamat.2015.04.023,4591,3(a),5859,x=0.0125,Mg2.9875Na0.0125Sb2,677.5,0.000044261,0.00068448,0.00017145,1.0307,0.47085,22593.2536544588,0.0006640924
73,10.1016/j.actamat.2015.04.023,4591,3(a),5859,x=0.0125,Mg2.9875Na0.0125Sb2,678,0.000044268,0.00068509,0.00017156,1.0298,0.47147,22589.6810337038,0.0006652651
73,10.1016/j.actamat.2015.04.023,4591,3(a),5859,x=0.0125,Mg2.9875Na0.0125Sb2,678.5,0.000044274,0.00068569,0.00017167,1.0289,0.47209,22586.6196864977,0.0006664302
73,10.1016/j.actamat.2015.04.023,4591,3(a),5859,x=0.0125,Mg2.9875Na0.0125Sb2,679,0.000044281,0.0006863,0.00017178,1.028,0.47271,22583.049163298,0.000667607
73,10.1016/j.actamat.2015.04.023,4591,3(a),5859,x=0.0125,Mg2.9875Na0.0125Sb2,679.5,0.000044288,0.00068691,0.00017189,1.0271,0.47334,22579.4797687861,0.0006687859
73,10.1016/j.actamat.2015.04.023,4591,3(a),5859,x=0.0125,Mg2.9875Na0.0125Sb2,680,0.000044294,0.00068752,0.00017201,1.0262,0.47396,22576.4211857136,0.0006699669
73,10.1016/j.actamat.2015.04.023,4591,3(a),5859,x=0.0125,Mg2.9875Na0.0125Sb2,680.5,0.000044301,0.00068812,0.00017212,1.0252,0.47458,22572.8538859168,0.0006712056
73,10.1016/j.actamat.2015.04.023,4591,3(a),5859,x=0.0125,Mg2.9875Na0.0125Sb2,681,0.000044307,0.00068873,0.00017223,1.0243,0.4752,22569.7970975241,0.0006723909
73,10.1016/j.actamat.2015.04.023,4591,3(a),5859,x=0.0125,Mg2.9875Na0.0125Sb2,681.5,0.000044314,0.00068934,0.00017234,1.0234,0.47582,22566.2318905989,0.0006735783
73,10.1016/j.actamat.2015.04.023,4591,3(a),5859,x=0.0125,Mg2.9875Na0.0125Sb2,682,0.000044321,0.00068995,0.00017245,1.0225,0.47645,22562.6678098418,0.0006747677
73,10.1016/j.actamat.2015.04.023,4591,3(a),5859,x=0.0125,Mg2.9875Na0.0125Sb2,682.5,0.000044327,0.00069056,0.00017256,1.0216,0.47707,22559.6137794121,0.0006759593
73,10.1016/j.actamat.2015.04.023,4591,3(a),5859,x=0.0125,Mg2.9875Na0.0125Sb2,683,0.000044334,0.00069116,0.00017267,1.0207,0.47769,22556.0517886949,0.0006771431
73,10.1016/j.actamat.2015.04.023,4591,3(a),5859,x=0.0125,Mg2.9875Na0.0125Sb2,683.5,0.000044341,0.00069177,0.00017278,1.0198,0.47831,22552.4909226224,0.0006783389
73,10.1016/j.actamat.2015.04.023,4591,3(a),5859,x=0.0125,Mg2.9875Na0.0125Sb2,684,0.000044347,0.00069238,0.00017289,1.0189,0.47894,22549.4396464248,0.0006795368
73,10.1016/j.actamat.2015.04.023,4591,3(a),5859,x=0.0125,Mg2.9875Na0.0125Sb2,684.5,0.000044354,0.00069299,0.00017301,1.018,0.47956,22545.8808675655,0.0006807367
73,10.1016/j.actamat.2015.04.023,4591,3(a),5859,x=0.0125,Mg2.9875Na0.0125Sb2,685,0.00004436,0.00069359,0.00017312,1.0171,0.48018,22542.8313796213,0.000681929
73,10.1016/j.actamat.2015.04.023,4591,3(a),5859,x=0.0125,Mg2.9875Na0.0125Sb2,685.5,0.000044367,0.0006942,0.00017323,1.0162,0.4808,22539.2746861406,0.0006831332
73,10.1016/j.actamat.2015.04.023,4591,3(a),5859,x=0.0125,Mg2.9875Na0.0125Sb2,686,0.000044374,0.00069481,0.00017334,1.0153,0.48143,22535.719114797,0.0006843396
73,10.1016/j.actamat.2015.04.023,4591,3(a),5859,x=0.0125,Mg2.9875Na0.0125Sb2,686.5,0.00004438,0.00069542,0.00017345,1.0144,0.48205,22532.6723749437,0.0006855481
73,10.1016/j.actamat.2015.04.023,4591,3(a),5859,x=0.0125,Mg2.9875Na0.0125Sb2,687,0.000044387,0.00069602,0.00017356,1.0134,0.48267,22529.1188861604,0.0006868167
73,10.1016/j.actamat.2015.04.023,4591,3(a),5859,x=0.0125,Mg2.9875Na0.0125Sb2,687.5,0.000044393,0.00069663,0.00017367,1.0125,0.48329,22526.0739305746,0.0006880296
73,10.1016/j.actamat.2015.04.023,4591,3(a),5859,x=0.0125,Mg2.9875Na0.0125Sb2,688,0.0000444,0.00069724,0.00017378,1.0116,0.48392,22522.5225225225,0.0006892448
73,10.1016/j.actamat.2015.04.023,4591,3(a),5859,x=0.0125,Mg2.9875Na0.0125Sb2,688.5,0.000044407,0.00069785,0.0001739,1.0107,0.48454,22518.9722341072,0.0006904621
73,10.1016/j.actamat.2015.04.023,4591,3(a),5859,x=0.0125,Mg2.9875Na0.0125Sb2,689,0.000044413,0.00069845,0.00017401,1.0098,0.48516,22515.9300204895,0.0006916716
73,10.1016/j.actamat.2015.04.023,4591,3(a),5859,x=0.0125,Mg2.9875Na0.0125Sb2,689.5,0.00004442,0.00069906,0.00017412,1.0089,0.48578,22512.3818099955,0.0006928933
73,10.1016/j.actamat.2015.04.023,4591,3(a),5859,x=0.0125,Mg2.9875Na0.0125Sb2,690,0.000044426,0.00069967,0.00017423,1.008,0.4864,22509.3413766713,0.0006941171
73,10.1016/j.actamat.2015.04.023,4591,3(a),5859,x=0.0125,Mg2.9875Na0.0125Sb2,690.5,0.000044433,0.00070028,0.00017434,1.0071,0.48703,22505.7952422749,0.0006953431
73,10.1016/j.actamat.2015.04.023,4591,3(a),5859,x=0.0125,Mg2.9875Na0.0125Sb2,691,0.00004444,0.00070088,0.00017445,1.0062,0.48765,22502.2502250225,0.0006965613
73,10.1016/j.actamat.2015.04.023,4591,3(a),5859,x=0.0125,Mg2.9875Na0.0125Sb2,691.5,0.000044446,0.00070149,0.00017456,1.0053,0.48827,22499.2125275615,0.0006977917
73,10.1016/j.actamat.2015.04.023,4591,3(a),5859,x=0.0125,Mg2.9875Na0.0125Sb2,692,0.000044453,0.0007021,0.00017467,1.0044,0.48889,22495.6695836052,0.0006990243
73,10.1016/j.actamat.2015.04.023,4591,3(a),5859,x=0.0125,Mg2.9875Na0.0125Sb2,692.5,0.000044459,0.00070271,0.00017478,1.0035,0.48952,22492.6336624755,0.0007002591
73,10.1016/j.actamat.2015.04.023,4591,3(a),5859,x=0.0125,Mg2.9875Na0.0125Sb2,693,0.000044466,0.00070331,0.0001749,1.0026,0.49014,22489.0927899969,0.0007014861
73,10.1016/j.actamat.2015.04.023,4591,3(a),5859,x=0.0125,Mg2.9875Na0.0125Sb2,693.5,0.000044473,0.00070392,0.00017501,1.0017,0.49076,22485.5530321768,0.0007027254
73,10.1016/j.actamat.2015.04.023,4591,3(a),5859,x=0.0125,Mg2.9875Na0.0125Sb2,694,0.000044479,0.00070453,0.00017512,1.0007,0.49138,22482.5198408238,0.0007040372
73,10.1016/j.actamat.2015.04.023,4591,3(a),5859,x=0.0125,Mg2.9875Na0.0125Sb2,694.5,0.000044486,0.00070514,0.00017523,0.99984,0.49201,22478.9821516882,0.0007052528
73,10.1016/j.actamat.2015.04.023,4591,3(a),5859,x=0.0125,Mg2.9875Na0.0125Sb2,695,0.000044492,0.00070574,0.00017534,0.99893,0.49263,22475.950732716,0.000706496
73,10.1016/j.actamat.2015.04.023,4591,3(a),5859,x=0.0125,Mg2.9875Na0.0125Sb2,695.5,0.000044499,0.00070635,0.00017545,0.99802,0.49325,22472.4151104519,0.0007077513
73,10.1016/j.actamat.2015.04.023,4591,3(a),5859,x=0.0125,Mg2.9875Na0.0125Sb2,696,0.000044506,0.00070696,0.00017556,0.99711,0.49387,22468.8806003685,0.000709009
73,10.1016/j.actamat.2015.04.023,4591,3(a),5859,x=0.0125,Mg2.9875Na0.0125Sb2,696.5,0.000044512,0.00070757,0.00017567,0.99621,0.4945,22465.8519051042,0.0007102619
73,10.1016/j.actamat.2015.04.023,4591,3(a),5859,x=0.0125,Mg2.9875Na0.0125Sb2,697,0.000044519,0.00070817,0.00017579,0.9953,0.49512,22462.3194591073,0.0007115141
73,10.1016/j.actamat.2015.04.023,4591,3(a),5859,x=0.0125,Mg2.9875Na0.0125Sb2,697.5,0.000044526,0.00070878,0.0001759,0.99439,0.49574,22458.7881237928,0.0007127787
73,10.1016/j.actamat.2015.04.023,4591,3(a),5859,x=0.0125,Mg2.9875Na0.0125Sb2,698,0.000044532,0.00070939,0.00017601,0.99349,0.49636,22455.7621485673,0.0007140384
73,10.1016/j.actamat.2015.04.023,4591,3(a),5859,x=0.0125,Mg2.9875Na0.0125Sb2,698.5,0.000044539,0.00071,0.00017612,0.99258,0.49698,22452.2328745594,0.0007153076
73,10.1016/j.actamat.2015.04.023,4591,3(a),5859,x=0.0125,Mg2.9875Na0.0125Sb2,699,0.000044545,0.0007106,0.00017623,0.99167,0.49761,22449.2086653945,0.000716569
73,10.1016/j.actamat.2015.04.023,4591,3(a),5859,x=0.0125,Mg2.9875Na0.0125Sb2,699.5,0.000044552,0.00071121,0.00017634,0.99076,0.49823,22445.6814508888,0.0007178429
73,10.1016/j.actamat.2015.04.023,4591,3(a),5859,x=0.0125,Mg2.9875Na0.0125Sb2,700,0.000044559,0.00071182,0.00017645,0.98986,0.49885,22442.1553445993,0.0007191118
73,10.1016/j.actamat.2015.04.023,4591,3(a),5859,x=0.0125,Mg2.9875Na0.0125Sb2,700.5,0.000044565,0.00071243,0.00017656,0.98895,0.49947,22439.1338494334,0.0007203903
73,10.1016/j.actamat.2015.04.023,4591,3(a),5859,x=0.0125,Mg2.9875Na0.0125Sb2,701,0.000044572,0.00071303,0.00017668,0.98804,0.5001,22435.6097998744,0.0007216611
73,10.1016/j.actamat.2015.04.023,4591,3(a),5859,x=0.0125,Mg2.9875Na0.0125Sb2,701.5,0.000044578,0.00071364,0.00017679,0.98713,0.50072,22432.5900668491,0.0007229443
73,10.1016/j.actamat.2015.04.023,4591,3(a),5859,x=0.0125,Mg2.9875Na0.0125Sb2,702,0.000044585,0.00071425,0.0001769,0.98623,0.50134,22429.0680722216,0.0007242225
73,10.1016/j.actamat.2015.04.023,4591,3(a),5859,x=0.0125,Mg2.9875Na0.0125Sb2,702.5,0.000044592,0.00071486,0.00017701,0.98532,0.50196,22425.5471833513,0.0007255105
73,10.1016/j.actamat.2015.04.023,4591,3(a),5859,x=0.0125,Mg2.9875Na0.0125Sb2,703,0.000044598,0.00071547,0.00017712,0.98441,0.50259,22422.5301583031,0.0007268008
73,10.1016/j.actamat.2015.04.023,4591,3(a),5859,x=0.0125,Mg2.9875Na0.0125Sb2,703.5,0.000044605,0.00071607,0.00017723,0.9835,0.50321,22419.0113216007,0.0007280834
73,10.1016/j.actamat.2015.04.023,4591,3(a),5859,x=0.0125,Mg2.9875Na0.0125Sb2,704,0.000044611,0.00071668,0.00017734,0.9826,0.50383,22415.9960547847,0.0007293711
73,10.1016/j.actamat.2015.04.023,4591,3(a),5859,x=0.0125,Mg2.9875Na0.0125Sb2,704.5,0.000044618,0.00071729,0.00017745,0.98169,0.50445,22412.4792684567,0.0007306685
73,10.1016/j.actamat.2015.04.023,4591,3(a),5859,x=0.0125,Mg2.9875Na0.0125Sb2,705,0.000044625,0.0007179,0.00017756,0.98078,0.50508,22408.9635854342,0.0007319684
73,10.1016/j.actamat.2015.04.023,4591,3(a),5859,x=0.0125,Mg2.9875Na0.0125Sb2,705.5,0.000044631,0.0007185,0.00017768,0.97987,0.5057,22405.9510205911,0.0007332605
73,10.1016/j.actamat.2015.04.023,4591,3(a),5859,x=0.0125,Mg2.9875Na0.0125Sb2,706,0.000044638,0.00071911,0.00017779,0.97897,0.50632,22402.4373851875,0.0007345577
73,10.1016/j.actamat.2015.04.023,4591,3(a),5859,x=0.0125,Mg2.9875Na0.0125Sb2,706.5,0.000044644,0.00071972,0.0001779,0.97806,0.50694,22399.4265746797,0.0007358649
73,10.1016/j.actamat.2015.04.023,4591,3(a),5859,x=0.0125,Mg2.9875Na0.0125Sb2,707,0.000044651,0.00072033,0.00017801,0.97715,0.50756,22395.9149851067,0.0007371744
73,10.1016/j.actamat.2015.04.023,4591,3(a),5859,x=0.0125,Mg2.9875Na0.0125Sb2,707.5,0.000044658,0.00072093,0.00017812,0.97625,0.50819,22392.4044963948,0.0007384686
73,10.1016/j.actamat.2015.04.023,4591,3(a),5859,x=0.0125,Mg2.9875Na0.0125Sb2,708,0.000044664,0.00072154,0.00017823,0.97534,0.50881,22389.3963818735,0.0007397831
73,10.1016/j.actamat.2015.04.023,4591,3(a),5859,x=0.0125,Mg2.9875Na0.0125Sb2,708.5,0.000044671,0.00072215,0.00017834,0.97443,0.50943,22385.887936245,0.0007410999
73,10.1016/j.actamat.2015.04.023,4591,3(a),5859,x=0.0125,Mg2.9875Na0.0125Sb2,709,0.000044677,0.00072276,0.00017845,0.97352,0.51005,22382.8815721736,0.0007424193
73,10.1016/j.actamat.2015.04.023,4591,3(a),5859,x=0.0125,Mg2.9875Na0.0125Sb2,709.5,0.000044684,0.00072336,0.00017857,0.97262,0.51068,22379.3751678453,0.0007437231
73,10.1016/j.actamat.2015.04.023,4591,3(a),5859,x=0.0125,Mg2.9875Na0.0125Sb2,710,0.000044691,0.00072397,0.00017868,0.97171,0.5113,22375.8698619409,0.0007450474
73,10.1016/j.actamat.2015.04.023,4591,3(a),5859,x=0.0125,Mg2.9875Na0.0125Sb2,710.5,0.000044697,0.00072458,0.00017879,0.9708,0.51192,22372.8661878873,0.0007463741
73,10.1016/j.actamat.2015.04.023,4591,3(a),5859,x=0.0125,Mg2.9875Na0.0125Sb2,711,0.000044704,0.00072519,0.0001789,0.96989,0.51254,22369.362920544,0.0007477033
73,10.1016/j.actamat.2015.04.023,4591,3(a),5859,x=0.0125,Mg2.9875Na0.0125Sb2,711.5,0.00004471,0.00072579,0.00017901,0.96899,0.51317,22366.3609930664,0.000749017
73,10.1016/j.actamat.2015.04.023,4591,3(a),5859,x=0.0125,Mg2.9875Na0.0125Sb2,712,0.000044717,0.0007264,0.00017912,0.96808,0.51379,22362.8597625064,0.0007503512
73,10.1016/j.actamat.2015.04.023,4591,3(a),5859,x=0.0125,Mg2.9875Na0.0125Sb2,712.5,0.000044724,0.00072701,0.00017923,0.96717,0.51441,22359.3596279403,0.0007516879
73,10.1016/j.actamat.2015.04.023,4591,3(a),5859,x=0.0125,Mg2.9875Na0.0125Sb2,713,0.00004473,0.00072762,0.00017934,0.96626,0.51503,22356.3603845294,0.0007530271
73,10.1016/j.actamat.2015.04.023,4591,3(a),5859,x=0.0125,Mg2.9875Na0.0125Sb2,713.5,0.000044737,0.00072822,0.00017945,0.96536,0.51565,22352.8622840155,0.0007543507
73,10.1016/j.actamat.2015.04.023,4591,3(a),5859,x=0.0125,Mg2.9875Na0.0125Sb2,714,0.000044744,0.00072883,0.00017957,0.96445,0.51628,22349.3652780261,0.000755695
73,10.1016/j.actamat.2015.04.023,4591,3(a),5859,x=0.0125,Mg2.9875Na0.0125Sb2,714.5,0.00004475,0.00072944,0.00017968,0.96354,0.5169,22346.3687150838,0.0007570417
73,10.1016/j.actamat.2015.04.023,4591,3(a),5859,x=0.0125,Mg2.9875Na0.0125Sb2,715,0.000044757,0.00073005,0.00017979,0.96264,0.51752,22342.8737404205,0.0007583832
73,10.1016/j.actamat.2015.04.023,4591,3(a),5859,x=0.0125,Mg2.9875Na0.0125Sb2,715.5,0.000044763,0.00073065,0.0001799,0.96173,0.51814,22339.8789178563,0.0007597247
73,10.1016/j.actamat.2015.04.023,4591,3(a),5859,x=0.0125,Mg2.9875Na0.0125Sb2,716,0.00004477,0.00073126,0.00018001,0.96082,0.51877,22336.3859727496,0.0007610791
73,10.1016/j.actamat.2015.04.023,4591,3(a),5859,x=0.0125,Mg2.9875Na0.0125Sb2,716.5,0.000044777,0.00073187,0.00018012,0.95991,0.51939,22332.894119749,0.0007624361
73,10.1016/j.actamat.2015.04.023,4591,3(a),5859,x=0.0125,Mg2.9875Na0.0125Sb2,717,0.000044783,0.00073248,0.00018023,0.95901,0.52001,22329.9019717303,0.0007637877
73,10.1016/j.actamat.2015.04.023,4591,3(a),5859,x=0.0125,Mg2.9875Na0.0125Sb2,717.5,0.00004479,0.00073308,0.00018034,0.9581,0.52063,22326.4121455682,0.0007651393
73,10.1016/j.actamat.2015.04.023,4591,3(a),5859,x=0.0125,Mg2.9875Na0.0125Sb2,718,0.000044796,0.00073369,0.00018046,0.95719,0.52126,22323.4217340834,0.000766504