sid,DOI,figureid,fignum,sampleid,samplename,composition,Temperature,Electrical resistivity,Power factor,Seebeck coefficient,Thermal conductivity,ZT,Electrical conductivity,Figure of merit Z
10954,10.1007/s11664-015-4303-6,5134,3(a),6467,x=0,Ca1Zn2Sb2,709,0.000048305,0.00081229,0.00019926,2.0014,0.24645,20701.790704896,0.0004058609
10954,10.1007/s11664-015-4303-6,5134,3(a),6467,x=0,Ca1Zn2Sb2,709.5,0.000048326,0.00081267,0.00019936,1.9994,0.24672,20692.7947688615,0.0004064569
10954,10.1007/s11664-015-4303-6,5134,3(a),6467,x=0,Ca1Zn2Sb2,710,0.000048348,0.00081305,0.00019945,1.9975,0.24699,20683.3788367668,0.0004070338
10954,10.1007/s11664-015-4303-6,5134,3(a),6467,x=0,Ca1Zn2Sb2,710.5,0.000048369,0.00081344,0.00019954,1.9956,0.24727,20674.3988918522,0.0004076168
10954,10.1007/s11664-015-4303-6,5134,3(a),6467,x=0,Ca1Zn2Sb2,711,0.00004839,0.00081382,0.00019963,1.9937,0.24754,20665.4267410622,0.0004081958
10954,10.1007/s11664-015-4303-6,5134,3(a),6467,x=0,Ca1Zn2Sb2,711.5,0.000048412,0.0008142,0.00019972,1.9918,0.24781,20656.0356936297,0.000408776
10954,10.1007/s11664-015-4303-6,5134,3(a),6467,x=0,Ca1Zn2Sb2,712,0.000048433,0.00081458,0.00019981,1.9899,0.24809,20647.0794706089,0.0004093573
10954,10.1007/s11664-015-4303-6,5134,3(a),6467,x=0,Ca1Zn2Sb2,712.5,0.000048455,0.00081497,0.00019991,1.9879,0.24836,20637.7050871943,0.0004099653
10954,10.1007/s11664-015-4303-6,5134,3(a),6467,x=0,Ca1Zn2Sb2,713,0.000048476,0.00081535,0.0002,1.986,0.24863,20628.7647495668,0.0004105488
10954,10.1007/s11664-015-4303-6,5134,3(a),6467,x=0,Ca1Zn2Sb2,713.5,0.000048498,0.00081573,0.00020009,1.9841,0.24891,20619.4069858551,0.0004111335
10954,10.1007/s11664-015-4303-6,5134,3(a),6467,x=0,Ca1Zn2Sb2,714,0.000048519,0.00081611,0.00020018,1.9822,0.24918,20610.4824913951,0.0004117193
10954,10.1007/s11664-015-4303-6,5134,3(a),6467,x=0,Ca1Zn2Sb2,714.5,0.00004854,0.00081649,0.00020027,1.9803,0.24945,20601.5657189946,0.0004123062
10954,10.1007/s11664-015-4303-6,5134,3(a),6467,x=0,Ca1Zn2Sb2,715,0.000048562,0.00081688,0.00020036,1.9784,0.24973,20592.2326098596,0.0004128993
10954,10.1007/s11664-015-4303-6,5134,3(a),6467,x=0,Ca1Zn2Sb2,715.5,0.000048583,0.00081726,0.00020046,1.9765,0.25,20583.3316180557,0.0004134885
10954,10.1007/s11664-015-4303-6,5134,3(a),6467,x=0,Ca1Zn2Sb2,716,0.000048605,,,1.9745,0.25028,20574.015019031,
10954,10.1007/s11664-015-4303-6,5134,3(a),6467,x=0,Ca1Zn2Sb2,716.5,0.000048626,,,1.9726,0.25055,20565.1297659688,
10954,10.1007/s11664-015-4303-6,5134,3(a),6467,x=0,Ca1Zn2Sb2,717,0.000048648,,,,0.25082,20555.829633284,
10954,10.1007/s11664-015-4303-6,5134,3(a),6467,x=0,Ca1Zn2Sb2,717.5,0.000048669,,,,,20546.9600772566,
10954,10.1007/s11664-015-4303-6,5136,3(b),6467,x=0,Ca1Zn2Sb2,298,,,0.00012393,,,,
10954,10.1007/s11664-015-4303-6,5136,3(b),6467,x=0,Ca1Zn2Sb2,298.5,,,0.00012403,,,,
10954,10.1007/s11664-015-4303-6,5134,3(a),6468,x=0.1,Ca0.9Eu0.1Zn2Sb2,301.5,0.000014916,0.00080178,,3.2013,0.031913,67042.1024403325,0.0002504545
10954,10.1007/s11664-015-4303-6,5134,3(a),6468,x=0.1,Ca0.9Eu0.1Zn2Sb2,302,0.000014931,0.00080235,,3.1993,0.032441,66974.7505190543,0.0002507892
10954,10.1007/s11664-015-4303-6,5134,3(a),6468,x=0.1,Ca0.9Eu0.1Zn2Sb2,302.5,0.000014946,0.00080291,0.00011046,3.1974,0.032969,66907.5337883046,0.0002511134
10954,10.1007/s11664-015-4303-6,5134,3(a),6468,x=0.1,Ca0.9Eu0.1Zn2Sb2,303,0.000014961,0.00080348,0.00011055,3.1954,0.033496,66840.4518414544,0.000251449
10954,10.1007/s11664-015-4303-6,5134,3(a),6468,x=0.1,Ca0.9Eu0.1Zn2Sb2,303.5,0.000014976,0.00080405,0.00011065,3.1935,0.034024,66773.5042735043,0.000251777
10954,10.1007/s11664-015-4303-6,5134,3(a),6468,x=0.1,Ca0.9Eu0.1Zn2Sb2,304,0.000014991,0.00080462,0.00011074,3.1915,0.034552,66706.6906810753,0.0002521134
10954,10.1007/s11664-015-4303-6,5134,3(a),6468,x=0.1,Ca0.9Eu0.1Zn2Sb2,304.5,0.000015006,0.00080519,0.00011083,3.1896,0.035079,66640.0106624017,0.0002524423
10954,10.1007/s11664-015-4303-6,5134,3(a),6468,x=0.1,Ca0.9Eu0.1Zn2Sb2,305,0.000015022,0.00080575,0.00011092,3.1876,0.035607,66569.0320862735,0.0002527764
10954,10.1007/s11664-015-4303-6,5134,3(a),6468,x=0.1,Ca0.9Eu0.1Zn2Sb2,305.5,0.000015037,0.00080632,0.00011101,3.1857,0.036135,66502.6268537607,0.0002531061
10954,10.1007/s11664-015-4303-6,5134,3(a),6468,x=0.1,Ca0.9Eu0.1Zn2Sb2,306,0.000015052,0.00080689,0.00011111,3.1837,0.036662,66436.353972894,0.0002534441
10954,10.1007/s11664-015-4303-6,5134,3(a),6468,x=0.1,Ca0.9Eu0.1Zn2Sb2,306.5,0.000015067,0.00080746,0.0001112,3.1818,0.03719,66370.2130483839,0.0002537746
10954,10.1007/s11664-015-4303-6,5134,3(a),6468,x=0.1,Ca0.9Eu0.1Zn2Sb2,307,0.000015082,0.00080803,0.00011129,3.1798,0.037718,66304.2036865137,0.0002541135
10954,10.1007/s11664-015-4303-6,5134,3(a),6468,x=0.1,Ca0.9Eu0.1Zn2Sb2,307.5,0.000015097,0.00080859,0.00011138,3.1779,0.038245,66238.3254951315,0.0002544416
10954,10.1007/s11664-015-4303-6,5134,3(a),6468,x=0.1,Ca0.9Eu0.1Zn2Sb2,308,0.000015112,0.00080916,0.00011147,3.1759,0.038773,66172.5780836421,0.0002547813
10954,10.1007/s11664-015-4303-6,5134,3(a),6468,x=0.1,Ca0.9Eu0.1Zn2Sb2,308.5,0.000015127,0.00080973,0.00011157,3.174,0.039301,66106.9610629999,0.0002551134
10954,10.1007/s11664-015-4303-6,5134,3(a),6468,x=0.1,Ca0.9Eu0.1Zn2Sb2,309,0.000015143,0.0008103,0.00011166,3.172,0.039828,66037.1128574259,0.000255454
10954,10.1007/s11664-015-4303-6,5134,3(a),6468,x=0.1,Ca0.9Eu0.1Zn2Sb2,309.5,0.000015158,0.00081087,0.00011175,3.1701,0.040356,65971.7640849716,0.0002557869
10954,10.1007/s11664-015-4303-6,5134,3(a),6468,x=0.1,Ca0.9Eu0.1Zn2Sb2,310,0.000015173,0.00081143,0.00011184,3.1681,0.040884,65906.5445198708,0.0002561251
10954,10.1007/s11664-015-4303-6,5134,3(a),6468,x=0.1,Ca0.9Eu0.1Zn2Sb2,310.5,0.000015188,0.000812,0.00011193,3.1661,0.041411,65841.4537792995,0.0002564669
10954,10.1007/s11664-015-4303-6,5134,3(a),6468,x=0.1,Ca0.9Eu0.1Zn2Sb2,311,0.000015203,0.00081257,0.00011202,3.1642,0.041939,65776.4914819444,0.0002568011
10954,10.1007/s11664-015-4303-6,5134,3(a),6468,x=0.1,Ca0.9Eu0.1Zn2Sb2,311.5,0.000015218,0.00081314,0.00011212,3.1622,0.042467,65711.6572479958,0.0002571438
10954,10.1007/s11664-015-4303-6,5134,3(a),6468,x=0.1,Ca0.9Eu0.1Zn2Sb2,312,0.000015233,0.00081371,0.00011221,3.1603,0.042994,65646.95069914,0.0002574787
10954,10.1007/s11664-015-4303-6,5134,3(a),6468,x=0.1,Ca0.9Eu0.1Zn2Sb2,312.5,0.000015248,0.00081427,0.0001123,3.1583,0.043522,65582.3714585519,0.0002578191
10954,10.1007/s11664-015-4303-6,5134,3(a),6468,x=0.1,Ca0.9Eu0.1Zn2Sb2,313,0.000015263,0.00081484,0.00011239,3.1564,0.044049,65517.9191508878,0.0002581549
10954,10.1007/s11664-015-4303-6,5134,3(a),6468,x=0.1,Ca0.9Eu0.1Zn2Sb2,313.5,0.000015279,0.00081541,0.00011248,3.1544,0.044577,65449.3095097847,0.0002584992
10954,10.1007/s11664-015-4303-6,5134,3(a),6468,x=0.1,Ca0.9Eu0.1Zn2Sb2,314,0.000015294,0.00081598,0.00011258,3.1525,0.045105,65385.1183470642,0.0002588358
10954,10.1007/s11664-015-4303-6,5134,3(a),6468,x=0.1,Ca0.9Eu0.1Zn2Sb2,314.5,0.000015309,0.00081655,0.00011267,3.1505,0.045632,65321.052975374,0.0002591811
10954,10.1007/s11664-015-4303-6,5134,3(a),6468,x=0.1,Ca0.9Eu0.1Zn2Sb2,315,0.000015324,0.00081711,0.00011276,3.1486,0.04616,65257.1130253198,0.0002595153
10954,10.1007/s11664-015-4303-6,5134,3(a),6468,x=0.1,Ca0.9Eu0.1Zn2Sb2,315.5,0.000015339,0.00081768,0.00011285,3.1466,0.046688,65193.2981289523,0.0002598614
10954,10.1007/s11664-015-4303-6,5134,3(a),6468,x=0.1,Ca0.9Eu0.1Zn2Sb2,316,0.000015354,0.00081825,0.00011294,3.1447,0.047215,65129.6079197603,0.0002601997
10954,10.1007/s11664-015-4303-6,5134,3(a),6468,x=0.1,Ca0.9Eu0.1Zn2Sb2,316.5,0.000015369,0.00081882,0.00011304,3.1427,0.047743,65066.0420326632,0.0002605467
10954,10.1007/s11664-015-4303-6,5134,3(a),6468,x=0.1,Ca0.9Eu0.1Zn2Sb2,317,0.000015384,0.00081939,0.00011313,3.1408,0.048271,65002.6001040042,0.0002608858
10954,10.1007/s11664-015-4303-6,5134,3(a),6468,x=0.1,Ca0.9Eu0.1Zn2Sb2,317.5,0.0000154,0.00081995,0.00011322,3.1388,0.048798,64935.0649350649,0.0002612304
10954,10.1007/s11664-015-4303-6,5134,3(a),6468,x=0.1,Ca0.9Eu0.1Zn2Sb2,318,0.000015415,0.00082052,0.00011331,3.1369,0.049326,64871.8780408693,0.0002615703
10954,10.1007/s11664-015-4303-6,5134,3(a),6468,x=0.1,Ca0.9Eu0.1Zn2Sb2,318.5,0.00001543,0.00082109,0.0001134,3.1349,0.049854,64808.8139987038,0.000261919
10954,10.1007/s11664-015-4303-6,5134,3(a),6468,x=0.1,Ca0.9Eu0.1Zn2Sb2,319,0.000015445,0.00082166,0.0001135,3.133,0.050381,64745.8724506313,0.0002622598
10954,10.1007/s11664-015-4303-6,5134,3(a),6468,x=0.1,Ca0.9Eu0.1Zn2Sb2,319.5,0.00001546,0.00082223,0.00011359,3.131,0.050909,64683.0530401035,0.0002626094
10954,10.1007/s11664-015-4303-6,5134,3(a),6468,x=0.1,Ca0.9Eu0.1Zn2Sb2,320,0.000015475,0.00082279,0.00011368,3.1291,0.051437,64620.3554119548,0.0002629478
10954,10.1007/s11664-015-4303-6,5134,3(a),6468,x=0.1,Ca0.9Eu0.1Zn2Sb2,320.5,0.00001549,0.00082336,0.00011377,3.1271,0.051964,64557.7792123951,0.0002632983
10954,10.1007/s11664-015-4303-6,5134,3(a),6468,x=0.1,Ca0.9Eu0.1Zn2Sb2,321,0.000015505,0.00082393,0.00011386,3.1251,0.052492,64495.3240890035,0.0002636492
10954,10.1007/s11664-015-4303-6,5134,3(a),6468,x=0.1,Ca0.9Eu0.1Zn2Sb2,321.5,0.00001552,0.0008245,0.00011395,3.1232,0.05302,64432.9896907216,0.0002639921
10954,10.1007/s11664-015-4303-6,5134,3(a),6468,x=0.1,Ca0.9Eu0.1Zn2Sb2,322,0.000015536,0.00082507,0.00011405,3.1212,0.053547,64366.6323377961,0.0002643438
10954,10.1007/s11664-015-4303-6,5134,3(a),6468,x=0.1,Ca0.9Eu0.1Zn2Sb2,322.5,0.000015551,0.00082564,0.00011414,3.1193,0.054075,64304.5463314256,0.0002646876
10954,10.1007/s11664-015-4303-6,5134,3(a),6468,x=0.1,Ca0.9Eu0.1Zn2Sb2,323,0.000015566,0.0008262,0.00011423,3.1173,0.054603,64242.5799820121,0.0002650371
10954,10.1007/s11664-015-4303-6,5134,3(a),6468,x=0.1,Ca0.9Eu0.1Zn2Sb2,323.5,0.000015581,0.00082677,0.00011432,3.1154,0.05513,64180.7329439702,0.0002653817
10954,10.1007/s11664-015-4303-6,5134,3(a),6468,x=0.1,Ca0.9Eu0.1Zn2Sb2,324,0.000015596,0.00082734,0.00011441,3.1134,0.055658,64119.0048730444,0.0002657352
10954,10.1007/s11664-015-4303-6,5134,3(a),6468,x=0.1,Ca0.9Eu0.1Zn2Sb2,324.5,0.000015611,0.00082791,0.00011451,3.1115,0.056186,64057.395426302,0.0002660807
10954,10.1007/s11664-015-4303-6,5134,3(a),6468,x=0.1,Ca0.9Eu0.1Zn2Sb2,325,0.000015626,0.00082848,0.0001146,3.1095,0.056713,63995.9042621272,0.0002664351
10954,10.1007/s11664-015-4303-6,5134,3(a),6468,x=0.1,Ca0.9Eu0.1Zn2Sb2,325.5,0.000015641,0.00082904,0.00011469,3.1076,0.057241,63934.5310402148,0.0002667782
10954,10.1007/s11664-015-4303-6,5134,3(a),6468,x=0.1,Ca0.9Eu0.1Zn2Sb2,326,0.000015657,0.00082961,0.00011478,3.1056,0.057769,63869.1958868238,0.0002671336
10954,10.1007/s11664-015-4303-6,5134,3(a),6468,x=0.1,Ca0.9Eu0.1Zn2Sb2,326.5,0.000015672,0.00083018,0.00011487,3.1037,0.058296,63808.0653394589,0.0002674807
10954,10.1007/s11664-015-4303-6,5134,3(a),6468,x=0.1,Ca0.9Eu0.1Zn2Sb2,327,0.000015687,0.00083075,0.00011497,3.1017,0.058824,63747.0516988589,0.000267837
10954,10.1007/s11664-015-4303-6,5134,3(a),6468,x=0.1,Ca0.9Eu0.1Zn2Sb2,327.5,0.000015702,0.00083132,0.00011506,3.0998,0.059351,63686.1546299834,0.000268185
10954,10.1007/s11664-015-4303-6,5134,3(a),6468,x=0.1,Ca0.9Eu0.1Zn2Sb2,328,0.000015717,0.00083188,0.00011515,3.0978,0.059879,63625.3737990711,0.000268539
10954,10.1007/s11664-015-4303-6,5134,3(a),6468,x=0.1,Ca0.9Eu0.1Zn2Sb2,328.5,0.000015732,0.00083245,0.00011524,3.0959,0.060407,63564.7088736334,0.0002688879
10954,10.1007/s11664-015-4303-6,5134,3(a),6468,x=0.1,Ca0.9Eu0.1Zn2Sb2,329,0.000015747,0.00083302,0.00011533,3.0939,0.060934,63504.1595224487,0.0002692459
10954,10.1007/s11664-015-4303-6,5134,3(a),6468,x=0.1,Ca0.9Eu0.1Zn2Sb2,329.5,0.000015762,0.00083359,0.00011543,3.092,0.061462,63443.7254155564,0.0002695957
10954,10.1007/s11664-015-4303-6,5134,3(a),6468,x=0.1,Ca0.9Eu0.1Zn2Sb2,330,0.000015777,0.00083416,0.00011552,3.09,0.06199,63383.4062242505,0.0002699547
10954,10.1007/s11664-015-4303-6,5134,3(a),6468,x=0.1,Ca0.9Eu0.1Zn2Sb2,330.5,0.000015793,0.00083472,0.00011561,3.0881,0.062517,63319.1920471095,0.0002703021
10954,10.1007/s11664-015-4303-6,5134,3(a),6468,x=0.1,Ca0.9Eu0.1Zn2Sb2,331,0.000015808,0.00083529,0.0001157,3.0861,0.063045,63259.1093117409,0.000270662
10954,10.1007/s11664-015-4303-6,5134,3(a),6468,x=0.1,Ca0.9Eu0.1Zn2Sb2,331.5,0.000015823,0.00083586,0.00011579,3.0841,0.063573,63199.1404916893,0.0002710223
10954,10.1007/s11664-015-4303-6,5134,3(a),6468,x=0.1,Ca0.9Eu0.1Zn2Sb2,332,0.000015838,0.00083643,0.00011588,3.0822,0.0641,63139.2852632908,0.0002713743
10954,10.1007/s11664-015-4303-6,5134,3(a),6468,x=0.1,Ca0.9Eu0.1Zn2Sb2,332.5,0.000015853,0.000837,0.00011598,3.0802,0.064628,63079.5433041065,0.0002717356
10954,10.1007/s11664-015-4303-6,5134,3(a),6468,x=0.1,Ca0.9Eu0.1Zn2Sb2,333,0.000015868,0.00083756,0.00011607,3.0783,0.065156,63019.9142929166,0.0002720852
10954,10.1007/s11664-015-4303-6,5134,3(a),6468,x=0.1,Ca0.9Eu0.1Zn2Sb2,333.5,0.000015883,0.00083813,0.00011616,3.0763,0.065683,62960.3979097148,0.0002724474
10954,10.1007/s11664-015-4303-6,5134,3(a),6468,x=0.1,Ca0.9Eu0.1Zn2Sb2,334,0.000015898,0.0008387,0.00011625,3.0744,0.066211,62900.9938357026,0.0002728012
10954,10.1007/s11664-015-4303-6,5134,3(a),6468,x=0.1,Ca0.9Eu0.1Zn2Sb2,334.5,0.000015914,0.00083927,0.00011634,3.0724,0.066739,62837.7529219555,0.0002731643
10954,10.1007/s11664-015-4303-6,5134,3(a),6468,x=0.1,Ca0.9Eu0.1Zn2Sb2,335,0.000015929,0.00083984,0.00011644,3.0705,0.067266,62778.5799485216,0.000273519
10954,10.1007/s11664-015-4303-6,5134,3(a),6468,x=0.1,Ca0.9Eu0.1Zn2Sb2,335.5,0.000015944,0.0008404,0.00011653,3.0685,0.067794,62719.5183140994,0.0002738797
10954,10.1007/s11664-015-4303-6,5134,3(a),6468,x=0.1,Ca0.9Eu0.1Zn2Sb2,336,0.000015959,0.00084097,0.00011662,3.0666,0.068322,62660.5677047434,0.0002742353
10954,10.1007/s11664-015-4303-6,5134,3(a),6468,x=0.1,Ca0.9Eu0.1Zn2Sb2,336.5,0.000015974,0.00084154,0.00011671,3.0646,0.068849,62601.7278076875,0.0002746003
10954,10.1007/s11664-015-4303-6,5134,3(a),6468,x=0.1,Ca0.9Eu0.1Zn2Sb2,337,0.000015989,0.00084211,0.0001168,3.0627,0.069377,62542.998311339,0.0002749567
10954,10.1007/s11664-015-4303-6,5134,3(a),6468,x=0.1,Ca0.9Eu0.1Zn2Sb2,337.5,0.000016004,0.00084268,0.0001169,3.0607,0.069905,62484.3789052737,0.0002753226
10954,10.1007/s11664-015-4303-6,5134,3(a),6468,x=0.1,Ca0.9Eu0.1Zn2Sb2,338,0.000016019,0.00084324,0.00011699,3.0588,0.070432,62425.8692802297,0.0002756767
10954,10.1007/s11664-015-4303-6,5134,3(a),6468,x=0.1,Ca0.9Eu0.1Zn2Sb2,338.5,0.000016035,0.00084381,0.00011708,3.0568,0.07096,62363.579669473,0.0002760436
10954,10.1007/s11664-015-4303-6,5134,3(a),6468,x=0.1,Ca0.9Eu0.1Zn2Sb2,339,0.00001605,0.00084438,0.00011717,3.0549,0.071488,62305.2959501558,0.0002764018
10954,10.1007/s11664-015-4303-6,5134,3(a),6468,x=0.1,Ca0.9Eu0.1Zn2Sb2,339.5,0.000016065,0.00084495,0.00011726,3.0529,0.072015,62247.1210706505,0.0002767696
10954,10.1007/s11664-015-4303-6,5134,3(a),6468,x=0.1,Ca0.9Eu0.1Zn2Sb2,340,0.00001608,0.00084552,0.00011736,3.051,0.072543,62189.0547263682,0.0002771288
10954,10.1007/s11664-015-4303-6,5134,3(a),6468,x=0.1,Ca0.9Eu0.1Zn2Sb2,340.5,0.000016095,0.00084609,0.00011745,3.049,0.073071,62131.0966138552,0.0002774975
10954,10.1007/s11664-015-4303-6,5134,3(a),6468,x=0.1,Ca0.9Eu0.1Zn2Sb2,341,0.00001611,0.00084665,0.00011754,3.047,0.073598,62073.2464307883,0.0002778635
10954,10.1007/s11664-015-4303-6,5134,3(a),6468,x=0.1,Ca0.9Eu0.1Zn2Sb2,341.5,0.000016125,0.00084722,0.00011763,3.0451,0.074126,62015.503875969,0.000278224
10954,10.1007/s11664-015-4303-6,5134,3(a),6468,x=0.1,Ca0.9Eu0.1Zn2Sb2,342,0.00001614,0.00084779,0.00011772,3.0431,0.074653,61957.8686493185,0.0002785942
10954,10.1007/s11664-015-4303-6,5134,3(a),6468,x=0.1,Ca0.9Eu0.1Zn2Sb2,342.5,0.000016155,0.00084836,0.00011781,3.0412,0.075181,61900.3404518725,0.0002789557
10954,10.1007/s11664-015-4303-6,5134,3(a),6468,x=0.1,Ca0.9Eu0.1Zn2Sb2,343,0.000016171,0.00084893,0.00011791,3.0392,0.075709,61839.0946756539,0.0002793268
10954,10.1007/s11664-015-4303-6,5134,3(a),6468,x=0.1,Ca0.9Eu0.1Zn2Sb2,343.5,0.000016186,0.00084949,0.000118,3.0373,0.076236,61781.7867292722,0.0002796859
10954,10.1007/s11664-015-4303-6,5134,3(a),6468,x=0.1,Ca0.9Eu0.1Zn2Sb2,344,0.000016201,0.00085006,0.00011809,3.0353,0.076764,61724.5849021665,0.000280058
10954,10.1007/s11664-015-4303-6,5134,3(a),6468,x=0.1,Ca0.9Eu0.1Zn2Sb2,344.5,0.000016216,0.00085063,0.00011818,3.0334,0.077292,61667.488899852,0.0002804213
10954,10.1007/s11664-015-4303-6,5134,3(a),6468,x=0.1,Ca0.9Eu0.1Zn2Sb2,345,0.000016231,0.0008512,0.00011827,3.0314,0.077819,61610.4984289323,0.0002807944
10954,10.1007/s11664-015-4303-6,5134,3(a),6468,x=0.1,Ca0.9Eu0.1Zn2Sb2,345.5,0.000016246,0.00085177,0.00011837,3.0295,0.078347,61553.6131970947,0.0002811586
10954,10.1007/s11664-015-4303-6,5134,3(a),6468,x=0.1,Ca0.9Eu0.1Zn2Sb2,346,0.000016261,0.00085233,0.00011846,3.0275,0.078875,61496.832913105,0.0002815293
10954,10.1007/s11664-015-4303-6,5134,3(a),6468,x=0.1,Ca0.9Eu0.1Zn2Sb2,346.5,0.000016276,0.0008529,0.00011855,3.0256,0.079402,61440.1572868026,0.0002818945
10954,10.1007/s11664-015-4303-6,5134,3(a),6468,x=0.1,Ca0.9Eu0.1Zn2Sb2,347,0.000016292,0.00085347,0.00011864,3.0236,0.07993,61379.8183157378,0.0002822695
10954,10.1007/s11664-015-4303-6,5134,3(a),6468,x=0.1,Ca0.9Eu0.1Zn2Sb2,347.5,0.000016307,0.00085404,0.00011873,3.0217,0.080458,61323.3580670877,0.0002826356
10954,10.1007/s11664-015-4303-6,5134,3(a),6468,x=0.1,Ca0.9Eu0.1Zn2Sb2,348,0.000016322,0.00085461,0.00011883,3.0197,0.080985,61267.001592942,0.0002830116
10954,10.1007/s11664-015-4303-6,5134,3(a),6468,x=0.1,Ca0.9Eu0.1Zn2Sb2,348.5,0.000016337,0.00085517,0.00011892,3.0178,0.081513,61210.7486074555,0.0002833753
10954,10.1007/s11664-015-4303-6,5134,3(a),6468,x=0.1,Ca0.9Eu0.1Zn2Sb2,349,0.000016352,0.00085574,0.00011901,3.0158,0.082041,61154.5988258317,0.0002837522
10954,10.1007/s11664-015-4303-6,5134,3(a),6468,x=0.1,Ca0.9Eu0.1Zn2Sb2,349.5,0.000016367,0.00085631,0.0001191,3.0139,0.082568,61098.5519643184,0.0002841202
10954,10.1007/s11664-015-4303-6,5134,3(a),6468,x=0.1,Ca0.9Eu0.1Zn2Sb2,350,0.000016382,0.00085688,0.00011919,3.0119,0.083096,61042.6077402027,0.0002844982
10954,10.1007/s11664-015-4303-6,5134,3(a),6468,x=0.1,Ca0.9Eu0.1Zn2Sb2,350.5,0.000016397,0.00085745,0.00011929,3.01,0.083624,60986.7658718058,0.0002848671
10954,10.1007/s11664-015-4303-6,5134,3(a),6468,x=0.1,Ca0.9Eu0.1Zn2Sb2,351,0.000016412,0.00085801,0.00011938,3.008,0.084151,60931.0260784792,0.0002852427
10954,10.1007/s11664-015-4303-6,5134,3(a),6468,x=0.1,Ca0.9Eu0.1Zn2Sb2,351.5,0.000016428,0.00085858,0.00011947,3.006,0.084679,60871.6824933041,0.0002856221
10954,10.1007/s11664-015-4303-6,5134,3(a),6468,x=0.1,Ca0.9Eu0.1Zn2Sb2,352,0.000016443,0.00085915,0.00011956,3.0041,0.085207,60816.1527701758,0.0002859925
10954,10.1007/s11664-015-4303-6,5134,3(a),6468,x=0.1,Ca0.9Eu0.1Zn2Sb2,352.5,0.000016458,0.00085972,0.00011965,3.0021,0.085734,60760.7242678333,0.0002863729
10954,10.1007/s11664-015-4303-6,5134,3(a),6468,x=0.1,Ca0.9Eu0.1Zn2Sb2,353,0.000016473,0.00086029,0.00011974,3.0002,0.086262,60705.3967097675,0.0002867442
10954,10.1007/s11664-015-4303-6,5134,3(a),6468,x=0.1,Ca0.9Eu0.1Zn2Sb2,353.5,0.000016488,0.00086085,0.00011984,2.9982,0.08679,60650.1698204755,0.0002871223
10954,10.1007/s11664-015-4303-6,5134,3(a),6468,x=0.1,Ca0.9Eu0.1Zn2Sb2,354,0.000016503,0.00086142,0.00011993,2.9963,0.087317,60595.043325456,0.0002874946
10954,10.1007/s11664-015-4303-6,5134,3(a),6468,x=0.1,Ca0.9Eu0.1Zn2Sb2,354.5,0.000016518,0.00086199,0.00012002,2.9943,0.087845,60540.0169512047,0.000287877
10954,10.1007/s11664-015-4303-6,5134,3(a),6468,x=0.1,Ca0.9Eu0.1Zn2Sb2,355,0.000016533,0.00086256,0.00012011,2.9924,0.088373,60485.0904252102,0.0002882502
10954,10.1007/s11664-015-4303-6,5134,3(a),6468,x=0.1,Ca0.9Eu0.1Zn2Sb2,355.5,0.000016549,0.00086313,0.0001202,2.9904,0.0889,60426.6118798719,0.0002886336
10954,10.1007/s11664-015-4303-6,5134,3(a),6468,x=0.1,Ca0.9Eu0.1Zn2Sb2,356,0.000016564,0.00086369,0.0001203,2.9885,0.089428,60371.8908476213,0.0002890045
10954,10.1007/s11664-015-4303-6,5134,3(a),6468,x=0.1,Ca0.9Eu0.1Zn2Sb2,356.5,0.000016579,0.00086426,0.00012039,2.9865,0.089955,60317.2688340672,0.0002893889