sid,DOI,figureid,fignum,sampleid,samplename,composition,Temperature,Electrical resistivity,Power factor,Seebeck coefficient,Thermal conductivity,ZT,Electrical conductivity,Figure of merit Z
73,10.1016/j.actamat.2015.04.023,4597,5,5859,x=0.0125,Mg2.9875Na0.0125Sb2,296.5,,,,,-0.0033827,,
73,10.1016/j.actamat.2015.04.023,4591,3(a),5860,x=0.025,Mg2.975Na0.025Sb2,296.5,0.000025866,0.00022561,0.000071689,2.0086,0.0025205,38660.7902265522,0.000112322
73,10.1016/j.actamat.2015.04.023,4591,3(a),5860,x=0.025,Mg2.975Na0.025Sb2,297,0.000025871,0.00022621,0.000071778,2.0076,0.003018,38653.3183873836,0.0001126768
73,10.1016/j.actamat.2015.04.023,4591,3(a),5860,x=0.025,Mg2.975Na0.025Sb2,297.5,0.000025877,0.00022681,0.000071867,2.0066,0.0035155,38644.3559918074,0.000113032
73,10.1016/j.actamat.2015.04.023,4591,3(a),5860,x=0.025,Mg2.975Na0.025Sb2,298,0.000025882,0.0002274,0.000071957,2.0057,0.0040129,38636.8905030523,0.0001133769
73,10.1016/j.actamat.2015.04.023,4591,3(a),5860,x=0.025,Mg2.975Na0.025Sb2,298.5,0.000025887,0.000228,0.000072046,2.0047,0.0045104,38629.4278981728,0.0001137327
73,10.1016/j.actamat.2015.04.023,4591,3(a),5860,x=0.025,Mg2.975Na0.025Sb2,299,0.000025892,0.0002286,0.000072136,2.0037,0.0050079,38621.9681754982,0.0001140889
73,10.1016/j.actamat.2015.04.023,4591,3(a),5860,x=0.025,Mg2.975Na0.025Sb2,299.5,0.000025897,0.00022919,0.000072225,2.0027,0.0055053,38614.5113333591,0.0001144405
73,10.1016/j.actamat.2015.04.023,4591,3(a),5860,x=0.025,Mg2.975Na0.025Sb2,300,0.000025902,0.00022979,0.000072315,2.0017,0.0060028,38607.0573700872,0.0001147974
73,10.1016/j.actamat.2015.04.023,4591,3(a),5860,x=0.025,Mg2.975Na0.025Sb2,300.5,0.000025907,0.00023039,0.000072404,2.0007,0.0065003,38599.6062840159,0.0001151547
73,10.1016/j.actamat.2015.04.023,4591,3(a),5860,x=0.025,Mg2.975Na0.025Sb2,301,0.000025913,0.00023098,0.000072494,1.9998,0.0069977,38590.6687762899,0.0001155016
73,10.1016/j.actamat.2015.04.023,4591,3(a),5860,x=0.025,Mg2.975Na0.025Sb2,301.5,0.000025918,0.00023158,0.000072583,1.9988,0.0074952,38583.2240141986,0.0001158595
73,10.1016/j.actamat.2015.04.023,4591,3(a),5860,x=0.025,Mg2.975Na0.025Sb2,302,0.000025923,0.00023218,0.000072673,1.9978,0.0079927,38575.7821239826,0.0001162178
73,10.1016/j.actamat.2015.04.023,4591,3(a),5860,x=0.025,Mg2.975Na0.025Sb2,302.5,0.000025928,0.00023277,0.000072762,1.9968,0.0084901,38568.3431039803,0.0001165715
73,10.1016/j.actamat.2015.04.023,4591,3(a),5860,x=0.025,Mg2.975Na0.025Sb2,303,0.000025933,0.00023337,0.000072852,1.9958,0.0089876,38560.9069525315,0.0001169306
73,10.1016/j.actamat.2015.04.023,4591,3(a),5860,x=0.025,Mg2.975Na0.025Sb2,303.5,0.000025938,0.00023397,0.000072941,1.9949,0.0094851,38553.4736679775,0.0001172841
73,10.1016/j.actamat.2015.04.023,4591,3(a),5860,x=0.025,Mg2.975Na0.025Sb2,304,0.000025943,0.00023456,0.00007303,1.9939,0.0099825,38546.0432486605,0.0001176388
73,10.1016/j.actamat.2015.04.023,4591,3(a),5860,x=0.025,Mg2.975Na0.025Sb2,304.5,0.000025948,0.00023516,0.00007312,1.9929,0.01048,38538.6156929243,0.0001179989
73,10.1016/j.actamat.2015.04.023,4591,3(a),5860,x=0.025,Mg2.975Na0.025Sb2,305,0.000025954,0.00023576,0.000073209,1.9919,0.010977,38529.7064036372,0.0001183594
73,10.1016/j.actamat.2015.04.023,4591,3(a),5860,x=0.025,Mg2.975Na0.025Sb2,305.5,0.000025959,0.00023635,0.000073299,1.9909,0.011475,38522.2851419546,0.0001187152
73,10.1016/j.actamat.2015.04.023,4591,3(a),5860,x=0.025,Mg2.975Na0.025Sb2,306,0.000025964,0.00023695,0.000073388,1.9899,0.011972,38514.8667385611,0.0001190763
73,10.1016/j.actamat.2015.04.023,4591,3(a),5860,x=0.025,Mg2.975Na0.025Sb2,306.5,0.000025969,0.00023754,0.000073478,1.989,0.01247,38507.4511918056,0.0001194268
73,10.1016/j.actamat.2015.04.023,4591,3(a),5860,x=0.025,Mg2.975Na0.025Sb2,307,0.000025974,0.00023814,0.000073567,1.988,0.012967,38500.0385000385,0.0001197887
73,10.1016/j.actamat.2015.04.023,4591,3(a),5860,x=0.025,Mg2.975Na0.025Sb2,307.5,0.000025979,0.00023874,0.000073657,1.987,0.013465,38492.6286616113,0.000120151
73,10.1016/j.actamat.2015.04.023,4591,3(a),5860,x=0.025,Mg2.975Na0.025Sb2,308,0.000025984,0.00023933,0.000073746,1.986,0.013962,38485.2216748768,0.0001205086
73,10.1016/j.actamat.2015.04.023,4591,3(a),5860,x=0.025,Mg2.975Na0.025Sb2,308.5,0.000025989,0.00023993,0.000073836,1.985,0.01446,38477.8175381892,0.0001208715
73,10.1016/j.actamat.2015.04.023,4591,3(a),5860,x=0.025,Mg2.975Na0.025Sb2,309,0.000025995,0.00024053,0.000073925,1.9841,0.014957,38468.9363339104,0.0001212288
73,10.1016/j.actamat.2015.04.023,4591,3(a),5860,x=0.025,Mg2.975Na0.025Sb2,309.5,0.000026,0.00024112,0.000074015,1.9831,0.015455,38461.5384615385,0.0001215874
73,10.1016/j.actamat.2015.04.023,4591,3(a),5860,x=0.025,Mg2.975Na0.025Sb2,310,0.000026005,0.00024172,0.000074104,1.9821,0.015952,38454.143433955,0.0001219515
73,10.1016/j.actamat.2015.04.023,4591,3(a),5860,x=0.025,Mg2.975Na0.025Sb2,310.5,0.00002601,0.00024232,0.000074193,1.9811,0.01645,38446.7512495194,0.0001223159
73,10.1016/j.actamat.2015.04.023,4591,3(a),5860,x=0.025,Mg2.975Na0.025Sb2,311,0.000026015,0.00024291,0.000074283,1.9801,0.016947,38439.3619065923,0.0001226756
73,10.1016/j.actamat.2015.04.023,4591,3(a),5860,x=0.025,Mg2.975Na0.025Sb2,311.5,0.00002602,0.00024351,0.000074372,1.9792,0.017445,38431.9754035357,0.0001230346
73,10.1016/j.actamat.2015.04.023,4591,3(a),5860,x=0.025,Mg2.975Na0.025Sb2,312,0.000026025,0.00024411,0.000074462,1.9782,0.017942,38424.5917387128,0.0001234001
73,10.1016/j.actamat.2015.04.023,4591,3(a),5860,x=0.025,Mg2.975Na0.025Sb2,312.5,0.00002603,0.0002447,0.000074551,1.9772,0.018439,38417.2109104879,0.0001237609
73,10.1016/j.actamat.2015.04.023,4591,3(a),5860,x=0.025,Mg2.975Na0.025Sb2,313,0.000026036,0.0002453,0.000074641,1.9762,0.018937,38408.3576586265,0.0001241271
73,10.1016/j.actamat.2015.04.023,4591,3(a),5860,x=0.025,Mg2.975Na0.025Sb2,313.5,0.000026041,0.0002459,0.00007473,1.9752,0.019434,38400.9830651665,0.0001244937
73,10.1016/j.actamat.2015.04.023,4591,3(a),5860,x=0.025,Mg2.975Na0.025Sb2,314,0.000026046,0.00024649,0.00007482,1.9742,0.019932,38393.6113030792,0.0001248556
73,10.1016/j.actamat.2015.04.023,4591,3(a),5860,x=0.025,Mg2.975Na0.025Sb2,314.5,0.000026051,0.00024709,0.000074909,1.9733,0.020429,38386.2423707343,0.0001252166
73,10.1016/j.actamat.2015.04.023,4591,3(a),5860,x=0.025,Mg2.975Na0.025Sb2,315,0.000026056,0.00024769,0.000074999,1.9723,0.020927,38378.8762665029,0.0001255843
73,10.1016/j.actamat.2015.04.023,4591,3(a),5860,x=0.025,Mg2.975Na0.025Sb2,315.5,0.000026061,0.00024828,0.000075088,1.9713,0.021424,38371.5129887571,0.0001259473
73,10.1016/j.actamat.2015.04.023,4591,3(a),5860,x=0.025,Mg2.975Na0.025Sb2,316,0.000026066,0.00024888,0.000075178,1.9703,0.021922,38364.1525358705,0.0001263158
73,10.1016/j.actamat.2015.04.023,4591,3(a),5860,x=0.025,Mg2.975Na0.025Sb2,316.5,0.000026072,0.00024948,0.000075267,1.9693,0.022419,38355.3237189322,0.0001266846
73,10.1016/j.actamat.2015.04.023,4591,3(a),5860,x=0.025,Mg2.975Na0.025Sb2,317,0.000026077,0.00025007,0.000075356,1.9684,0.022917,38347.9694750163,0.0001270423
73,10.1016/j.actamat.2015.04.023,4591,3(a),5860,x=0.025,Mg2.975Na0.025Sb2,317.5,0.000026082,0.00025067,0.000075446,1.9674,0.023414,38340.618050763,0.0001274118
73,10.1016/j.actamat.2015.04.023,4591,3(a),5860,x=0.025,Mg2.975Na0.025Sb2,318,0.000026087,0.00025127,0.000075535,1.9664,0.023912,38333.2694445509,0.0001277817
73,10.1016/j.actamat.2015.04.023,4591,3(a),5860,x=0.025,Mg2.975Na0.025Sb2,318.5,0.000026092,0.00025186,0.000075625,1.9654,0.024409,38325.9236547601,0.0001281469
73,10.1016/j.actamat.2015.04.023,4591,3(a),5860,x=0.025,Mg2.975Na0.025Sb2,319,0.000026097,0.00025246,0.000075714,1.9644,0.024907,38318.5806797716,0.0001285176
73,10.1016/j.actamat.2015.04.023,4591,3(a),5860,x=0.025,Mg2.975Na0.025Sb2,319.5,0.000026102,0.00025305,0.000075804,1.9634,0.025404,38311.240517968,0.0001288836
73,10.1016/j.actamat.2015.04.023,4591,3(a),5860,x=0.025,Mg2.975Na0.025Sb2,320,0.000026107,0.00025365,0.000075893,1.9625,0.025901,38303.9031677328,0.0001292484
73,10.1016/j.actamat.2015.04.023,4591,3(a),5860,x=0.025,Mg2.975Na0.025Sb2,320.5,0.000026113,0.00025425,0.000075983,1.9615,0.026399,38295.102056447,0.0001296202
73,10.1016/j.actamat.2015.04.023,4591,3(a),5860,x=0.025,Mg2.975Na0.025Sb2,321,0.000026118,0.00025484,0.000076072,1.9605,0.026896,38287.770885979,0.0001299872
73,10.1016/j.actamat.2015.04.023,4591,3(a),5860,x=0.025,Mg2.975Na0.025Sb2,321.5,0.000026123,0.00025544,0.000076162,1.9595,0.027394,38280.4425219156,0.0001303598
73,10.1016/j.actamat.2015.04.023,4591,3(a),5860,x=0.025,Mg2.975Na0.025Sb2,322,0.000026128,0.00025604,0.000076251,1.9585,0.027891,38273.1169626454,0.0001307327
73,10.1016/j.actamat.2015.04.023,4591,3(a),5860,x=0.025,Mg2.975Na0.025Sb2,322.5,0.000026133,0.00025663,0.000076341,1.9576,0.028389,38265.7942065588,0.0001310942
73,10.1016/j.actamat.2015.04.023,4591,3(a),5860,x=0.025,Mg2.975Na0.025Sb2,323,0.000026138,0.00025723,0.00007643,1.9566,0.028886,38258.4742520468,0.0001314679
73,10.1016/j.actamat.2015.04.023,4591,3(a),5860,x=0.025,Mg2.975Na0.025Sb2,323.5,0.000026143,0.00025783,0.000076519,1.9556,0.029384,38251.1570975022,0.0001318419
73,10.1016/j.actamat.2015.04.023,4591,3(a),5860,x=0.025,Mg2.975Na0.025Sb2,324,0.000026148,0.00025842,0.000076609,1.9546,0.029881,38243.8427413186,0.0001322112
73,10.1016/j.actamat.2015.04.023,4591,3(a),5860,x=0.025,Mg2.975Na0.025Sb2,324.5,0.000026154,0.00025902,0.000076698,1.9536,0.030379,38235.0692054753,0.000132586
73,10.1016/j.actamat.2015.04.023,4591,3(a),5860,x=0.025,Mg2.975Na0.025Sb2,325,0.000026159,0.00025962,0.000076788,1.9526,0.030876,38227.7610000382,0.0001329612
73,10.1016/j.actamat.2015.04.023,4591,3(a),5860,x=0.025,Mg2.975Na0.025Sb2,325.5,0.000026164,0.00026021,0.000076877,1.9517,0.031374,38220.4555878306,0.0001333248
73,10.1016/j.actamat.2015.04.023,4591,3(a),5860,x=0.025,Mg2.975Na0.025Sb2,326,0.000026169,0.00026081,0.000076967,1.9507,0.031871,38213.1529672513,0.0001337007
73,10.1016/j.actamat.2015.04.023,4591,3(a),5860,x=0.025,Mg2.975Na0.025Sb2,326.5,0.000026174,0.00026141,0.000077056,1.9497,0.032369,38205.8531367005,0.000134077
73,10.1016/j.actamat.2015.04.023,4591,3(a),5860,x=0.025,Mg2.975Na0.025Sb2,327,0.000026179,0.000262,0.000077146,1.9487,0.032866,38198.5560945796,0.0001344486
73,10.1016/j.actamat.2015.04.023,4591,3(a),5860,x=0.025,Mg2.975Na0.025Sb2,327.5,0.000026184,0.0002626,0.000077235,1.9477,0.033363,38191.2618392912,0.0001348257
73,10.1016/j.actamat.2015.04.023,4591,3(a),5860,x=0.025,Mg2.975Na0.025Sb2,328,0.00002619,0.0002632,0.000077325,1.9468,0.033861,38182.5124093165,0.0001351962
73,10.1016/j.actamat.2015.04.023,4591,3(a),5860,x=0.025,Mg2.975Na0.025Sb2,328.5,0.000026195,0.00026379,0.000077414,1.9458,0.034358,38175.2242794426,0.0001355689
73,10.1016/j.actamat.2015.04.023,4591,3(a),5860,x=0.025,Mg2.975Na0.025Sb2,329,0.0000262,0.00026439,0.000077504,1.9448,0.034856,38167.9389312977,0.0001359471
73,10.1016/j.actamat.2015.04.023,4591,3(a),5860,x=0.025,Mg2.975Na0.025Sb2,329.5,0.000026205,0.00026499,0.000077593,1.9438,0.035353,38160.6563632894,0.0001363258
73,10.1016/j.actamat.2015.04.023,4591,3(a),5860,x=0.025,Mg2.975Na0.025Sb2,330,0.00002621,0.00026558,0.000077682,1.9428,0.035851,38153.3765738268,0.0001366996
73,10.1016/j.actamat.2015.04.023,4591,3(a),5860,x=0.025,Mg2.975Na0.025Sb2,330.5,0.000026215,0.00026618,0.000077772,1.9419,0.036348,38146.0995613199,0.0001370719
73,10.1016/j.actamat.2015.04.023,4591,3(a),5860,x=0.025,Mg2.975Na0.025Sb2,331,0.00002622,0.00026678,0.000077861,1.9409,0.036846,38138.82532418,0.0001374517
73,10.1016/j.actamat.2015.04.023,4591,3(a),5860,x=0.025,Mg2.975Na0.025Sb2,331.5,0.000026225,0.00026737,0.000077951,1.9399,0.037343,38131.5538608198,0.0001378267
73,10.1016/j.actamat.2015.04.023,4591,3(a),5860,x=0.025,Mg2.975Na0.025Sb2,332,0.000026231,0.00026797,0.00007804,1.9389,0.037841,38122.8317639434,0.0001382072
73,10.1016/j.actamat.2015.04.023,4591,3(a),5860,x=0.025,Mg2.975Na0.025Sb2,332.5,0.000026236,0.00026856,0.00007813,1.9379,0.038338,38115.5663973167,0.000138583
73,10.1016/j.actamat.2015.04.023,4591,3(a),5860,x=0.025,Mg2.975Na0.025Sb2,333,0.000026241,0.00026916,0.000078219,1.9369,0.038836,38108.3037993979,0.0001389643
73,10.1016/j.actamat.2015.04.023,4591,3(a),5860,x=0.025,Mg2.975Na0.025Sb2,333.5,0.000026246,0.00026976,0.000078309,1.936,0.039333,38101.0439686047,0.0001393388
73,10.1016/j.actamat.2015.04.023,4591,3(a),5860,x=0.025,Mg2.975Na0.025Sb2,334,0.000026251,0.00027035,0.000078398,1.935,0.039831,38093.7869033561,0.0001397158
73,10.1016/j.actamat.2015.04.023,4591,3(a),5860,x=0.025,Mg2.975Na0.025Sb2,334.5,0.000026256,0.00027095,0.000078488,1.934,0.040328,38086.5326020719,0.0001400982
73,10.1016/j.actamat.2015.04.023,4591,3(a),5860,x=0.025,Mg2.975Na0.025Sb2,335,0.000026261,0.00027155,0.000078577,1.933,0.040826,38079.2810631735,0.0001404811
73,10.1016/j.actamat.2015.04.023,4591,3(a),5860,x=0.025,Mg2.975Na0.025Sb2,335.5,0.000026266,0.00027214,0.000078667,1.932,0.041323,38072.0322850834,0.0001408592
73,10.1016/j.actamat.2015.04.023,4591,3(a),5860,x=0.025,Mg2.975Na0.025Sb2,336,0.000026272,0.00027274,0.000078756,1.9311,0.04182,38063.3373934227,0.0001412356
73,10.1016/j.actamat.2015.04.023,4591,3(a),5860,x=0.025,Mg2.975Na0.025Sb2,336.5,0.000026277,0.00027334,0.000078845,1.9301,0.042318,38056.0946835636,0.0001416196
73,10.1016/j.actamat.2015.04.023,4591,3(a),5860,x=0.025,Mg2.975Na0.025Sb2,337,0.000026282,0.00027393,0.000078935,1.9291,0.042815,38048.8547294726,0.0001419989
73,10.1016/j.actamat.2015.04.023,4591,3(a),5860,x=0.025,Mg2.975Na0.025Sb2,337.5,0.000026287,0.00027453,0.000079024,1.9281,0.043313,38041.6175295774,0.0001423837
73,10.1016/j.actamat.2015.04.023,4591,3(a),5860,x=0.025,Mg2.975Na0.025Sb2,338,0.000026292,0.00027513,0.000079114,1.9271,0.04381,38034.3830823064,0.0001427689
73,10.1016/j.actamat.2015.04.023,4591,3(a),5860,x=0.025,Mg2.975Na0.025Sb2,338.5,0.000026297,0.00027572,0.000079203,1.9261,0.044308,38027.1513860897,0.0001431494
73,10.1016/j.actamat.2015.04.023,4591,3(a),5860,x=0.025,Mg2.975Na0.025Sb2,339,0.000026302,0.00027632,0.000079293,1.9252,0.044805,38019.9224393582,0.0001435279
73,10.1016/j.actamat.2015.04.023,4591,3(a),5860,x=0.025,Mg2.975Na0.025Sb2,339.5,0.000026307,0.00027692,0.000079382,1.9242,0.045303,38012.6962405443,0.0001439144
73,10.1016/j.actamat.2015.04.023,4591,3(a),5860,x=0.025,Mg2.975Na0.025Sb2,340,0.000026313,0.00027751,0.000079472,1.9232,0.0458,38004.0284270133,0.000144296
73,10.1016/j.actamat.2015.04.023,4591,3(a),5860,x=0.025,Mg2.975Na0.025Sb2,340.5,0.000026318,0.00027811,0.000079561,1.9222,0.046298,37996.8082681055,0.0001446832
73,10.1016/j.actamat.2015.04.023,4591,3(a),5860,x=0.025,Mg2.975Na0.025Sb2,341,0.000026323,0.00027871,0.000079651,1.9212,0.046795,37989.5908521065,0.0001450708
73,10.1016/j.actamat.2015.04.023,4591,3(a),5860,x=0.025,Mg2.975Na0.025Sb2,341.5,0.000026328,0.0002793,0.00007974,1.9203,0.047293,37982.3761774537,0.000145446
73,10.1016/j.actamat.2015.04.023,4591,3(a),5860,x=0.025,Mg2.975Na0.025Sb2,342,0.000026333,0.0002799,0.00007983,1.9193,0.04779,37975.1642425853,0.0001458344
73,10.1016/j.actamat.2015.04.023,4591,3(a),5860,x=0.025,Mg2.975Na0.025Sb2,342.5,0.000026338,0.0002805,0.000079919,1.9183,0.048288,37967.9550459412,0.0001462232
73,10.1016/j.actamat.2015.04.023,4591,3(a),5860,x=0.025,Mg2.975Na0.025Sb2,343,0.000026343,0.00028109,0.000080008,1.9173,0.048785,37960.7485859621,0.0001466072
73,10.1016/j.actamat.2015.04.023,4591,3(a),5860,x=0.025,Mg2.975Na0.025Sb2,343.5,0.000026349,0.00028169,0.000080098,1.9163,0.049282,37952.1044441914,0.0001469968
73,10.1016/j.actamat.2015.04.023,4591,3(a),5860,x=0.025,Mg2.975Na0.025Sb2,344,0.000026354,0.00028229,0.000080187,1.9154,0.04978,37944.9039993929,0.0001473791
73,10.1016/j.actamat.2015.04.023,4591,3(a),5860,x=0.025,Mg2.975Na0.025Sb2,344.5,0.000026359,0.00028288,0.000080277,1.9144,0.050277,37937.7062862779,0.0001477643
73,10.1016/j.actamat.2015.04.023,4591,3(a),5860,x=0.025,Mg2.975Na0.025Sb2,345,0.000026364,0.00028348,0.000080366,1.9134,0.050775,37930.5113032924,0.0001481551
73,10.1016/j.actamat.2015.04.023,4591,3(a),5860,x=0.025,Mg2.975Na0.025Sb2,345.5,0.000026369,0.00028407,0.000080456,1.9124,0.051272,37923.3190488832,0.0001485411
73,10.1016/j.actamat.2015.04.023,4591,3(a),5860,x=0.025,Mg2.975Na0.025Sb2,346,0.000026374,0.00028467,0.000080545,1.9114,0.05177,37916.1295214984,0.0001489327
73,10.1016/j.actamat.2015.04.023,4591,3(a),5860,x=0.025,Mg2.975Na0.025Sb2,346.5,0.000026379,0.00028527,0.000080635,1.9104,0.052267,37908.9427195876,0.0001493247
73,10.1016/j.actamat.2015.04.023,4591,3(a),5860,x=0.025,Mg2.975Na0.025Sb2,347,0.000026384,0.00028586,0.000080724,1.9095,0.052765,37901.758641601,0.0001497041
73,10.1016/j.actamat.2015.04.023,4591,3(a),5860,x=0.025,Mg2.975Na0.025Sb2,347.5,0.00002639,0.00028646,0.000080814,1.9085,0.053262,37893.1413414172,0.0001500969
73,10.1016/j.actamat.2015.04.023,4591,3(a),5860,x=0.025,Mg2.975Na0.025Sb2,348,0.000026395,0.00028706,0.000080903,1.9075,0.05376,37885.9632506156,0.0001504902
73,10.1016/j.actamat.2015.04.023,4591,3(a),5860,x=0.025,Mg2.975Na0.025Sb2,348.5,0.0000264,0.00028765,0.000080993,1.9065,0.054257,37878.7878787879,0.0001508786
73,10.1016/j.actamat.2015.04.023,4591,3(a),5860,x=0.025,Mg2.975Na0.025Sb2,349,0.000026405,0.00028825,0.000081082,1.9055,0.054755,37871.6152243893,0.0001512726
73,10.1016/j.actamat.2015.04.023,4591,3(a),5860,x=0.025,Mg2.975Na0.025Sb2,349.5,0.00002641,0.00028885,0.000081171,1.9046,0.055252,37864.4452858766,0.0001516591
73,10.1016/j.actamat.2015.04.023,4591,3(a),5860,x=0.025,Mg2.975Na0.025Sb2,350,0.000026415,0.00028944,0.000081261,1.9036,0.05575,37857.2780617074,0.0001520487
73,10.1016/j.actamat.2015.04.023,4591,3(a),5860,x=0.025,Mg2.975Na0.025Sb2,350.5,0.00002642,0.00029004,0.00008135,1.9026,0.056247,37850.1135503406,0.000152444
73,10.1016/j.actamat.2015.04.023,4591,3(a),5860,x=0.025,Mg2.975Na0.025Sb2,351,0.000026425,0.00029064,0.00008144,1.9016,0.056744,37842.9517502365,0.0001528397
73,10.1016/j.actamat.2015.04.023,4591,3(a),5860,x=0.025,Mg2.975Na0.025Sb2,351.5,0.000026431,0.00029123,0.000081529,1.9006,0.057242,37834.3611668117,0.0001532306
73,10.1016/j.actamat.2015.04.023,4591,3(a),5860,x=0.025,Mg2.975Na0.025Sb2,352,0.000026436,0.00029183,0.000081619,1.8996,0.057739,37827.2053260705,0.0001536271
73,10.1016/j.actamat.2015.04.023,4591,3(a),5860,x=0.025,Mg2.975Na0.025Sb2,352.5,0.000026441,0.00029243,0.000081708,1.8987,0.058237,37820.052191672,0.0001540159
73,10.1016/j.actamat.2015.04.023,4591,3(a),5860,x=0.025,Mg2.975Na0.025Sb2,353,0.000026446,0.00029302,0.000081798,1.8977,0.058734,37812.9017620812,0.000154408
73,10.1016/j.actamat.2015.04.023,4591,3(a),5860,x=0.025,Mg2.975Na0.025Sb2,353.5,0.000026451,0.00029362,0.000081887,1.8967,0.059232,37805.7540357642,0.0001548057
73,10.1016/j.actamat.2015.04.023,4591,3(a),5860,x=0.025,Mg2.975Na0.025Sb2,354,0.000026456,0.00029422,0.000081977,1.8957,0.059729,37798.6090111884,0.0001552039
73,10.1016/j.actamat.2015.04.023,4591,3(a),5860,x=0.025,Mg2.975Na0.025Sb2,354.5,0.000026461,0.00029481,0.000082066,1.8947,0.060227,37791.4666868221,0.0001555972
73,10.1016/j.actamat.2015.04.023,4591,3(a),5860,x=0.025,Mg2.975Na0.025Sb2,355,0.000026466,0.00029541,0.000082156,1.8938,0.060724,37784.327061135,0.000155988
73,10.1016/j.actamat.2015.04.023,4591,3(a),5860,x=0.025,Mg2.975Na0.025Sb2,355.5,0.000026472,0.00029601,0.000082245,1.8928,0.061222,37775.763070414,0.0001563874
73,10.1016/j.actamat.2015.04.023,4591,3(a),5860,x=0.025,Mg2.975Na0.025Sb2,356,0.000026477,0.0002966,0.000082335,1.8918,0.061719,37768.6293764399,0.0001567819
73,10.1016/j.actamat.2015.04.023,4591,3(a),5860,x=0.025,Mg2.975Na0.025Sb2,356.5,0.000026482,0.0002972,0.000082424,1.8908,0.062217,37761.4983762556,0.0001571821
73,10.1016/j.actamat.2015.04.023,4591,3(a),5860,x=0.025,Mg2.975Na0.025Sb2,357,0.000026487,0.0002978,0.000082513,1.8898,0.062714,37754.3700683354,0.0001575828
73,10.1016/j.actamat.2015.04.023,4591,3(a),5860,x=0.025,Mg2.975Na0.025Sb2,357.5,0.000026492,0.00029839,0.000082603,1.8888,0.063212,37747.2444511551,0.0001579786