sid,DOI,figureid,fignum,sampleid,samplename,composition,Temperature,Electrical resistivity,Power factor,Seebeck coefficient,Thermal conductivity,ZT,Electrical conductivity,Figure of merit Z
10954,10.1007/s11664-015-4303-6,5134,3(a),6471,x=0.9,Ca0.1Eu0.9Zn2Sb2,651,0.000020453,0.001642,0.00018203,1.5992,0.63383,48892.5829951596,0.0010267634
10954,10.1007/s11664-015-4303-6,5134,3(a),6471,x=0.9,Ca0.1Eu0.9Zn2Sb2,651.5,0.000020468,0.0016427,0.00018213,1.5976,0.63466,48856.7520031268,0.0010282298
10954,10.1007/s11664-015-4303-6,5134,3(a),6471,x=0.9,Ca0.1Eu0.9Zn2Sb2,652,0.000020484,0.0016434,0.00018223,1.596,0.63548,48818.5901191174,0.0010296992
10954,10.1007/s11664-015-4303-6,5134,3(a),6471,x=0.9,Ca0.1Eu0.9Zn2Sb2,652.5,0.0000205,0.0016441,0.00018233,1.5944,0.63631,48780.487804878,0.0010311716
10954,10.1007/s11664-015-4303-6,5134,3(a),6471,x=0.9,Ca0.1Eu0.9Zn2Sb2,653,0.000020516,0.0016448,0.00018243,1.5929,0.63713,48742.4449210372,0.0010325821
10954,10.1007/s11664-015-4303-6,5134,3(a),6471,x=0.9,Ca0.1Eu0.9Zn2Sb2,653.5,0.000020532,0.0016455,0.00018253,1.5913,0.63795,48704.4613286577,0.0010340602
10954,10.1007/s11664-015-4303-6,5134,3(a),6471,x=0.9,Ca0.1Eu0.9Zn2Sb2,654,0.000020548,0.0016462,0.00018263,1.5897,0.63878,48666.536889235,0.0010355413
10954,10.1007/s11664-015-4303-6,5134,3(a),6471,x=0.9,Ca0.1Eu0.9Zn2Sb2,654.5,0.000020564,0.0016469,0.00018272,1.5881,0.6396,48628.6714646956,0.0010370254
10954,10.1007/s11664-015-4303-6,5134,3(a),6471,x=0.9,Ca0.1Eu0.9Zn2Sb2,655,0.00002058,0.0016476,0.00018282,1.5865,0.64043,48590.8649173955,0.0010385124
10954,10.1007/s11664-015-4303-6,5134,3(a),6471,x=0.9,Ca0.1Eu0.9Zn2Sb2,655.5,0.000020595,0.0016483,0.00018292,1.585,0.64125,48555.4746297645,0.0010399369
10954,10.1007/s11664-015-4303-6,5134,3(a),6471,x=0.9,Ca0.1Eu0.9Zn2Sb2,656,0.000020611,0.001649,0.00018302,1.5834,0.64207,48517.7817670176,0.0010414298
10954,10.1007/s11664-015-4303-6,5134,3(a),6471,x=0.9,Ca0.1Eu0.9Zn2Sb2,656.5,0.000020627,0.0016497,0.00018312,1.5818,0.6429,48480.147379648,0.0010429258
10954,10.1007/s11664-015-4303-6,5134,3(a),6471,x=0.9,Ca0.1Eu0.9Zn2Sb2,657,0.000020643,0.0016505,0.00018322,1.5802,0.64372,48442.5713316863,0.001044488
10954,10.1007/s11664-015-4303-6,5134,3(a),6471,x=0.9,Ca0.1Eu0.9Zn2Sb2,657.5,0.000020659,0.0016512,0.00018332,1.5786,0.64455,48405.0534875841,0.0010459901
10954,10.1007/s11664-015-4303-6,5134,3(a),6471,x=0.9,Ca0.1Eu0.9Zn2Sb2,658,0.000020675,0.0016519,0.00018342,1.5771,0.64537,48367.5937122128,0.0010474288
10954,10.1007/s11664-015-4303-6,5134,3(a),6471,x=0.9,Ca0.1Eu0.9Zn2Sb2,658.5,0.000020691,0.0016526,0.00018351,1.5755,0.6462,48330.1918708617,0.0010489368
10954,10.1007/s11664-015-4303-6,5134,3(a),6471,x=0.9,Ca0.1Eu0.9Zn2Sb2,659,0.000020707,0.0016533,0.00018361,1.5739,0.64702,48292.8478292365,0.0010504479
10954,10.1007/s11664-015-4303-6,5134,3(a),6471,x=0.9,Ca0.1Eu0.9Zn2Sb2,659.5,0.000020723,0.001654,0.00018371,1.5723,0.64784,48255.5614534575,0.0010519621
10954,10.1007/s11664-015-4303-6,5134,3(a),6471,x=0.9,Ca0.1Eu0.9Zn2Sb2,660,0.000020739,0.0016547,0.00018381,1.5708,0.64867,48218.3326100583,0.0010534123
10954,10.1007/s11664-015-4303-6,5134,3(a),6471,x=0.9,Ca0.1Eu0.9Zn2Sb2,660.5,0.000020755,0.0016554,0.00018391,1.5692,0.64949,48181.1611659841,0.0010549324
10954,10.1007/s11664-015-4303-6,5134,3(a),6471,x=0.9,Ca0.1Eu0.9Zn2Sb2,661,0.000020771,0.0016561,0.00018401,1.5676,0.65032,48144.0469885899,0.0010564557
10954,10.1007/s11664-015-4303-6,5134,3(a),6471,x=0.9,Ca0.1Eu0.9Zn2Sb2,661.5,0.000020787,0.0016568,0.00018411,1.566,0.65114,48106.9899456391,0.0010579821
10954,10.1007/s11664-015-4303-6,5134,3(a),6471,x=0.9,Ca0.1Eu0.9Zn2Sb2,662,0.000020803,0.0016575,0.00018421,1.5644,0.65196,48069.9899053021,0.0010595116
10954,10.1007/s11664-015-4303-6,5134,3(a),6471,x=0.9,Ca0.1Eu0.9Zn2Sb2,662.5,0.000020819,0.0016582,0.0001843,1.5629,0.65279,48033.0467361545,0.0010609764
10954,10.1007/s11664-015-4303-6,5134,3(a),6471,x=0.9,Ca0.1Eu0.9Zn2Sb2,663,0.000020835,0.0016589,0.0001844,1.5613,0.65361,47996.1603071754,0.001062512
10954,10.1007/s11664-015-4303-6,5134,3(a),6471,x=0.9,Ca0.1Eu0.9Zn2Sb2,663.5,0.000020851,0.0016596,0.0001845,1.5597,0.65444,47959.3304877464,0.0010640508
10954,10.1007/s11664-015-4303-6,5134,3(a),6471,x=0.9,Ca0.1Eu0.9Zn2Sb2,664,0.000020867,0.0016603,0.0001846,1.5581,0.65526,47922.5571476494,0.0010655927
10954,10.1007/s11664-015-4303-6,5134,3(a),6471,x=0.9,Ca0.1Eu0.9Zn2Sb2,664.5,0.000020883,0.001661,0.0001847,1.5565,0.65608,47885.8401570656,0.0010671378
10954,10.1007/s11664-015-4303-6,5134,3(a),6471,x=0.9,Ca0.1Eu0.9Zn2Sb2,665,0.000020899,0.0016617,0.0001848,1.555,0.65691,47849.1793865735,0.0010686174
10954,10.1007/s11664-015-4303-6,5134,3(a),6471,x=0.9,Ca0.1Eu0.9Zn2Sb2,665.5,0.000020915,0.0016625,0.0001849,1.5534,0.65773,47812.574707148,0.001070233
10954,10.1007/s11664-015-4303-6,5134,3(a),6471,x=0.9,Ca0.1Eu0.9Zn2Sb2,666,0.000020931,0.0016632,0.000185,1.5518,0.65856,47776.0259901581,0.0010717876
10954,10.1007/s11664-015-4303-6,5134,3(a),6471,x=0.9,Ca0.1Eu0.9Zn2Sb2,666.5,0.000020947,0.0016639,0.00018509,1.5502,0.65938,47739.5331073662,0.0010733454
10954,10.1007/s11664-015-4303-6,5134,3(a),6471,x=0.9,Ca0.1Eu0.9Zn2Sb2,667,0.000020963,0.0016646,0.00018519,1.5486,0.6602,47703.0959309259,0.0010749064
10954,10.1007/s11664-015-4303-6,5134,3(a),6471,x=0.9,Ca0.1Eu0.9Zn2Sb2,667.5,0.00002098,0.0016653,0.00018529,1.5471,0.66103,47664.4423260248,0.001076401
10954,10.1007/s11664-015-4303-6,5134,3(a),6471,x=0.9,Ca0.1Eu0.9Zn2Sb2,668,0.000020996,0.001666,0.00018539,1.5455,0.66185,47628.1196418365,0.0010779683
10954,10.1007/s11664-015-4303-6,5134,3(a),6471,x=0.9,Ca0.1Eu0.9Zn2Sb2,668.5,0.000021012,0.0016667,0.00018549,1.5439,0.66268,47591.8522748905,0.0010795388
10954,10.1007/s11664-015-4303-6,5134,3(a),6471,x=0.9,Ca0.1Eu0.9Zn2Sb2,669,0.000021028,0.0016674,0.00018559,1.5423,0.6635,47555.6400989157,0.0010811126
10954,10.1007/s11664-015-4303-6,5134,3(a),6471,x=0.9,Ca0.1Eu0.9Zn2Sb2,669.5,0.000021044,0.0016681,0.00018569,1.5408,0.66433,47519.4829880251,0.0010826194
10954,10.1007/s11664-015-4303-6,5134,3(a),6471,x=0.9,Ca0.1Eu0.9Zn2Sb2,670,0.00002106,0.0016688,0.00018579,1.5392,0.66515,47483.3808167141,0.0010841996
10954,10.1007/s11664-015-4303-6,5134,3(a),6471,x=0.9,Ca0.1Eu0.9Zn2Sb2,670.5,0.000021076,0.0016695,0.00018588,1.5376,0.66597,47447.3334598596,0.001085783
10954,10.1007/s11664-015-4303-6,5134,3(a),6471,x=0.9,Ca0.1Eu0.9Zn2Sb2,671,0.000021092,0.0016702,0.00018598,1.536,0.6668,47411.3407927176,0.0010873698
10954,10.1007/s11664-015-4303-6,5134,3(a),6471,x=0.9,Ca0.1Eu0.9Zn2Sb2,671.5,0.000021109,0.0016709,0.00018608,1.5344,0.66762,47373.1583684684,0.0010889599
10954,10.1007/s11664-015-4303-6,5134,3(a),6471,x=0.9,Ca0.1Eu0.9Zn2Sb2,672,0.000021125,0.0016716,0.00018618,1.5329,0.66845,47337.2781065089,0.0010904821
10954,10.1007/s11664-015-4303-6,5134,3(a),6471,x=0.9,Ca0.1Eu0.9Zn2Sb2,672.5,0.000021141,0.0016723,0.00018628,1.5313,0.66927,47301.4521545811,0.0010920786
10954,10.1007/s11664-015-4303-6,5134,3(a),6471,x=0.9,Ca0.1Eu0.9Zn2Sb2,673,0.000021157,0.001673,0.00018638,1.5297,0.67009,47265.6803894692,0.0010936785
10954,10.1007/s11664-015-4303-6,5134,3(a),6471,x=0.9,Ca0.1Eu0.9Zn2Sb2,673.5,0.000021173,0.0016737,0.00018648,1.5281,0.67092,47229.9626883295,0.0010952817
10954,10.1007/s11664-015-4303-6,5134,3(a),6471,x=0.9,Ca0.1Eu0.9Zn2Sb2,674,0.00002119,0.0016745,0.00018658,1.5265,0.67174,47192.071731949,0.0010969538
10954,10.1007/s11664-015-4303-6,5134,3(a),6471,x=0.9,Ca0.1Eu0.9Zn2Sb2,674.5,0.000021206,0.0016752,0.00018667,1.525,0.67257,47156.4651513723,0.0010984918
10954,10.1007/s11664-015-4303-6,5134,3(a),6471,x=0.9,Ca0.1Eu0.9Zn2Sb2,675,0.000021222,0.0016759,0.00018677,1.5234,0.67339,47120.9122608614,0.001100105
10954,10.1007/s11664-015-4303-6,5134,3(a),6471,x=0.9,Ca0.1Eu0.9Zn2Sb2,675.5,0.000021238,0.0016766,0.00018687,1.5218,0.67421,47085.4129390715,0.0011017216
10954,10.1007/s11664-015-4303-6,5134,3(a),6471,x=0.9,Ca0.1Eu0.9Zn2Sb2,676,0.000021254,0.0016773,0.00018697,1.5202,0.67504,47049.9670650231,0.0011033417
10954,10.1007/s11664-015-4303-6,5134,3(a),6471,x=0.9,Ca0.1Eu0.9Zn2Sb2,676.5,0.000021271,0.001678,0.00018707,1.5187,0.67586,47012.3642517982,0.0011048923
10954,10.1007/s11664-015-4303-6,5134,3(a),6471,x=0.9,Ca0.1Eu0.9Zn2Sb2,677,0.000021287,0.0016787,0.00018717,1.5171,0.67669,46977.028233194,0.001106519
10954,10.1007/s11664-015-4303-6,5134,3(a),6471,x=0.9,Ca0.1Eu0.9Zn2Sb2,677.5,0.000021303,0.0016794,0.00018727,1.5155,0.67751,46941.74529409,0.0011081491
10954,10.1007/s11664-015-4303-6,5134,3(a),6471,x=0.9,Ca0.1Eu0.9Zn2Sb2,678,0.000021319,0.0016801,0.00018736,1.5139,0.67833,46906.5153149773,0.0011097827
10954,10.1007/s11664-015-4303-6,5134,3(a),6471,x=0.9,Ca0.1Eu0.9Zn2Sb2,678.5,0.000021336,0.0016808,0.00018746,1.5123,0.67916,46869.1413573303,0.0011114197
10954,10.1007/s11664-015-4303-6,5134,3(a),6471,x=0.9,Ca0.1Eu0.9Zn2Sb2,679,0.000021352,0.0016815,0.00018756,1.5108,0.67998,46834.0202322967,0.0011129865
10954,10.1007/s11664-015-4303-6,5134,3(a),6471,x=0.9,Ca0.1Eu0.9Zn2Sb2,679.5,0.000021368,0.0016822,0.00018766,1.5092,0.68081,46798.9517034818,0.0011146303
10954,10.1007/s11664-015-4303-6,5134,3(a),6471,x=0.9,Ca0.1Eu0.9Zn2Sb2,680,0.000021385,0.0016829,0.00018776,1.5076,0.68163,46761.7488894085,0.0011162775
10954,10.1007/s11664-015-4303-6,5134,3(a),6471,x=0.9,Ca0.1Eu0.9Zn2Sb2,680.5,0.000021401,0.0016836,0.00018786,1.506,0.68246,46726.7884678286,0.0011179283
10954,10.1007/s11664-015-4303-6,5134,3(a),6471,x=0.9,Ca0.1Eu0.9Zn2Sb2,681,0.000021417,0.0016843,0.00018796,1.5044,0.68328,46691.880282019,0.0011195826
10954,10.1007/s11664-015-4303-6,5134,3(a),6471,x=0.9,Ca0.1Eu0.9Zn2Sb2,681.5,0.000021433,0.001685,0.00018806,1.5029,0.6841,46657.0242149956,0.0011211657
10954,10.1007/s11664-015-4303-6,5134,3(a),6471,x=0.9,Ca0.1Eu0.9Zn2Sb2,682,0.00002145,0.0016857,0.00018815,1.5013,0.68493,46620.0466200466,0.0011228269
10954,10.1007/s11664-015-4303-6,5134,3(a),6471,x=0.9,Ca0.1Eu0.9Zn2Sb2,682.5,0.000021466,0.0016865,0.00018825,1.4997,0.68575,46585.2976800522,0.0011245582
10954,10.1007/s11664-015-4303-6,5134,3(a),6471,x=0.9,Ca0.1Eu0.9Zn2Sb2,683,0.000021482,0.0016872,0.00018835,1.4981,0.68658,46550.6005027465,0.0011262266
10954,10.1007/s11664-015-4303-6,5134,3(a),6471,x=0.9,Ca0.1Eu0.9Zn2Sb2,683.5,0.000021499,0.0016879,0.00018845,1.4965,0.6874,46513.7913391321,0.0011278984
10954,10.1007/s11664-015-4303-6,5134,3(a),6471,x=0.9,Ca0.1Eu0.9Zn2Sb2,684,0.000021515,0.0016886,0.00018855,1.495,0.68822,46479.2005577504,0.0011294983
10954,10.1007/s11664-015-4303-6,5134,3(a),6471,x=0.9,Ca0.1Eu0.9Zn2Sb2,684.5,0.000021532,0.0016893,0.00018865,1.4934,0.68905,46442.5041798254,0.0011311772
10954,10.1007/s11664-015-4303-6,5134,3(a),6471,x=0.9,Ca0.1Eu0.9Zn2Sb2,685,0.000021548,0.00169,0.00018875,1.4918,0.68987,46408.019305736,0.0011328596
10954,10.1007/s11664-015-4303-6,5134,3(a),6471,x=0.9,Ca0.1Eu0.9Zn2Sb2,685.5,0.000021564,0.0016907,0.00018885,1.4902,0.6907,46373.585605639,0.0011345457
10954,10.1007/s11664-015-4303-6,5134,3(a),6471,x=0.9,Ca0.1Eu0.9Zn2Sb2,686,0.000021581,0.0016914,0.00018894,1.4887,0.69152,46337.0557434781,0.0011361591
10954,10.1007/s11664-015-4303-6,5134,3(a),6471,x=0.9,Ca0.1Eu0.9Zn2Sb2,686.5,0.000021597,0.0016921,0.00018904,1.4871,0.69234,46302.7272306339,0.0011378522
10954,10.1007/s11664-015-4303-6,5134,3(a),6471,x=0.9,Ca0.1Eu0.9Zn2Sb2,687,0.000021613,0.0016928,0.00018914,1.4855,0.69317,46268.4495442558,0.001139549
10954,10.1007/s11664-015-4303-6,5134,3(a),6471,x=0.9,Ca0.1Eu0.9Zn2Sb2,687.5,0.00002163,0.0016935,0.00018924,1.4839,0.69399,46232.0850670365,0.0011412494
10954,10.1007/s11664-015-4303-6,5134,3(a),6471,x=0.9,Ca0.1Eu0.9Zn2Sb2,688,0.000021646,0.0016942,0.00018934,1.4823,0.69482,46197.9118543842,0.0011429535
10954,10.1007/s11664-015-4303-6,5134,3(a),6471,x=0.9,Ca0.1Eu0.9Zn2Sb2,688.5,0.000021663,0.0016949,0.00018944,1.4808,0.69564,46161.6581267599,0.001144584
10954,10.1007/s11664-015-4303-6,5134,3(a),6471,x=0.9,Ca0.1Eu0.9Zn2Sb2,689,0.000021679,0.0016956,0.00018954,1.4792,0.69646,46127.5889109276,0.0011462953
10954,10.1007/s11664-015-4303-6,5134,3(a),6471,x=0.9,Ca0.1Eu0.9Zn2Sb2,689.5,0.000021696,0.0016963,0.00018964,1.4776,0.69729,46091.4454277286,0.0011480103
10954,10.1007/s11664-015-4303-6,5134,3(a),6471,x=0.9,Ca0.1Eu0.9Zn2Sb2,690,0.000021712,0.001697,0.00018973,1.476,0.69811,46057.4797347089,0.001149729
10954,10.1007/s11664-015-4303-6,5134,3(a),6471,x=0.9,Ca0.1Eu0.9Zn2Sb2,690.5,0.000021728,0.0016977,0.00018983,1.4744,0.69894,46023.5640648012,0.0011514514
10954,10.1007/s11664-015-4303-6,5134,3(a),6471,x=0.9,Ca0.1Eu0.9Zn2Sb2,691,0.000021745,0.0016985,0.00018993,1.4729,0.69976,45987.5833524948,0.0011531672
10954,10.1007/s11664-015-4303-6,5134,3(a),6471,x=0.9,Ca0.1Eu0.9Zn2Sb2,691.5,0.000021761,0.0016992,0.00019003,1.4713,0.70059,45953.7705068701,0.001154897
10954,10.1007/s11664-015-4303-6,5134,3(a),6471,x=0.9,Ca0.1Eu0.9Zn2Sb2,692,0.000021778,0.0016999,0.00019013,1.4697,0.70141,45917.898796951,0.0011566306
10954,10.1007/s11664-015-4303-6,5134,3(a),6471,x=0.9,Ca0.1Eu0.9Zn2Sb2,692.5,0.000021794,0.0017006,0.00019023,1.4681,0.70223,45884.1883087088,0.001158368
10954,10.1007/s11664-015-4303-6,5134,3(a),6471,x=0.9,Ca0.1Eu0.9Zn2Sb2,693,0.000021811,0.0017013,0.00019033,1.4666,0.70306,45848.4251065976,0.00116003
10954,10.1007/s11664-015-4303-6,5134,3(a),6471,x=0.9,Ca0.1Eu0.9Zn2Sb2,693.5,0.000021827,0.001702,0.00019043,1.465,0.70388,45814.8165116599,0.0011617747
10954,10.1007/s11664-015-4303-6,5134,3(a),6471,x=0.9,Ca0.1Eu0.9Zn2Sb2,694,0.000021844,0.0017027,0.00019052,1.4634,0.70471,45779.1613257645,0.0011635233
10954,10.1007/s11664-015-4303-6,5134,3(a),6471,x=0.9,Ca0.1Eu0.9Zn2Sb2,694.5,0.00002186,0.0017034,0.00019062,1.4618,0.70553,45745.6541628545,0.0011652757
10954,10.1007/s11664-015-4303-6,5134,3(a),6471,x=0.9,Ca0.1Eu0.9Zn2Sb2,695,0.000021877,0.0017041,0.00019072,1.4602,0.70635,45710.1065045482,0.0011670319
10954,10.1007/s11664-015-4303-6,5134,3(a),6471,x=0.9,Ca0.1Eu0.9Zn2Sb2,695.5,0.000021894,0.0017048,0.00019082,1.4587,0.70718,45674.6140495113,0.0011687119
10954,10.1007/s11664-015-4303-6,5134,3(a),6471,x=0.9,Ca0.1Eu0.9Zn2Sb2,696,0.00002191,0.0017055,0.00019092,1.4571,0.708,45641.2596987677,0.0011704756
10954,10.1007/s11664-015-4303-6,5134,3(a),6471,x=0.9,Ca0.1Eu0.9Zn2Sb2,696.5,0.000021927,0.0017062,0.00019102,1.4555,0.70883,45605.8740365759,0.0011722432
10954,10.1007/s11664-015-4303-6,5134,3(a),6471,x=0.9,Ca0.1Eu0.9Zn2Sb2,697,0.000021943,0.0017069,0.00019112,1.4539,0.70965,45572.6199699221,0.0011740147
10954,10.1007/s11664-015-4303-6,5134,3(a),6471,x=0.9,Ca0.1Eu0.9Zn2Sb2,697.5,0.00002196,0.0017076,0.00019122,1.4523,0.71047,45537.3406193078,0.0011757901
10954,10.1007/s11664-015-4303-6,5134,3(a),6471,x=0.9,Ca0.1Eu0.9Zn2Sb2,698,0.000021976,0.0017083,0.00019131,1.4508,0.7113,45504.1863851474,0.0011774883
10954,10.1007/s11664-015-4303-6,5134,3(a),6471,x=0.9,Ca0.1Eu0.9Zn2Sb2,698.5,0.000021993,0.001709,0.00019141,1.4492,0.71212,45469.0128677306,0.0011792713
10954,10.1007/s11664-015-4303-6,5134,3(a),6471,x=0.9,Ca0.1Eu0.9Zn2Sb2,699,0.000022009,0.0017097,0.00019151,1.4476,0.71295,45435.9580171748,0.0011810583
10954,10.1007/s11664-015-4303-6,5134,3(a),6471,x=0.9,Ca0.1Eu0.9Zn2Sb2,699.5,0.000022026,0.0017105,0.00019161,1.446,0.71377,45400.8898574412,0.0011829184
10954,10.1007/s11664-015-4303-6,5134,3(a),6471,x=0.9,Ca0.1Eu0.9Zn2Sb2,700,0.000022043,0.0017112,0.00019171,1.4444,0.71459,45365.8757882321,0.0011847134
10954,10.1007/s11664-015-4303-6,5134,3(a),6471,x=0.9,Ca0.1Eu0.9Zn2Sb2,700.5,0.000022059,0.0017119,0.00019181,1.4429,0.71542,45332.970669568,0.0011864301
10954,10.1007/s11664-015-4303-6,5134,3(a),6471,x=0.9,Ca0.1Eu0.9Zn2Sb2,701,0.000022076,0.0017126,0.00019191,1.4413,0.71624,45298.0612429788,0.0011882328
10954,10.1007/s11664-015-4303-6,5134,3(a),6471,x=0.9,Ca0.1Eu0.9Zn2Sb2,701.5,0.000022093,0.0017133,0.00019201,1.4397,0.71707,45263.2055402164,0.0011900396
10954,10.1007/s11664-015-4303-6,5134,3(a),6471,x=0.9,Ca0.1Eu0.9Zn2Sb2,702,0.000022109,0.001714,0.0001921,1.4381,0.71789,45230.4491383599,0.0011918504
10954,10.1007/s11664-015-4303-6,5134,3(a),6471,x=0.9,Ca0.1Eu0.9Zn2Sb2,702.5,0.000022126,0.0017147,0.0001922,1.4366,0.71872,45195.6973696104,0.0011935821
10954,10.1007/s11664-015-4303-6,5134,3(a),6471,x=0.9,Ca0.1Eu0.9Zn2Sb2,703,0.000022142,0.0017154,0.0001923,1.435,0.71954,45163.0385692349,0.0011954007
10954,10.1007/s11664-015-4303-6,5134,3(a),6471,x=0.9,Ca0.1Eu0.9Zn2Sb2,703.5,0.000022159,0.0017161,0.0001924,1.4334,0.72036,45128.3902703191,0.0011972234
10954,10.1007/s11664-015-4303-6,5134,3(a),6471,x=0.9,Ca0.1Eu0.9Zn2Sb2,704,0.000022176,0.0017168,0.0001925,1.4318,0.72119,45093.7950937951,0.0011990501
10954,10.1007/s11664-015-4303-6,5134,3(a),6471,x=0.9,Ca0.1Eu0.9Zn2Sb2,704.5,0.000022192,0.0017175,0.0001926,1.4302,0.72201,45061.2833453497,0.001200881
10954,10.1007/s11664-015-4303-6,5134,3(a),6471,x=0.9,Ca0.1Eu0.9Zn2Sb2,705,0.000022209,0.0017182,0.0001927,1.4287,0.72284,45026.7909406097,0.0012026318
10954,10.1007/s11664-015-4303-6,5134,3(a),6471,x=0.9,Ca0.1Eu0.9Zn2Sb2,705.5,0.000022226,0.0017189,0.0001928,1.4271,0.72366,44992.351300279,0.0012044706
10954,10.1007/s11664-015-4303-6,5134,3(a),6471,x=0.9,Ca0.1Eu0.9Zn2Sb2,706,0.000022243,0.0017196,0.00019289,1.4255,0.72448,44957.9643033763,0.0012063136
10954,10.1007/s11664-015-4303-6,5134,3(a),6471,x=0.9,Ca0.1Eu0.9Zn2Sb2,706.5,0.000022259,0.0017203,0.00019299,1.4239,0.72531,44925.6480524732,0.0012081607
10954,10.1007/s11664-015-4303-6,5134,3(a),6471,x=0.9,Ca0.1Eu0.9Zn2Sb2,707,0.000022276,0.001721,0.00019309,1.4223,0.72613,44891.3629017777,0.001210012
10954,10.1007/s11664-015-4303-6,5134,3(a),6471,x=0.9,Ca0.1Eu0.9Zn2Sb2,707.5,0.000022293,0.0017217,0.00019319,1.4208,0.72696,44857.13004082,0.0012117821
10954,10.1007/s11664-015-4303-6,5134,3(a),6471,x=0.9,Ca0.1Eu0.9Zn2Sb2,708,0.000022309,0.0017225,0.00019329,1.4192,0.72778,44824.9585369134,0.001213712
10954,10.1007/s11664-015-4303-6,5134,3(a),6471,x=0.9,Ca0.1Eu0.9Zn2Sb2,708.5,0.000022326,0.0017232,0.00019339,1.4176,0.7286,44790.8268386634,0.0012155756
10954,10.1007/s11664-015-4303-6,5134,3(a),6471,x=0.9,Ca0.1Eu0.9Zn2Sb2,709,0.000022343,0.0017239,0.00019349,1.416,0.72943,44756.7470796223,0.0012174435
10954,10.1007/s11664-015-4303-6,5134,3(a),6471,x=0.9,Ca0.1Eu0.9Zn2Sb2,709.5,0.00002236,0.0017246,0.00019359,1.4145,0.73025,44722.7191413238,0.0012192294
10954,10.1007/s11664-015-4303-6,5134,3(a),6471,x=0.9,Ca0.1Eu0.9Zn2Sb2,710,0.000022376,0.0017253,0.00019368,1.4129,0.73108,44690.7400786557,0.0012211055
10954,10.1007/s11664-015-4303-6,5134,3(a),6471,x=0.9,Ca0.1Eu0.9Zn2Sb2,710.5,0.000022393,0.001726,0.00019378,1.4113,0.7319,44656.8123967311,0.0012229859
10954,10.1007/s11664-015-4303-6,5134,3(a),6471,x=0.9,Ca0.1Eu0.9Zn2Sb2,711,0.00002241,0.0017267,0.00019388,1.4097,0.73272,44622.9361892012,0.0012248705
10954,10.1007/s11664-015-4303-6,5134,3(a),6471,x=0.9,Ca0.1Eu0.9Zn2Sb2,711.5,0.000022427,0.0017274,0.00019398,1.4081,0.73355,44589.111339011,0.0012267595
10954,10.1007/s11664-015-4303-6,5134,3(a),6471,x=0.9,Ca0.1Eu0.9Zn2Sb2,712,0.000022444,0.0017281,0.00019408,1.4066,0.73437,44555.33772946,0.0012285653
10954,10.1007/s11664-015-4303-6,5134,3(a),6471,x=0.9,Ca0.1Eu0.9Zn2Sb2,712.5,0.00002246,0.0017288,0.00019418,1.405,0.7352,44523.5975066785,0.0012304626
10954,10.1007/s11664-015-4303-6,5134,3(a),6471,x=0.9,Ca0.1Eu0.9Zn2Sb2,713,0.000022477,0.0017295,0.00019428,1.4034,0.73602,44489.9230324332,0.0012323643
10954,10.1007/s11664-015-4303-6,5134,3(a),6471,x=0.9,Ca0.1Eu0.9Zn2Sb2,713.5,0.000022494,0.0017302,0.00019438,1.4018,0.73685,44456.2994576331,0.0012342702
10954,10.1007/s11664-015-4303-6,5134,3(a),6471,x=0.9,Ca0.1Eu0.9Zn2Sb2,714,0.000022511,0.0017309,0.00019447,1.4002,0.73767,44422.7266669628,0.0012361805
10954,10.1007/s11664-015-4303-6,5134,3(a),6471,x=0.9,Ca0.1Eu0.9Zn2Sb2,714.5,0.000022528,0.0017316,0.00019457,1.3987,0.73849,44389.2045454546,0.0012380067
10954,10.1007/s11664-015-4303-6,5134,3(a),6471,x=0.9,Ca0.1Eu0.9Zn2Sb2,715,0.000022545,0.0017323,0.00019467,1.3971,0.73932,44355.7329784875,0.0012399256
10954,10.1007/s11664-015-4303-6,5134,3(a),6471,x=0.9,Ca0.1Eu0.9Zn2Sb2,715.5,0.000022561,0.001733,0.00019477,1.3955,0.74014,44324.2764061877,0.0012418488