sid,DOI,figureid,fignum,sampleid,samplename,composition,Temperature,Electrical resistivity,Power factor,Seebeck coefficient,Thermal conductivity,ZT,Electrical conductivity,Figure of merit Z
73,10.1016/j.actamat.2015.04.023,4591,3(a),5860,x=0.025,Mg2.975Na0.025Sb2,358,0.000026497,0.00029899,0.000082692,1.8879,0.063709,37740.1215231913,0.0001583717
73,10.1016/j.actamat.2015.04.023,4591,3(a),5860,x=0.025,Mg2.975Na0.025Sb2,358.5,0.000026502,0.00029958,0.000082782,1.8869,0.064206,37733.001282922,0.0001587684
73,10.1016/j.actamat.2015.04.023,4591,3(a),5860,x=0.025,Mg2.975Na0.025Sb2,359,0.000026508,0.00030018,0.000082871,1.8859,0.064704,37724.4605402143,0.0001591707
73,10.1016/j.actamat.2015.04.023,4591,3(a),5860,x=0.025,Mg2.975Na0.025Sb2,359.5,0.000026513,0.00030078,0.000082961,1.8849,0.065201,37717.3462075208,0.0001595735
73,10.1016/j.actamat.2015.04.023,4591,3(a),5860,x=0.025,Mg2.975Na0.025Sb2,360,0.000026518,0.00030137,0.00008305,1.8839,0.065699,37710.234557659,0.0001599713
73,10.1016/j.actamat.2015.04.023,4591,3(a),5860,x=0.025,Mg2.975Na0.025Sb2,360.5,0.000026523,0.00030197,0.00008314,1.883,0.066196,37703.1255891113,0.0001603664
73,10.1016/j.actamat.2015.04.023,4591,3(a),5860,x=0.025,Mg2.975Na0.025Sb2,361,0.000026528,0.00030257,0.000083229,1.882,0.066694,37696.0193003619,0.0001607705
73,10.1016/j.actamat.2015.04.023,4591,3(a),5860,x=0.025,Mg2.975Na0.025Sb2,361.5,0.000026533,0.00030316,0.000083319,1.881,0.067191,37688.9156898956,0.0001611696
73,10.1016/j.actamat.2015.04.023,4591,3(a),5860,x=0.025,Mg2.975Na0.025Sb2,362,0.000026538,0.00030376,0.000083408,1.88,0.067689,37681.8147561987,0.0001615745
73,10.1016/j.actamat.2015.04.023,4591,3(a),5860,x=0.025,Mg2.975Na0.025Sb2,362.5,0.000026543,0.00030436,0.000083498,1.879,0.068186,37674.7164977584,0.0001619798
73,10.1016/j.actamat.2015.04.023,4591,3(a),5860,x=0.025,Mg2.975Na0.025Sb2,363,0.000026549,0.00030495,0.000083587,1.8781,0.068684,37666.2021168406,0.0001623715
73,10.1016/j.actamat.2015.04.023,4591,3(a),5860,x=0.025,Mg2.975Na0.025Sb2,363.5,0.000026554,0.00030555,0.000083676,1.8771,0.069181,37659.1097386458,0.0001627777
73,10.1016/j.actamat.2015.04.023,4591,3(a),5860,x=0.025,Mg2.975Na0.025Sb2,364,0.000026559,0.00030615,0.000083766,1.8761,0.069679,37652.0200308747,0.0001631843
73,10.1016/j.actamat.2015.04.023,4591,3(a),5860,x=0.025,Mg2.975Na0.025Sb2,364.5,0.000026564,0.00030674,0.000083855,1.8751,0.070176,37644.9329920193,0.0001635859
73,10.1016/j.actamat.2015.04.023,4591,3(a),5860,x=0.025,Mg2.975Na0.025Sb2,365,0.000026569,0.00030734,0.000083945,1.8741,0.070674,37637.8486205728,0.0001639934
73,10.1016/j.actamat.2015.04.023,4591,3(a),5860,x=0.025,Mg2.975Na0.025Sb2,365.5,0.000026574,0.00030794,0.000084034,1.8731,0.071171,37630.7669150297,0.0001644013
73,10.1016/j.actamat.2015.04.023,4591,3(a),5860,x=0.025,Mg2.975Na0.025Sb2,366,0.000026579,0.00030853,0.000084124,1.8722,0.071668,37623.6878738854,0.0001647954
73,10.1016/j.actamat.2015.04.023,4591,3(a),5860,x=0.025,Mg2.975Na0.025Sb2,366.5,0.000026584,0.00030913,0.000084213,1.8712,0.072166,37616.6114956365,0.0001652041
73,10.1016/j.actamat.2015.04.023,4591,3(a),5860,x=0.025,Mg2.975Na0.025Sb2,367,0.00002659,0.00030973,0.000084303,1.8702,0.072663,37608.1233546446,0.0001656133
73,10.1016/j.actamat.2015.04.023,4591,3(a),5860,x=0.025,Mg2.975Na0.025Sb2,367.5,0.000026595,0.00031032,0.000084392,1.8692,0.073161,37601.0528294792,0.0001660175
73,10.1016/j.actamat.2015.04.023,4591,3(a),5860,x=0.025,Mg2.975Na0.025Sb2,368,0.0000266,0.00031092,0.000084482,1.8682,0.073658,37593.984962406,0.0001664276
73,10.1016/j.actamat.2015.04.023,4591,3(a),5860,x=0.025,Mg2.975Na0.025Sb2,368.5,0.000026605,0.00031152,0.000084571,1.8673,0.074156,37586.9197519263,0.0001668291
73,10.1016/j.actamat.2015.04.023,4591,3(a),5860,x=0.025,Mg2.975Na0.025Sb2,369,0.00002661,0.00031211,0.000084661,1.8663,0.074653,37579.8571965427,0.0001672346
73,10.1016/j.actamat.2015.04.023,4591,3(a),5860,x=0.025,Mg2.975Na0.025Sb2,369.5,0.000026615,0.00031271,0.00008475,1.8653,0.075151,37572.7972947586,0.000167646
73,10.1016/j.actamat.2015.04.023,4591,3(a),5860,x=0.025,Mg2.975Na0.025Sb2,370,0.00002662,0.00031331,0.000084839,1.8643,0.075648,37565.7400450789,0.0001680577
73,10.1016/j.actamat.2015.04.023,4591,3(a),5860,x=0.025,Mg2.975Na0.025Sb2,370.5,0.000026625,0.0003139,0.000084929,1.8633,0.076146,37558.6854460094,0.0001684646
73,10.1016/j.actamat.2015.04.023,4591,3(a),5860,x=0.025,Mg2.975Na0.025Sb2,371,0.000026631,0.0003145,0.000085018,1.8623,0.076643,37550.2234238294,0.0001688772
73,10.1016/j.actamat.2015.04.023,4591,3(a),5860,x=0.025,Mg2.975Na0.025Sb2,371.5,0.000026636,0.00031509,0.000085108,1.8614,0.077141,37543.1746508485,0.0001692758
73,10.1016/j.actamat.2015.04.023,4591,3(a),5860,x=0.025,Mg2.975Na0.025Sb2,372,0.000026641,0.00031569,0.000085197,1.8604,0.077638,37536.1285237041,0.0001696893
73,10.1016/j.actamat.2015.04.023,4591,3(a),5860,x=0.025,Mg2.975Na0.025Sb2,372.5,0.000026646,0.00031629,0.000085287,1.8594,0.078136,37529.0850409067,0.0001701033
73,10.1016/j.actamat.2015.04.023,4591,3(a),5860,x=0.025,Mg2.975Na0.025Sb2,373,0.000026651,0.00031688,0.000085376,1.8584,0.078633,37522.0442009681,0.0001705123
73,10.1016/j.actamat.2015.04.023,4591,3(a),5860,x=0.025,Mg2.975Na0.025Sb2,373.5,0.000026656,0.00031748,0.000085466,1.8574,0.07913,37515.006002401,0.0001709271
73,10.1016/j.actamat.2015.04.023,4591,3(a),5860,x=0.025,Mg2.975Na0.025Sb2,374,0.000026661,0.00031808,0.000085555,1.8565,0.079628,37507.9704437193,0.0001713332
73,10.1016/j.actamat.2015.04.023,4591,3(a),5860,x=0.025,Mg2.975Na0.025Sb2,374.5,0.000026667,0.00031867,0.000085645,1.8555,0.080125,37499.5312558593,0.0001717435
73,10.1016/j.actamat.2015.04.023,4591,3(a),5860,x=0.025,Mg2.975Na0.025Sb2,375,0.000026672,0.00031927,0.000085734,1.8545,0.080623,37492.5014997001,0.0001721596
73,10.1016/j.actamat.2015.04.023,4591,3(a),5860,x=0.025,Mg2.975Na0.025Sb2,375.5,0.000026677,0.00031987,0.000085824,1.8535,0.08112,37485.4743786783,0.0001725762
73,10.1016/j.actamat.2015.04.023,4591,3(a),5860,x=0.025,Mg2.975Na0.025Sb2,376,0.000026682,0.00032046,0.000085913,1.8525,0.081618,37478.4498913125,0.0001729879
73,10.1016/j.actamat.2015.04.023,4591,3(a),5860,x=0.025,Mg2.975Na0.025Sb2,376.5,0.000026687,0.00032106,0.000086002,1.8516,0.082115,37471.4280361225,0.000173396
73,10.1016/j.actamat.2015.04.023,4591,3(a),5860,x=0.025,Mg2.975Na0.025Sb2,377,0.000026692,0.00032166,0.000086092,1.8506,0.082613,37464.4088116289,0.0001738139
73,10.1016/j.actamat.2015.04.023,4591,3(a),5860,x=0.025,Mg2.975Na0.025Sb2,377.5,0.000026697,0.00032225,0.000086181,1.8496,0.08311,37457.3922163539,0.0001742269
73,10.1016/j.actamat.2015.04.023,4591,3(a),5860,x=0.025,Mg2.975Na0.025Sb2,378,0.000026702,0.00032285,0.000086271,1.8486,0.083608,37450.3782488203,0.0001746457
73,10.1016/j.actamat.2015.04.023,4591,3(a),5860,x=0.025,Mg2.975Na0.025Sb2,378.5,0.000026708,0.00032345,0.00008636,1.8476,0.084105,37441.9649543208,0.0001750649
73,10.1016/j.actamat.2015.04.023,4591,3(a),5860,x=0.025,Mg2.975Na0.025Sb2,379,0.000026713,0.00032404,0.00008645,1.8466,0.084603,37434.9567626249,0.0001754793
73,10.1016/j.actamat.2015.04.023,4591,3(a),5860,x=0.025,Mg2.975Na0.025Sb2,379.5,0.000026718,0.00032464,0.000086539,1.8457,0.0851,37427.9511939516,0.0001758899
73,10.1016/j.actamat.2015.04.023,4591,3(a),5860,x=0.025,Mg2.975Na0.025Sb2,380,0.000026723,0.00032524,0.000086629,1.8447,0.085598,37420.9482468286,0.0001763105
73,10.1016/j.actamat.2015.04.023,4591,3(a),5860,x=0.025,Mg2.975Na0.025Sb2,380.5,0.000026728,0.00032583,0.000086718,1.8437,0.086095,37413.9479197845,0.0001767261
73,10.1016/j.actamat.2015.04.023,4591,3(a),5860,x=0.025,Mg2.975Na0.025Sb2,381,0.000026733,0.00032643,0.000086808,1.8427,0.086592,37406.9502113493,0.0001771477
73,10.1016/j.actamat.2015.04.023,4591,3(a),5860,x=0.025,Mg2.975Na0.025Sb2,381.5,0.000026738,0.00032703,0.000086897,1.8417,0.08709,37399.9551200539,0.0001775696
73,10.1016/j.actamat.2015.04.023,4591,3(a),5860,x=0.025,Mg2.975Na0.025Sb2,382,0.000026743,0.00032762,0.000086987,1.8408,0.087587,37392.9626444303,0.000177977
73,10.1016/j.actamat.2015.04.023,4591,3(a),5860,x=0.025,Mg2.975Na0.025Sb2,382.5,0.000026749,0.00032822,0.000087076,1.8398,0.088085,37384.5751243037,0.0001783998
73,10.1016/j.actamat.2015.04.023,4591,3(a),5860,x=0.025,Mg2.975Na0.025Sb2,383,0.000026754,0.00032882,0.000087165,1.8388,0.088582,37377.5883979966,0.0001788231
73,10.1016/j.actamat.2015.04.023,4591,3(a),5860,x=0.025,Mg2.975Na0.025Sb2,383.5,0.000026759,0.00032941,0.000087255,1.8378,0.08908,37370.6042826713,0.0001792415
73,10.1016/j.actamat.2015.04.023,4591,3(a),5860,x=0.025,Mg2.975Na0.025Sb2,384,0.000026764,0.00033001,0.000087344,1.8368,0.089577,37363.6227768644,0.0001796657
73,10.1016/j.actamat.2015.04.023,4591,3(a),5860,x=0.025,Mg2.975Na0.025Sb2,384.5,0.000026769,0.00033061,0.000087434,1.8358,0.090075,37356.6438791139,0.0001800904
73,10.1016/j.actamat.2015.04.023,4591,3(a),5860,x=0.025,Mg2.975Na0.025Sb2,385,0.000026774,0.0003312,0.000087523,1.8349,0.090572,37349.6675879585,0.0001805003
73,10.1016/j.actamat.2015.04.023,4591,3(a),5860,x=0.025,Mg2.975Na0.025Sb2,385.5,0.000026779,0.0003318,0.000087613,1.8339,0.09107,37342.6939019381,0.0001809259
73,10.1016/j.actamat.2015.04.023,4591,3(a),5860,x=0.025,Mg2.975Na0.025Sb2,386,0.000026784,0.00033239,0.000087702,1.8329,0.091567,37335.7228195938,0.0001813465
73,10.1016/j.actamat.2015.04.023,4591,3(a),5860,x=0.025,Mg2.975Na0.025Sb2,386.5,0.00002679,0.00033299,0.000087792,1.8319,0.092065,37327.3609555804,0.000181773
73,10.1016/j.actamat.2015.04.023,4591,3(a),5860,x=0.025,Mg2.975Na0.025Sb2,387,0.000026795,0.00033359,0.000087881,1.8309,0.092562,37320.3955961933,0.0001822
73,10.1016/j.actamat.2015.04.023,4591,3(a),5860,x=0.025,Mg2.975Na0.025Sb2,387.5,0.0000268,0.00033418,0.000087971,1.83,0.09306,37313.4328358209,0.000182612
73,10.1016/j.actamat.2015.04.023,4591,3(a),5860,x=0.025,Mg2.975Na0.025Sb2,388,0.000026805,0.00033478,0.00008806,1.829,0.093557,37306.4726730088,0.0001830399
73,10.1016/j.actamat.2015.04.023,4591,3(a),5860,x=0.025,Mg2.975Na0.025Sb2,388.5,0.00002681,0.00033538,0.00008815,1.828,0.094055,37299.5151063036,0.0001834683
73,10.1016/j.actamat.2015.04.023,4591,3(a),5860,x=0.025,Mg2.975Na0.025Sb2,389,0.000026815,0.00033597,0.000088239,1.827,0.094552,37292.5601342532,0.0001838916
73,10.1016/j.actamat.2015.04.023,4591,3(a),5860,x=0.025,Mg2.975Na0.025Sb2,389.5,0.00002682,0.00033657,0.000088328,1.826,0.095049,37285.6077554064,0.0001843209
73,10.1016/j.actamat.2015.04.023,4591,3(a),5860,x=0.025,Mg2.975Na0.025Sb2,390,0.000026826,0.00033717,0.000088418,1.825,0.095547,37277.2683217774,0.0001847507
73,10.1016/j.actamat.2015.04.023,4591,3(a),5860,x=0.025,Mg2.975Na0.025Sb2,390.5,0.000026831,0.00033776,0.000088507,1.8241,0.096044,37270.3216428758,0.0001851653
73,10.1016/j.actamat.2015.04.023,4591,3(a),5860,x=0.025,Mg2.975Na0.025Sb2,391,0.000026836,0.00033836,0.000088597,1.8231,0.096542,37263.3775525414,0.000185596
73,10.1016/j.actamat.2015.04.023,4591,3(a),5860,x=0.025,Mg2.975Na0.025Sb2,391.5,0.000026841,0.00033896,0.000088686,1.8221,0.097039,37256.4360493275,0.0001860271
73,10.1016/j.actamat.2015.04.023,4591,3(a),5860,x=0.025,Mg2.975Na0.025Sb2,392,0.000026846,0.00033955,0.000088776,1.8211,0.097537,37249.4971317887,0.0001864532
73,10.1016/j.actamat.2015.04.023,4591,3(a),5860,x=0.025,Mg2.975Na0.025Sb2,392.5,0.000026851,0.00034015,0.000088865,1.8201,0.098034,37242.5607984805,0.0001868853
73,10.1016/j.actamat.2015.04.023,4591,3(a),5860,x=0.025,Mg2.975Na0.025Sb2,393,0.000026856,0.00034075,0.000088955,1.8192,0.098532,37235.6270479595,0.0001873076
73,10.1016/j.actamat.2015.04.023,4591,3(a),5860,x=0.025,Mg2.975Na0.025Sb2,393.5,0.000026861,0.00034134,0.000089044,1.8182,0.099029,37228.6958787834,0.0001877351
73,10.1016/j.actamat.2015.04.023,4591,3(a),5860,x=0.025,Mg2.975Na0.025Sb2,394,0.000026867,0.00034194,0.000089134,1.8172,0.099527,37220.3818811181,0.0001881686
73,10.1016/j.actamat.2015.04.023,4591,3(a),5860,x=0.025,Mg2.975Na0.025Sb2,394.5,0.000026872,0.00034254,0.000089223,1.8162,0.10002,37213.4563858291,0.0001886026
73,10.1016/j.actamat.2015.04.023,4591,3(a),5860,x=0.025,Mg2.975Na0.025Sb2,395,0.000026877,0.00034313,0.000089313,1.8152,0.10052,37206.5334672769,0.0001890315
73,10.1016/j.actamat.2015.04.023,4591,3(a),5860,x=0.025,Mg2.975Na0.025Sb2,395.5,0.000026882,0.00034373,0.000089402,1.8143,0.10102,37199.6131240235,0.000189456
73,10.1016/j.actamat.2015.04.023,4591,3(a),5860,x=0.025,Mg2.975Na0.025Sb2,396,0.000026887,0.00034433,0.000089491,1.8133,0.10152,37192.6953546323,0.0001898914
73,10.1016/j.actamat.2015.04.023,4591,3(a),5860,x=0.025,Mg2.975Na0.025Sb2,396.5,0.000026892,0.00034492,0.000089581,1.8123,0.10201,37185.7801576677,0.0001903217
73,10.1016/j.actamat.2015.04.023,4591,3(a),5860,x=0.025,Mg2.975Na0.025Sb2,397,0.000026897,0.00034552,0.00008967,1.8113,0.10251,37178.867531695,0.000190758
73,10.1016/j.actamat.2015.04.023,4591,3(a),5860,x=0.025,Mg2.975Na0.025Sb2,397.5,0.000026902,0.00034612,0.00008976,1.8103,0.10301,37171.9574752806,0.0001911948
73,10.1016/j.actamat.2015.04.023,4591,3(a),5860,x=0.025,Mg2.975Na0.025Sb2,398,0.000026908,0.00034671,0.000089849,1.8093,0.10351,37163.6687973837,0.0001916266
73,10.1016/j.actamat.2015.04.023,4591,3(a),5860,x=0.025,Mg2.975Na0.025Sb2,398.5,0.000026913,0.00034731,0.000089939,1.8084,0.104,37156.764388957,0.0001920537
73,10.1016/j.actamat.2015.04.023,4591,3(a),5860,x=0.025,Mg2.975Na0.025Sb2,399,0.000026918,0.0003479,0.000090028,1.8074,0.1045,37149.8625455086,0.0001924864
73,10.1016/j.actamat.2015.04.023,4591,3(a),5860,x=0.025,Mg2.975Na0.025Sb2,399.5,0.000026923,0.0003485,0.000090118,1.8064,0.105,37142.9632656093,0.0001929252
73,10.1016/j.actamat.2015.04.023,4591,3(a),5860,x=0.025,Mg2.975Na0.025Sb2,400,0.000026928,0.0003491,0.000090207,1.8054,0.1055,37136.0665478313,0.0001933644
73,10.1016/j.actamat.2015.04.023,4591,3(a),5860,x=0.025,Mg2.975Na0.025Sb2,400.5,0.000026933,0.00034969,0.000090297,1.8044,0.10599,37129.1723907474,0.0001937985
73,10.1016/j.actamat.2015.04.023,4591,3(a),5860,x=0.025,Mg2.975Na0.025Sb2,401,0.000026938,0.00035029,0.000090386,1.8035,0.10649,37122.2807929319,0.0001942279
73,10.1016/j.actamat.2015.04.023,4591,3(a),5860,x=0.025,Mg2.975Na0.025Sb2,401.5,0.000026943,0.00035089,0.000090476,1.8025,0.10699,37115.39175296,0.0001946685
73,10.1016/j.actamat.2015.04.023,4591,3(a),5860,x=0.025,Mg2.975Na0.025Sb2,402,0.000026949,0.00035148,0.000090565,1.8015,0.10749,37107.1282793425,0.0001951041
73,10.1016/j.actamat.2015.04.023,4591,3(a),5860,x=0.025,Mg2.975Na0.025Sb2,402.5,0.000026954,0.00035208,0.000090654,1.8005,0.10798,37100.2448616161,0.0001955457
73,10.1016/j.actamat.2015.04.023,4591,3(a),5860,x=0.025,Mg2.975Na0.025Sb2,403,0.000026959,0.00035268,0.000090744,1.7995,0.10848,37093.3639971809,0.0001959878
73,10.1016/j.actamat.2015.04.023,4591,3(a),5860,x=0.025,Mg2.975Na0.025Sb2,403.5,0.000026964,0.00035327,0.000090833,1.7985,0.10898,37086.4856846165,0.0001964248
73,10.1016/j.actamat.2015.04.023,4591,3(a),5860,x=0.025,Mg2.975Na0.025Sb2,404,0.000026969,0.00035387,0.000090923,1.7976,0.10948,37079.6099225036,0.0001968569
73,10.1016/j.actamat.2015.04.023,4591,3(a),5860,x=0.025,Mg2.975Na0.025Sb2,404.5,0.000026974,0.00035447,0.000091012,1.7966,0.10997,37072.7367094239,0.0001973005
73,10.1016/j.actamat.2015.04.023,4591,3(a),5860,x=0.025,Mg2.975Na0.025Sb2,405,0.000026979,0.00035506,0.000091102,1.7956,0.11047,37065.8660439601,0.0001977389
73,10.1016/j.actamat.2015.04.023,4591,3(a),5860,x=0.025,Mg2.975Na0.025Sb2,405.5,0.000026985,0.00035566,0.000091191,1.7946,0.11097,37057.6246062627,0.0001981834
73,10.1016/j.actamat.2015.04.023,4591,3(a),5860,x=0.025,Mg2.975Na0.025Sb2,406,0.00002699,0.00035626,0.000091281,1.7936,0.11147,37050.7595405706,0.0001986285
73,10.1016/j.actamat.2015.04.023,4591,3(a),5860,x=0.025,Mg2.975Na0.025Sb2,406.5,0.000026995,0.00035685,0.00009137,1.7927,0.11196,37043.8970179663,0.0001990573
73,10.1016/j.actamat.2015.04.023,4591,3(a),5860,x=0.025,Mg2.975Na0.025Sb2,407,0.000027,0.00035745,0.00009146,1.7917,0.11246,37037.037037037,0.0001995033
73,10.1016/j.actamat.2015.04.023,4591,3(a),5860,x=0.025,Mg2.975Na0.025Sb2,407.5,0.000027005,0.00035805,0.000091549,1.7907,0.11296,37030.179596371,0.0001999497
73,10.1016/j.actamat.2015.04.023,4591,3(a),5860,x=0.025,Mg2.975Na0.025Sb2,408,0.00002701,0.00035864,0.000091639,1.7897,0.11346,37023.3246945576,0.0002003911
73,10.1016/j.actamat.2015.04.023,4591,3(a),5860,x=0.025,Mg2.975Na0.025Sb2,408.5,0.000027015,0.00035924,0.000091728,1.7887,0.11395,37016.4723301869,0.0002008386
73,10.1016/j.actamat.2015.04.023,4591,3(a),5860,x=0.025,Mg2.975Na0.025Sb2,409,0.00002702,0.00035984,0.000091817,1.7878,0.11445,37009.6225018505,0.0002012753
73,10.1016/j.actamat.2015.04.023,4591,3(a),5860,x=0.025,Mg2.975Na0.025Sb2,409.5,0.000027026,0.00036043,0.000091907,1.7868,0.11495,37001.40605343,0.0002017182
73,10.1016/j.actamat.2015.04.023,4591,3(a),5860,x=0.025,Mg2.975Na0.025Sb2,410,0.000027031,0.00036103,0.000091996,1.7858,0.11545,36994.5617994155,0.0002021671
73,10.1016/j.actamat.2015.04.023,4591,3(a),5860,x=0.025,Mg2.975Na0.025Sb2,410.5,0.000027036,0.00036163,0.000092086,1.7848,0.11594,36987.7200769345,0.0002026165
73,10.1016/j.actamat.2015.04.023,4591,3(a),5860,x=0.025,Mg2.975Na0.025Sb2,411,0.000027041,0.00036222,0.000092175,1.7838,0.11644,36980.8808845827,0.0002030609
73,10.1016/j.actamat.2015.04.023,4591,3(a),5860,x=0.025,Mg2.975Na0.025Sb2,411.5,0.000027046,0.00036282,0.000092265,1.7828,0.11694,36974.0442209569,0.0002035113
73,10.1016/j.actamat.2015.04.023,4591,3(a),5860,x=0.025,Mg2.975Na0.025Sb2,412,0.000027051,0.00036341,0.000092354,1.7819,0.11744,36967.2100846549,0.0002039452
73,10.1016/j.actamat.2015.04.023,4591,3(a),5860,x=0.025,Mg2.975Na0.025Sb2,412.5,0.000027056,0.00036401,0.000092444,1.7809,0.11793,36960.3784742756,0.0002043967
73,10.1016/j.actamat.2015.04.023,4591,3(a),5860,x=0.025,Mg2.975Na0.025Sb2,413,0.000027061,0.00036461,0.000092533,1.7799,0.11843,36953.5493884188,0.0002048486
73,10.1016/j.actamat.2015.04.023,4591,3(a),5860,x=0.025,Mg2.975Na0.025Sb2,413.5,0.000027067,0.0003652,0.000092623,1.7789,0.11893,36945.3578157904,0.0002052954
73,10.1016/j.actamat.2015.04.023,4591,3(a),5860,x=0.025,Mg2.975Na0.025Sb2,414,0.000027072,0.0003658,0.000092712,1.7779,0.11943,36938.5342789598,0.0002057484
73,10.1016/j.actamat.2015.04.023,4591,3(a),5860,x=0.025,Mg2.975Na0.025Sb2,414.5,0.000027077,0.0003664,0.000092802,1.777,0.11992,36931.7132621782,0.0002061902
73,10.1016/j.actamat.2015.04.023,4591,3(a),5860,x=0.025,Mg2.975Na0.025Sb2,415,0.000027082,0.00036699,0.000092891,1.776,0.12042,36924.8947640499,0.0002066385
73,10.1016/j.actamat.2015.04.023,4591,3(a),5860,x=0.025,Mg2.975Na0.025Sb2,415.5,0.000027087,0.00036759,0.00009298,1.775,0.12092,36918.0787831801,0.000207093
73,10.1016/j.actamat.2015.04.023,4591,3(a),5860,x=0.025,Mg2.975Na0.025Sb2,416,0.000027092,0.00036819,0.00009307,1.774,0.12142,36911.2653181751,0.0002075479
73,10.1016/j.actamat.2015.04.023,4591,3(a),5860,x=0.025,Mg2.975Na0.025Sb2,416.5,0.000027097,0.00036878,0.000093159,1.773,0.12191,36904.4543676422,0.0002079977
73,10.1016/j.actamat.2015.04.023,4591,3(a),5860,x=0.025,Mg2.975Na0.025Sb2,417,0.000027103,0.00036938,0.000093249,1.772,0.12241,36896.2845441464,0.0002084537
73,10.1016/j.actamat.2015.04.023,4591,3(a),5860,x=0.025,Mg2.975Na0.025Sb2,417.5,0.000027108,0.00036998,0.000093338,1.7711,0.12291,36889.4791205548,0.0002088984
73,10.1016/j.actamat.2015.04.023,4591,3(a),5860,x=0.025,Mg2.975Na0.025Sb2,418,0.000027113,0.00037057,0.000093428,1.7701,0.12341,36882.6762069856,0.0002093498
73,10.1016/j.actamat.2015.04.023,4591,3(a),5860,x=0.025,Mg2.975Na0.025Sb2,418.5,0.000027118,0.00037117,0.000093517,1.7691,0.1239,36875.8758020503,0.0002098072
73,10.1016/j.actamat.2015.04.023,4591,3(a),5860,x=0.025,Mg2.975Na0.025Sb2,419,0.000027123,0.00037177,0.000093607,1.7681,0.1244,36869.0779043616,0.0002102653
73,10.1016/j.actamat.2015.04.023,4591,3(a),5860,x=0.025,Mg2.975Na0.025Sb2,419.5,0.000027128,0.00037236,0.000093696,1.7671,0.1249,36862.2825125332,0.0002107181