sid,DOI,figureid,fignum,sampleid,samplename,composition,Temperature,Electrical resistivity,Power factor,Seebeck coefficient,Thermal conductivity,ZT,Electrical conductivity,Figure of merit Z
10954,10.1007/s11664-015-4303-6,5134,3(a),6471,x=0.9,Ca0.1Eu0.9Zn2Sb2,716,0.000022578,0.0017337,0.00019487,1.3939,0.74097,44290.902648596,0.0012437765
10954,10.1007/s11664-015-4303-6,5134,3(a),6471,x=0.9,Ca0.1Eu0.9Zn2Sb2,716.5,0.000022595,0.0017345,0.00019497,1.3923,0.74179,44257.5791104227,0.0012457804
10954,10.1007/s11664-015-4303-6,5134,3(a),6471,x=0.9,Ca0.1Eu0.9Zn2Sb2,717,0.000022612,0.0017352,0.00019507,,0.74261,44224.3056784009,
10954,10.1007/s11664-015-4303-6,5134,3(a),6471,x=0.9,Ca0.1Eu0.9Zn2Sb2,717.5,0.000022629,0.0016833,0.00019517,,0.74344,44191.082239604,
10954,10.1007/s11664-015-4303-6,5134,3(a),6471,x=0.9,Ca0.1Eu0.9Zn2Sb2,718,0.000022646,0.0016836,0.00019526,,0.74426,44157.9086814448,
10954,10.1007/s11664-015-4303-6,5134,3(a),6471,x=0.9,Ca0.1Eu0.9Zn2Sb2,718.5,0.000022663,0.001684,0.00019536,,0.74509,44124.7848916737,
10954,10.1007/s11664-015-4303-6,5136,3(b),6471,x=0.9,Ca0.1Eu0.9Zn2Sb2,299,,,0.00011252,,0.053674,,
10954,10.1007/s11664-015-4303-6,5136,3(b),6471,x=0.9,Ca0.1Eu0.9Zn2Sb2,299.5,,,0.00011261,,0.054498,,
10954,10.1007/s11664-015-4303-6,5136,3(b),6471,x=0.9,Ca0.1Eu0.9Zn2Sb2,300,,,0.00011271,,0.055322,,
10954,10.1007/s11664-015-4303-6,5136,3(b),6471,x=0.9,Ca0.1Eu0.9Zn2Sb2,300.5,,,0.00011281,2.7059,0.056146,,
10954,10.1007/s11664-015-4303-6,5136,3(b),6471,x=0.9,Ca0.1Eu0.9Zn2Sb2,301,,,0.00011291,2.7043,0.05697,,
10954,10.1007/s11664-015-4303-6,5136,3(b),6471,x=0.9,Ca0.1Eu0.9Zn2Sb2,719,,,0.00019546,,0.74591,,
10954,10.1007/s11664-015-4303-6,5139,4,6471,x=0.9,Ca0.1Eu0.9Zn2Sb2,719.5,,,,,0.74673,,
10954,10.1007/s11664-015-4303-6,5139,4,6471,x=0.9,Ca0.1Eu0.9Zn2Sb2,720,,,,,0.74756,,
10954,10.1007/s11664-015-4303-6,5139,4,6471,x=0.9,Ca0.1Eu0.9Zn2Sb2,720.5,,,,,0.74838,,
10954,10.1007/s11664-015-4303-6,5134,3(a),6472,x=1,Eu1Zn2Sb2,301.5,0.000011273,0.0012573,0.00011165,2.4204,0.15662,88707.5312694048,0.0005194596
10954,10.1007/s11664-015-4303-6,5134,3(a),6472,x=1,Eu1Zn2Sb2,302,0.000011281,0.0012584,0.00011182,2.419,0.1571,88644.6237035724,0.000520215
10954,10.1007/s11664-015-4303-6,5134,3(a),6472,x=1,Eu1Zn2Sb2,302.5,0.000011289,0.0012594,0.00011199,2.4176,0.083178,88581.805297192,0.0005209298
10954,10.1007/s11664-015-4303-6,5134,3(a),6472,x=1,Eu1Zn2Sb2,303,0.000011297,0.0012604,0.00011215,2.4162,0.084257,88519.075860848,0.0005216456
10954,10.1007/s11664-015-4303-6,5134,3(a),6472,x=1,Eu1Zn2Sb2,303.5,0.000011305,0.0012615,0.00011232,2.4147,0.085337,88456.4352056612,0.0005224251
10954,10.1007/s11664-015-4303-6,5134,3(a),6472,x=1,Eu1Zn2Sb2,304,0.000011313,0.0012625,0.00011248,2.4133,0.086417,88393.8831432865,0.0005231426
10954,10.1007/s11664-015-4303-6,5134,3(a),6472,x=1,Eu1Zn2Sb2,304.5,0.000011321,0.0012635,0.00011265,2.4119,0.087496,88331.4194859111,0.0005238609
10954,10.1007/s11664-015-4303-6,5134,3(a),6472,x=1,Eu1Zn2Sb2,305,0.000011329,0.0012646,0.00011281,2.4105,0.088576,88269.044046253,0.0005246214
10954,10.1007/s11664-015-4303-6,5134,3(a),6472,x=1,Eu1Zn2Sb2,305.5,0.000011337,0.0012656,0.00011298,2.4091,0.089656,88206.7566375584,0.0005253414
10954,10.1007/s11664-015-4303-6,5134,3(a),6472,x=1,Eu1Zn2Sb2,306,0.000011345,0.0012666,0.00011314,2.4076,0.090736,88144.5570736007,0.0005260841
10954,10.1007/s11664-015-4303-6,5134,3(a),6472,x=1,Eu1Zn2Sb2,306.5,0.000011353,0.0012676,0.0001133,2.4062,0.091815,88082.4451686779,0.0005268058
10954,10.1007/s11664-015-4303-6,5134,3(a),6472,x=1,Eu1Zn2Sb2,307,0.000011361,0.0012687,0.00011346,2.4048,0.092895,88020.4207376111,0.0005275699
10954,10.1007/s11664-015-4303-6,5134,3(a),6472,x=1,Eu1Zn2Sb2,307.5,0.000011369,0.0012697,0.00011363,2.4034,0.093975,87958.4835957428,0.0005282933
10954,10.1007/s11664-015-4303-6,5134,3(a),6472,x=1,Eu1Zn2Sb2,308,0.000011377,0.0012707,0.00011379,2.402,0.095054,87896.6335589347,0.0005290175
10954,10.1007/s11664-015-4303-6,5134,3(a),6472,x=1,Eu1Zn2Sb2,308.5,0.000011385,0.0012718,0.00011395,2.4006,0.096134,87834.8704435661,0.0005297842
10954,10.1007/s11664-015-4303-6,5134,3(a),6472,x=1,Eu1Zn2Sb2,309,0.000011393,0.0012728,0.00011411,2.3991,0.097214,87773.1940665321,0.0005305323
10954,10.1007/s11664-015-4303-6,5134,3(a),6472,x=1,Eu1Zn2Sb2,309.5,0.000011401,0.0012738,0.00011427,2.3977,0.098294,87711.6042452416,0.0005312591
10954,10.1007/s11664-015-4303-6,5134,3(a),6472,x=1,Eu1Zn2Sb2,310,0.000011409,0.0012749,0.00011443,2.3963,0.099373,87650.1007976159,0.0005320285
10954,10.1007/s11664-015-4303-6,5134,3(a),6472,x=1,Eu1Zn2Sb2,310.5,0.000011417,0.0012759,0.00011459,2.3949,0.10045,87588.6835420864,0.0005327571
10954,10.1007/s11664-015-4303-6,5134,3(a),6472,x=1,Eu1Zn2Sb2,311,0.000011425,0.0012769,0.00011475,2.3935,0.10153,87527.352297593,0.0005334865
10954,10.1007/s11664-015-4303-6,5134,3(a),6472,x=1,Eu1Zn2Sb2,311.5,0.000011433,0.001278,0.0001149,2.392,0.10261,87466.1068835826,0.0005342809
10954,10.1007/s11664-015-4303-6,5134,3(a),6472,x=1,Eu1Zn2Sb2,312,0.000011441,0.001279,0.00011506,2.3906,0.10369,87404.947120007,0.0005350121
10954,10.1007/s11664-015-4303-6,5134,3(a),6472,x=1,Eu1Zn2Sb2,312.5,0.000011449,0.00128,0.00011522,2.3892,0.10477,87343.8728273212,0.0005357442
10954,10.1007/s11664-015-4303-6,5134,3(a),6472,x=1,Eu1Zn2Sb2,313,0.000011457,0.001281,0.00011538,2.3878,0.10585,87282.8838264816,0.0005364771
10954,10.1007/s11664-015-4303-6,5134,3(a),6472,x=1,Eu1Zn2Sb2,313.5,0.000011465,0.0012821,0.00011553,2.3864,0.10693,87221.9799389446,0.0005372528
10954,10.1007/s11664-015-4303-6,5134,3(a),6472,x=1,Eu1Zn2Sb2,314,0.000011473,0.0012831,0.00011569,2.385,0.10801,87161.1609866643,0.0005379874
10954,10.1007/s11664-015-4303-6,5134,3(a),6472,x=1,Eu1Zn2Sb2,314.5,0.000011482,0.0012841,0.00011584,2.3835,0.10909,87092.8409684724,0.0005387455
10954,10.1007/s11664-015-4303-6,5134,3(a),6472,x=1,Eu1Zn2Sb2,315,0.00001149,0.0012852,0.000116,2.3821,0.11017,87032.2019147084,0.0005395239
10954,10.1007/s11664-015-4303-6,5134,3(a),6472,x=1,Eu1Zn2Sb2,315.5,0.000011498,0.0012862,0.00011615,2.3807,0.11125,86971.6472429988,0.0005402613
10954,10.1007/s11664-015-4303-6,5134,3(a),6472,x=1,Eu1Zn2Sb2,316,0.000011506,0.0012872,0.00011631,2.3793,0.11233,86911.1767773336,0.0005409995
10954,10.1007/s11664-015-4303-6,5134,3(a),6472,x=1,Eu1Zn2Sb2,316.5,0.000011514,0.0012883,0.00011646,2.3779,0.11341,86850.7903421921,0.0005417806
10954,10.1007/s11664-015-4303-6,5134,3(a),6472,x=1,Eu1Zn2Sb2,317,0.000011522,0.0012893,0.00011662,2.3764,0.11449,86790.4877625412,0.0005425433
10954,10.1007/s11664-015-4303-6,5134,3(a),6472,x=1,Eu1Zn2Sb2,317.5,0.00001153,0.0012903,0.00011677,2.375,0.11557,86730.2688638335,0.0005432842
10954,10.1007/s11664-015-4303-6,5134,3(a),6472,x=1,Eu1Zn2Sb2,318,0.000011538,0.0012914,0.00011692,2.3736,0.11665,86670.1334720055,0.0005440681
10954,10.1007/s11664-015-4303-6,5134,3(a),6472,x=1,Eu1Zn2Sb2,318.5,0.000011546,0.0012924,0.00011707,2.3722,0.11773,86610.0814134765,0.0005448107
10954,10.1007/s11664-015-4303-6,5134,3(a),6472,x=1,Eu1Zn2Sb2,319,0.000011554,0.0012934,0.00011722,2.3708,0.11881,86550.1125151463,0.0005455542
10954,10.1007/s11664-015-4303-6,5134,3(a),6472,x=1,Eu1Zn2Sb2,319.5,0.000011562,0.0012944,0.00011738,2.3694,0.11989,86490.2266043937,0.0005462986
10954,10.1007/s11664-015-4303-6,5134,3(a),6472,x=1,Eu1Zn2Sb2,320,0.00001157,0.0012955,0.00011753,2.3679,0.12097,86430.4235090752,0.0005471093
10954,10.1007/s11664-015-4303-6,5134,3(a),6472,x=1,Eu1Zn2Sb2,320.5,0.000011578,0.0012965,0.00011768,2.3665,0.12205,86370.7030575229,0.0005478555
10954,10.1007/s11664-015-4303-6,5134,3(a),6472,x=1,Eu1Zn2Sb2,321,0.000011586,0.0012975,0.00011783,2.3651,0.12313,86311.0650785431,0.0005486026
10954,10.1007/s11664-015-4303-6,5134,3(a),6472,x=1,Eu1Zn2Sb2,321.5,0.000011594,0.0012986,0.00011798,2.3637,0.12421,86251.5094014145,0.0005493929
10954,10.1007/s11664-015-4303-6,5134,3(a),6472,x=1,Eu1Zn2Sb2,322,0.000011602,0.0012996,0.00011813,2.3623,0.12529,86192.0358558869,0.0005501418
10954,10.1007/s11664-015-4303-6,5134,3(a),6472,x=1,Eu1Zn2Sb2,322.5,0.00001161,0.0013006,0.00011828,2.3608,0.12637,86132.6442721792,0.0005509149
10954,10.1007/s11664-015-4303-6,5134,3(a),6472,x=1,Eu1Zn2Sb2,323,0.000011618,0.0013017,0.00011842,2.3594,0.12745,86073.3344809778,0.0005517081
10954,10.1007/s11664-015-4303-6,5134,3(a),6472,x=1,Eu1Zn2Sb2,323.5,0.000011626,0.0013027,0.00011857,2.358,0.12853,86014.1063134354,0.0005524597
10954,10.1007/s11664-015-4303-6,5134,3(a),6472,x=1,Eu1Zn2Sb2,324,0.000011634,0.0013037,0.00011872,2.3566,0.12961,85954.959601169,0.0005532123
10954,10.1007/s11664-015-4303-6,5134,3(a),6472,x=1,Eu1Zn2Sb2,324.5,0.000011642,0.0013048,0.00011887,2.3552,0.13068,85895.8941762584,0.0005540082
10954,10.1007/s11664-015-4303-6,5134,3(a),6472,x=1,Eu1Zn2Sb2,325,0.00001165,0.0013058,0.00011901,2.3538,0.13176,85836.9098712446,0.0005547625
10954,10.1007/s11664-015-4303-6,5134,3(a),6472,x=1,Eu1Zn2Sb2,325.5,0.000011658,0.0013068,0.00011916,2.3523,0.13284,85778.0065191285,0.0005555414
10954,10.1007/s11664-015-4303-6,5134,3(a),6472,x=1,Eu1Zn2Sb2,326,0.000011666,0.0013078,0.00011931,2.3509,0.13392,85719.1839533688,0.0005562976
10954,10.1007/s11664-015-4303-6,5134,3(a),6472,x=1,Eu1Zn2Sb2,326.5,0.000011674,0.0013089,0.00011945,2.3495,0.135,85660.4420078808,0.0005570973
10954,10.1007/s11664-015-4303-6,5134,3(a),6472,x=1,Eu1Zn2Sb2,327,0.000011682,0.0013099,0.0001196,2.3481,0.13608,85601.7805170348,0.0005578553
10954,10.1007/s11664-015-4303-6,5134,3(a),6472,x=1,Eu1Zn2Sb2,327.5,0.00001169,0.0013109,0.00011974,2.3467,0.13716,85543.1993156544,0.0005586142
10954,10.1007/s11664-015-4303-6,5134,3(a),6472,x=1,Eu1Zn2Sb2,328,0.000011698,0.001312,0.00011989,2.3452,0.13824,85484.6982390152,0.0005594406
10954,10.1007/s11664-015-4303-6,5134,3(a),6472,x=1,Eu1Zn2Sb2,328.5,0.000011706,0.001313,0.00012003,2.3438,0.13932,85426.277122843,0.0005602014
10954,10.1007/s11664-015-4303-6,5134,3(a),6472,x=1,Eu1Zn2Sb2,329,0.000011714,0.001314,0.00012018,2.3424,0.1404,85367.9358033123,0.0005609631
10954,10.1007/s11664-015-4303-6,5134,3(a),6472,x=1,Eu1Zn2Sb2,329.5,0.000011723,0.0013151,0.00012032,2.341,0.14148,85302.3969973556,0.0005617685
10954,10.1007/s11664-015-4303-6,5134,3(a),6472,x=1,Eu1Zn2Sb2,330,0.000011731,0.0013161,0.00012046,2.3396,0.14256,85244.2247037763,0.0005625321
10954,10.1007/s11664-015-4303-6,5134,3(a),6472,x=1,Eu1Zn2Sb2,330.5,0.000011739,0.0013171,0.00012061,2.3382,0.14364,85186.1316977596,0.0005632966
10954,10.1007/s11664-015-4303-6,5134,3(a),6472,x=1,Eu1Zn2Sb2,331,0.000011747,0.0013182,0.00012075,2.3367,0.14472,85128.1178173151,0.0005641289
10954,10.1007/s11664-015-4303-6,5134,3(a),6472,x=1,Eu1Zn2Sb2,331.5,0.000011755,0.0013192,0.00012089,2.3353,0.1458,85070.1829008932,0.0005648953
10954,10.1007/s11664-015-4303-6,5134,3(a),6472,x=1,Eu1Zn2Sb2,332,0.000011763,0.0013202,0.00012103,2.3339,0.14688,85012.3267873842,0.0005656626
10954,10.1007/s11664-015-4303-6,5134,3(a),6472,x=1,Eu1Zn2Sb2,332.5,0.000011771,0.0013212,0.00012118,2.3325,0.14796,84954.5493161159,0.0005664309
10954,10.1007/s11664-015-4303-6,5134,3(a),6472,x=1,Eu1Zn2Sb2,333,0.000011779,0.0013223,0.00012132,2.3311,0.14904,84896.8503268529,0.0005672429
10954,10.1007/s11664-015-4303-6,5134,3(a),6472,x=1,Eu1Zn2Sb2,333.5,0.000011787,0.0013233,0.00012146,2.3296,0.15012,84839.2296597947,0.0005680374
10954,10.1007/s11664-015-4303-6,5134,3(a),6472,x=1,Eu1Zn2Sb2,334,0.000011795,0.0013243,0.0001216,2.3282,0.1512,84781.6871555744,0.0005688085
10954,10.1007/s11664-015-4303-6,5134,3(a),6472,x=1,Eu1Zn2Sb2,334.5,0.000011803,0.0013254,0.00012174,2.3268,0.15228,84724.2226552571,0.0005696235
10954,10.1007/s11664-015-4303-6,5134,3(a),6472,x=1,Eu1Zn2Sb2,335,0.000011811,0.0013264,0.00012188,2.3254,0.15336,84666.8360003387,0.0005703965
10954,10.1007/s11664-015-4303-6,5134,3(a),6472,x=1,Eu1Zn2Sb2,335.5,0.000011819,0.0013274,0.00012202,2.324,0.15444,84609.5270327439,0.0005711704
10954,10.1007/s11664-015-4303-6,5134,3(a),6472,x=1,Eu1Zn2Sb2,336,0.000011827,0.0013285,0.00012216,2.3226,0.15552,84552.2955948254,0.0005719883
10954,10.1007/s11664-015-4303-6,5134,3(a),6472,x=1,Eu1Zn2Sb2,336.5,0.000011835,0.0013295,0.0001223,2.3211,0.1566,84495.1415293621,0.0005727888
10954,10.1007/s11664-015-4303-6,5134,3(a),6472,x=1,Eu1Zn2Sb2,337,0.000011843,0.0013305,0.00012243,2.3197,0.15768,84438.0646795575,0.0005735655
10954,10.1007/s11664-015-4303-6,5134,3(a),6472,x=1,Eu1Zn2Sb2,337.5,0.000011851,0.0013316,0.00012257,2.3183,0.15876,84381.0648890389,0.0005743864
10954,10.1007/s11664-015-4303-6,5134,3(a),6472,x=1,Eu1Zn2Sb2,338,0.000011859,0.0013326,0.00012271,2.3169,0.15984,84324.1420018551,0.0005751651
10954,10.1007/s11664-015-4303-6,5134,3(a),6472,x=1,Eu1Zn2Sb2,338.5,0.000011867,0.0013336,0.00012285,2.3155,0.16092,84267.2958624758,0.0005759447
10954,10.1007/s11664-015-4303-6,5134,3(a),6472,x=1,Eu1Zn2Sb2,339,0.000011875,0.0013346,0.00012299,2.314,0.162,84210.5263157895,0.0005767502
10954,10.1007/s11664-015-4303-6,5134,3(a),6472,x=1,Eu1Zn2Sb2,339.5,0.000011883,0.0013357,0.00012312,2.3126,0.16308,84153.8332071026,0.000577575
10954,10.1007/s11664-015-4303-6,5134,3(a),6472,x=1,Eu1Zn2Sb2,340,0.000011891,0.0013367,0.00012326,2.3112,0.16416,84097.2163821377,0.0005783576
10954,10.1007/s11664-015-4303-6,5134,3(a),6472,x=1,Eu1Zn2Sb2,340.5,0.000011899,0.0013377,0.00012339,2.3098,0.16524,84040.6756870325,0.0005791411
10954,10.1007/s11664-015-4303-6,5134,3(a),6472,x=1,Eu1Zn2Sb2,341,0.000011907,0.0013388,0.00012353,2.3084,0.16632,83984.210968338,0.0005799688
10954,10.1007/s11664-015-4303-6,5134,3(a),6472,x=1,Eu1Zn2Sb2,341.5,0.000011915,0.0013398,0.00012367,2.307,0.1674,83927.8220730172,0.0005807542
10954,10.1007/s11664-015-4303-6,5134,3(a),6472,x=1,Eu1Zn2Sb2,342,0.000011923,0.0013408,0.0001238,2.3055,0.16847,83871.5088484442,0.0005815658
10954,10.1007/s11664-015-4303-6,5134,3(a),6472,x=1,Eu1Zn2Sb2,342.5,0.000011931,0.0013419,0.00012394,2.3041,0.16955,83815.2711424021,0.0005823966
10954,10.1007/s11664-015-4303-6,5134,3(a),6472,x=1,Eu1Zn2Sb2,343,0.000011939,0.0013429,0.00012407,2.3027,0.17063,83759.1088030823,0.000583185
10954,10.1007/s11664-015-4303-6,5134,3(a),6472,x=1,Eu1Zn2Sb2,343.5,0.000011947,0.0013439,0.00012421,2.3013,0.17171,83703.0216790826,0.0005839743
10954,10.1007/s11664-015-4303-6,5134,3(a),6472,x=1,Eu1Zn2Sb2,344,0.000011956,0.001345,0.00012434,2.2999,0.17279,83640.0133824021,0.000584808
10954,10.1007/s11664-015-4303-6,5134,3(a),6472,x=1,Eu1Zn2Sb2,344.5,0.000011964,0.001346,0.00012447,2.2984,0.17387,83584.0855901037,0.0005856248
10954,10.1007/s11664-015-4303-6,5134,3(a),6472,x=1,Eu1Zn2Sb2,345,0.000011972,0.001347,0.00012461,2.297,0.17495,83528.2325425994,0.0005864171
10954,10.1007/s11664-015-4303-6,5134,3(a),6472,x=1,Eu1Zn2Sb2,345.5,0.00001198,0.001348,0.00012474,2.2956,0.17603,83472.4540901502,0.0005872103
10954,10.1007/s11664-015-4303-6,5134,3(a),6472,x=1,Eu1Zn2Sb2,346,0.000011988,0.0013491,0.00012487,2.2942,0.17711,83416.7500834168,0.0005880481
10954,10.1007/s11664-015-4303-6,5134,3(a),6472,x=1,Eu1Zn2Sb2,346.5,0.000011996,0.0013501,0.00012501,2.2928,0.17819,83361.1203734578,0.0005888433
10954,10.1007/s11664-015-4303-6,5134,3(a),6472,x=1,Eu1Zn2Sb2,347,0.000012004,0.0013511,0.00012514,2.2914,0.17927,83305.5648117294,0.0005896395
10954,10.1007/s11664-015-4303-6,5134,3(a),6472,x=1,Eu1Zn2Sb2,347.5,0.000012012,0.0013522,0.00012527,2.2899,0.18035,83250.0832500832,0.0005905061
10954,10.1007/s11664-015-4303-6,5134,3(a),6472,x=1,Eu1Zn2Sb2,348,0.00001202,0.0013532,0.0001254,2.2885,0.18143,83194.6755407654,0.0005913043
10954,10.1007/s11664-015-4303-6,5134,3(a),6472,x=1,Eu1Zn2Sb2,348.5,0.000012028,0.0013542,0.00012553,2.2871,0.18251,83139.341536415,0.0005921035
10954,10.1007/s11664-015-4303-6,5134,3(a),6472,x=1,Eu1Zn2Sb2,349,0.000012036,0.0013553,0.00012566,2.2857,0.18359,83084.0810900631,0.0005929475
10954,10.1007/s11664-015-4303-6,5134,3(a),6472,x=1,Eu1Zn2Sb2,349.5,0.000012044,0.0013563,0.00012579,2.2843,0.18467,83028.8940551312,0.0005937486
10954,10.1007/s11664-015-4303-6,5134,3(a),6472,x=1,Eu1Zn2Sb2,350,0.000012052,0.0013573,0.00012593,2.2828,0.18575,82973.7802854298,0.0005945768
10954,10.1007/s11664-015-4303-6,5134,3(a),6472,x=1,Eu1Zn2Sb2,350.5,0.00001206,0.0013584,0.00012606,2.2814,0.18683,82918.7396351575,0.0005954239
10954,10.1007/s11664-015-4303-6,5134,3(a),6472,x=1,Eu1Zn2Sb2,351,0.000012068,0.0013594,0.00012619,2.28,0.18791,82863.7719588996,0.0005962281
10954,10.1007/s11664-015-4303-6,5134,3(a),6472,x=1,Eu1Zn2Sb2,351.5,0.000012076,0.0013604,0.00012632,2.2786,0.18899,82808.8771116264,0.0005970333
10954,10.1007/s11664-015-4303-6,5134,3(a),6472,x=1,Eu1Zn2Sb2,352,0.000012084,0.0013614,0.00012644,2.2772,0.19007,82754.0549486925,0.0005978395
10954,10.1007/s11664-015-4303-6,5134,3(a),6472,x=1,Eu1Zn2Sb2,352.5,0.000012092,0.0013625,0.00012657,2.2758,0.19115,82699.3053258353,0.0005986906
10954,10.1007/s11664-015-4303-6,5134,3(a),6472,x=1,Eu1Zn2Sb2,353,0.0000121,0.0013635,0.0001267,2.2743,0.19223,82644.6280991736,0.0005995251
10954,10.1007/s11664-015-4303-6,5134,3(a),6472,x=1,Eu1Zn2Sb2,353.5,0.000012108,0.0013645,0.00012683,2.2729,0.19331,82590.0231252065,0.0006003344
10954,10.1007/s11664-015-4303-6,5134,3(a),6472,x=1,Eu1Zn2Sb2,354,0.000012116,0.0013656,0.00012696,2.2715,0.19439,82535.4902608121,0.0006011886
10954,10.1007/s11664-015-4303-6,5134,3(a),6472,x=1,Eu1Zn2Sb2,354.5,0.000012124,0.0013666,0.00012709,2.2701,0.19547,82481.0293632465,0.0006019999
10954,10.1007/s11664-015-4303-6,5134,3(a),6472,x=1,Eu1Zn2Sb2,355,0.000012132,0.0013676,0.00012722,2.2687,0.19655,82426.6402901418,0.0006028122
10954,10.1007/s11664-015-4303-6,5134,3(a),6472,x=1,Eu1Zn2Sb2,355.5,0.00001214,0.0013687,0.00012734,2.2672,0.19763,82372.3228995058,0.0006036962
10954,10.1007/s11664-015-4303-6,5134,3(a),6472,x=1,Eu1Zn2Sb2,356,0.000012148,0.0013697,0.00012747,2.2658,0.19871,82318.0770497201,0.0006045105
10954,10.1007/s11664-015-4303-6,5134,3(a),6472,x=1,Eu1Zn2Sb2,356.5,0.000012156,0.0013707,0.0001276,2.2644,0.19979,82263.9025995393,0.0006053259
10954,10.1007/s11664-015-4303-6,5134,3(a),6472,x=1,Eu1Zn2Sb2,357,0.000012164,0.0013718,0.00012772,2.263,0.20087,82209.7994080894,0.0006061865
10954,10.1007/s11664-015-4303-6,5134,3(a),6472,x=1,Eu1Zn2Sb2,357.5,0.000012172,0.0013728,0.00012785,2.2616,0.20195,82155.7673348669,0.0006070039
10954,10.1007/s11664-015-4303-6,5134,3(a),6472,x=1,Eu1Zn2Sb2,358,0.00001218,0.0013738,0.00012798,2.2602,0.20303,82101.8062397373,0.0006078223
10954,10.1007/s11664-015-4303-6,5134,3(a),6472,x=1,Eu1Zn2Sb2,358.5,0.000012188,0.0013748,0.0001281,2.2587,0.20411,82047.915982934,0.0006086687
10954,10.1007/s11664-015-4303-6,5134,3(a),6472,x=1,Eu1Zn2Sb2,359,0.000012197,0.0013759,0.00012823,2.2573,0.20519,81987.3739444126,0.0006095335
10954,10.1007/s11664-015-4303-6,5134,3(a),6472,x=1,Eu1Zn2Sb2,359.5,0.000012205,0.0013769,0.00012836,2.2559,0.20626,81933.6337566571,0.0006103551
10954,10.1007/s11664-015-4303-6,5134,3(a),6472,x=1,Eu1Zn2Sb2,360,0.000012213,0.0013779,0.00012848,2.2545,0.20734,81879.9639728159,0.0006111776
10954,10.1007/s11664-015-4303-6,5134,3(a),6472,x=1,Eu1Zn2Sb2,360.5,0.000012221,0.001379,0.00012861,2.2531,0.20842,81826.3644546273,0.0006120456
10954,10.1007/s11664-015-4303-6,5134,3(a),6472,x=1,Eu1Zn2Sb2,361,0.000012229,0.00138,0.00012873,2.2516,0.2095,81772.8350641917,0.0006128975
10954,10.1007/s11664-015-4303-6,5134,3(a),6472,x=1,Eu1Zn2Sb2,361.5,0.000012237,0.001381,0.00012886,2.2502,0.21058,81719.3756639699,0.0006137232
10954,10.1007/s11664-015-4303-6,5134,3(a),6472,x=1,Eu1Zn2Sb2,362,0.000012245,0.0013821,0.00012898,2.2488,0.21166,81665.9861167824,0.0006145945
10954,10.1007/s11664-015-4303-6,5134,3(a),6472,x=1,Eu1Zn2Sb2,362.5,0.000012253,0.0013831,0.0001291,2.2474,0.21274,81612.6662858076,0.0006154223
10954,10.1007/s11664-015-4303-6,5134,3(a),6472,x=1,Eu1Zn2Sb2,363,0.000012261,0.0013841,0.00012923,2.246,0.21382,81559.4160345812,0.0006162511
10954,10.1007/s11664-015-4303-6,5134,3(a),6472,x=1,Eu1Zn2Sb2,363.5,0.000012269,0.0013852,0.00012935,2.2446,0.2149,81506.2352269949,0.0006171255
10954,10.1007/s11664-015-4303-6,5134,3(a),6472,x=1,Eu1Zn2Sb2,364,0.000012277,0.0013862,0.00012947,2.2431,0.21598,81453.123727295,0.000617984