sid,DOI,figureid,fignum,sampleid,samplename,composition,Temperature,Electrical resistivity,Power factor,Seebeck coefficient,Thermal conductivity,ZT,Electrical conductivity,Figure of merit Z
10954,10.1007/s11664-015-4303-6,5134,3(a),6470,x=0.7,Ca0.3Eu0.7Zn2Sb2,616.5,0.000020972,0.0014454,0.00017323,1.9006,0.47141,47682.6244516498,0.0007604967
10954,10.1007/s11664-015-4303-6,5134,3(a),6470,x=0.7,Ca0.3Eu0.7Zn2Sb2,617,0.000020985,0.001446,0.00017333,1.8991,0.47207,47653.0855372885,0.0007614133
10954,10.1007/s11664-015-4303-6,5134,3(a),6470,x=0.7,Ca0.3Eu0.7Zn2Sb2,617.5,0.000020998,0.0014467,0.00017342,1.8975,0.47273,47623.5831983998,0.0007624242
10954,10.1007/s11664-015-4303-6,5134,3(a),6470,x=0.7,Ca0.3Eu0.7Zn2Sb2,618,0.000021011,0.0014474,0.00017352,1.8959,0.4734,47594.1173670934,0.0007634369
10954,10.1007/s11664-015-4303-6,5134,3(a),6470,x=0.7,Ca0.3Eu0.7Zn2Sb2,618.5,0.000021024,0.0014481,0.00017361,1.8943,0.47406,47564.6879756469,0.0007644512
10954,10.1007/s11664-015-4303-6,5134,3(a),6470,x=0.7,Ca0.3Eu0.7Zn2Sb2,619,0.000021036,0.0014488,0.00017371,1.8927,0.47472,47537.5546681879,0.0007654673
10954,10.1007/s11664-015-4303-6,5134,3(a),6470,x=0.7,Ca0.3Eu0.7Zn2Sb2,619.5,0.000021049,0.0014495,0.0001738,1.8911,0.47539,47508.1951636657,0.0007664851
10954,10.1007/s11664-015-4303-6,5134,3(a),6470,x=0.7,Ca0.3Eu0.7Zn2Sb2,620,0.000021062,0.0014501,0.0001739,1.8895,0.47605,47478.8719020036,0.0007674517
10954,10.1007/s11664-015-4303-6,5134,3(a),6470,x=0.7,Ca0.3Eu0.7Zn2Sb2,620.5,0.000021075,0.0014508,0.00017399,1.8879,0.47672,47449.5848161329,0.0007684729
10954,10.1007/s11664-015-4303-6,5134,3(a),6470,x=0.7,Ca0.3Eu0.7Zn2Sb2,621,0.000021088,0.0014515,0.00017409,1.8864,0.47738,47420.3338391502,0.000769455
10954,10.1007/s11664-015-4303-6,5134,3(a),6470,x=0.7,Ca0.3Eu0.7Zn2Sb2,621.5,0.000021101,0.0014522,0.00017418,1.8848,0.47804,47391.1189043173,0.0007704796
10954,10.1007/s11664-015-4303-6,5134,3(a),6470,x=0.7,Ca0.3Eu0.7Zn2Sb2,622,0.000021113,0.0014529,0.00017428,1.8832,0.47871,47364.1832046606,0.0007715059
10954,10.1007/s11664-015-4303-6,5134,3(a),6470,x=0.7,Ca0.3Eu0.7Zn2Sb2,622.5,0.000021126,0.0014535,0.00017437,1.8816,0.47937,47335.0373946795,0.0007724809
10954,10.1007/s11664-015-4303-6,5134,3(a),6470,x=0.7,Ca0.3Eu0.7Zn2Sb2,623,0.000021139,0.0014542,0.00017447,1.88,0.48003,47305.9274327073,0.0007735106
10954,10.1007/s11664-015-4303-6,5134,3(a),6470,x=0.7,Ca0.3Eu0.7Zn2Sb2,623.5,0.000021152,0.0014549,0.00017456,1.8784,0.4807,47276.8532526475,0.0007745422
10954,10.1007/s11664-015-4303-6,5134,3(a),6470,x=0.7,Ca0.3Eu0.7Zn2Sb2,624,0.000021165,0.0014556,0.00017466,1.8768,0.48136,47247.814788566,0.0007755754
10954,10.1007/s11664-015-4303-6,5134,3(a),6470,x=0.7,Ca0.3Eu0.7Zn2Sb2,624.5,0.000021178,0.0014563,0.00017475,1.8753,0.48203,47218.8119746907,0.0007765691
10954,10.1007/s11664-015-4303-6,5134,3(a),6470,x=0.7,Ca0.3Eu0.7Zn2Sb2,625,0.00002119,0.001457,0.00017485,1.8737,0.48269,47192.071731949,0.0007776058
10954,10.1007/s11664-015-4303-6,5134,3(a),6470,x=0.7,Ca0.3Eu0.7Zn2Sb2,625.5,0.000021203,0.0014576,0.00017494,1.8721,0.48335,47163.1372918927,0.0007785909
10954,10.1007/s11664-015-4303-6,5134,3(a),6470,x=0.7,Ca0.3Eu0.7Zn2Sb2,626,0.000021216,0.0014583,0.00017504,1.8705,0.48402,47134.2383107089,0.0007796311
10954,10.1007/s11664-015-4303-6,5134,3(a),6470,x=0.7,Ca0.3Eu0.7Zn2Sb2,626.5,0.000021229,0.001459,0.00017513,1.8689,0.48468,47105.3747232559,0.0007806731
10954,10.1007/s11664-015-4303-6,5134,3(a),6470,x=0.7,Ca0.3Eu0.7Zn2Sb2,627,0.000021242,0.0014597,0.00017523,1.8673,0.48534,47076.5464645514,0.0007817169
10954,10.1007/s11664-015-4303-6,5134,3(a),6470,x=0.7,Ca0.3Eu0.7Zn2Sb2,627.5,0.000021255,0.0014604,0.00017532,1.8657,0.48601,47047.7534697718,0.0007827625
10954,10.1007/s11664-015-4303-6,5134,3(a),6470,x=0.7,Ca0.3Eu0.7Zn2Sb2,628,0.000021268,0.0014611,0.00017542,1.8641,0.48667,47018.9956742524,0.0007838099
10954,10.1007/s11664-015-4303-6,5134,3(a),6470,x=0.7,Ca0.3Eu0.7Zn2Sb2,628.5,0.00002128,0.0014617,0.00017551,1.8626,0.48734,46992.4812030075,0.0007847632
10954,10.1007/s11664-015-4303-6,5134,3(a),6470,x=0.7,Ca0.3Eu0.7Zn2Sb2,629,0.000021293,0.0014624,0.00017561,1.861,0.488,46963.7909172028,0.0007858141
10954,10.1007/s11664-015-4303-6,5134,3(a),6470,x=0.7,Ca0.3Eu0.7Zn2Sb2,629.5,0.000021306,0.0014631,0.0001757,1.8594,0.48866,46935.135642542,0.0007868667
10954,10.1007/s11664-015-4303-6,5134,3(a),6470,x=0.7,Ca0.3Eu0.7Zn2Sb2,630,0.000021319,0.0014638,0.0001758,1.8578,0.48933,46906.5153149773,0.0007879212
10954,10.1007/s11664-015-4303-6,5134,3(a),6470,x=0.7,Ca0.3Eu0.7Zn2Sb2,630.5,0.000021332,0.0014645,0.00017589,1.8562,0.48999,46877.9298706169,0.0007889775
10954,10.1007/s11664-015-4303-6,5134,3(a),6470,x=0.7,Ca0.3Eu0.7Zn2Sb2,631,0.000021345,0.0014651,0.00017599,1.8546,0.49065,46849.379245725,0.0007899817
10954,10.1007/s11664-015-4303-6,5134,3(a),6470,x=0.7,Ca0.3Eu0.7Zn2Sb2,631.5,0.000021357,0.0014658,0.00017608,1.853,0.49132,46823.0556726132,0.0007910416
10954,10.1007/s11664-015-4303-6,5134,3(a),6470,x=0.7,Ca0.3Eu0.7Zn2Sb2,632,0.00002137,0.0014665,0.00017618,1.8514,0.49198,46794.5718296678,0.0007921033
10954,10.1007/s11664-015-4303-6,5134,3(a),6470,x=0.7,Ca0.3Eu0.7Zn2Sb2,632.5,0.000021383,0.0014672,0.00017627,1.8499,0.49265,46766.1226207735,0.000793124
10954,10.1007/s11664-015-4303-6,5134,3(a),6470,x=0.7,Ca0.3Eu0.7Zn2Sb2,633,0.000021396,0.0014679,0.00017636,1.8483,0.49331,46737.7079828005,0.0007941893
10954,10.1007/s11664-015-4303-6,5134,3(a),6470,x=0.7,Ca0.3Eu0.7Zn2Sb2,633.5,0.000021409,0.0014686,0.00017646,1.8467,0.49397,46709.3278527722,0.0007952564
10954,10.1007/s11664-015-4303-6,5134,3(a),6470,x=0.7,Ca0.3Eu0.7Zn2Sb2,634,0.000021422,0.0014692,0.00017655,1.8451,0.49464,46680.9821678648,0.0007962712
10954,10.1007/s11664-015-4303-6,5134,3(a),6470,x=0.7,Ca0.3Eu0.7Zn2Sb2,634.5,0.000021434,0.0014699,0.00017665,1.8435,0.4953,46654.8474386489,0.000797342
10954,10.1007/s11664-015-4303-6,5134,3(a),6470,x=0.7,Ca0.3Eu0.7Zn2Sb2,635,0.000021447,0.0014706,0.00017674,1.8419,0.49596,46626.5678183429,0.0007984147
10954,10.1007/s11664-015-4303-6,5134,3(a),6470,x=0.7,Ca0.3Eu0.7Zn2Sb2,635.5,0.00002146,0.0014713,0.00017684,1.8403,0.49663,46598.3224603914,0.0007994892
10954,10.1007/s11664-015-4303-6,5134,3(a),6470,x=0.7,Ca0.3Eu0.7Zn2Sb2,636,0.000021473,0.001472,0.00017693,1.8387,0.49729,46570.111302566,0.0008005656
10954,10.1007/s11664-015-4303-6,5134,3(a),6470,x=0.7,Ca0.3Eu0.7Zn2Sb2,636.5,0.000021486,0.0014727,0.00017703,1.8372,0.49796,46541.9342827888,0.0008016003
10954,10.1007/s11664-015-4303-6,5134,3(a),6470,x=0.7,Ca0.3Eu0.7Zn2Sb2,637,0.000021499,0.0014733,0.00017712,1.8356,0.49862,46513.7913391321,0.0008026258
10954,10.1007/s11664-015-4303-6,5134,3(a),6470,x=0.7,Ca0.3Eu0.7Zn2Sb2,637.5,0.000021511,0.001474,0.00017722,1.834,0.49928,46487.8434289433,0.0008037077
10954,10.1007/s11664-015-4303-6,5134,3(a),6470,x=0.7,Ca0.3Eu0.7Zn2Sb2,638,0.000021524,0.0014747,0.00017731,1.8324,0.49995,46459.7658427802,0.0008047915
10954,10.1007/s11664-015-4303-6,5134,3(a),6470,x=0.7,Ca0.3Eu0.7Zn2Sb2,638.5,0.000021537,0.0014754,0.00017741,1.8308,0.50061,46431.7221525746,0.0008058772
10954,10.1007/s11664-015-4303-6,5134,3(a),6470,x=0.7,Ca0.3Eu0.7Zn2Sb2,639,0.00002155,0.0014761,0.0001775,1.8292,0.50127,46403.7122969838,0.0008069648
10954,10.1007/s11664-015-4303-6,5134,3(a),6470,x=0.7,Ca0.3Eu0.7Zn2Sb2,639.5,0.000021563,0.0014767,0.0001776,1.8276,0.50194,46375.7362148124,0.0008079996
10954,10.1007/s11664-015-4303-6,5134,3(a),6470,x=0.7,Ca0.3Eu0.7Zn2Sb2,640,0.000021576,0.0014774,0.00017769,1.8261,0.5026,46347.793845013,0.0008090466
10954,10.1007/s11664-015-4303-6,5134,3(a),6470,x=0.7,Ca0.3Eu0.7Zn2Sb2,640.5,0.000021589,0.0014781,0.00017779,1.8245,0.50327,46319.8851266849,0.0008101398
10954,10.1007/s11664-015-4303-6,5134,3(a),6470,x=0.7,Ca0.3Eu0.7Zn2Sb2,641,0.000021601,0.0014788,0.00017788,1.8229,0.50393,46294.15304847,0.0008112348
10954,10.1007/s11664-015-4303-6,5134,3(a),6470,x=0.7,Ca0.3Eu0.7Zn2Sb2,641.5,0.000021614,0.0014795,0.00017798,1.8213,0.50459,46266.308873878,0.0008123319
10954,10.1007/s11664-015-4303-6,5134,3(a),6470,x=0.7,Ca0.3Eu0.7Zn2Sb2,642,0.000021627,0.0014802,0.00017807,1.8197,0.50526,46238.4981735793,0.0008134308
10954,10.1007/s11664-015-4303-6,5134,3(a),6470,x=0.7,Ca0.3Eu0.7Zn2Sb2,642.5,0.00002164,0.0014808,0.00017817,1.8181,0.50592,46210.7208872458,0.0008144767
10954,10.1007/s11664-015-4303-6,5134,3(a),6470,x=0.7,Ca0.3Eu0.7Zn2Sb2,643,0.000021653,0.0014815,0.00017826,1.8165,0.50658,46182.9769546945,0.0008155794
10954,10.1007/s11664-015-4303-6,5134,3(a),6470,x=0.7,Ca0.3Eu0.7Zn2Sb2,643.5,0.000021666,0.0014822,0.00017836,1.8149,0.50725,46155.2663158866,0.0008166841
10954,10.1007/s11664-015-4303-6,5134,3(a),6470,x=0.7,Ca0.3Eu0.7Zn2Sb2,644,0.000021678,0.0014829,0.00017845,1.8134,0.50791,46129.7167635391,0.0008177457
10954,10.1007/s11664-015-4303-6,5134,3(a),6470,x=0.7,Ca0.3Eu0.7Zn2Sb2,644.5,0.000021691,0.0014836,0.00017855,1.8118,0.50858,46102.0699829422,0.0008188542
10954,10.1007/s11664-015-4303-6,5134,3(a),6470,x=0.7,Ca0.3Eu0.7Zn2Sb2,645,0.000021704,0.0014842,0.00017864,1.8102,0.50924,46074.4563214154,0.0008199094
10954,10.1007/s11664-015-4303-6,5134,3(a),6470,x=0.7,Ca0.3Eu0.7Zn2Sb2,645.5,0.000021717,0.0014849,0.00017874,1.8086,0.5099,46046.8757194824,0.0008210218
10954,10.1007/s11664-015-4303-6,5134,3(a),6470,x=0.7,Ca0.3Eu0.7Zn2Sb2,646,0.00002173,0.0014856,0.00017883,1.807,0.51057,46019.3281178095,0.0008221361
10954,10.1007/s11664-015-4303-6,5134,3(a),6470,x=0.7,Ca0.3Eu0.7Zn2Sb2,646.5,0.000021743,0.0014863,0.00017893,1.8054,0.51123,45991.8134572046,0.0008232525
10954,10.1007/s11664-015-4303-6,5134,3(a),6470,x=0.7,Ca0.3Eu0.7Zn2Sb2,647,0.000021755,0.001487,0.00017902,1.8038,0.51189,45966.4444955183,0.0008243708
10954,10.1007/s11664-015-4303-6,5134,3(a),6470,x=0.7,Ca0.3Eu0.7Zn2Sb2,647.5,0.000021768,0.0014877,0.00017912,1.8022,0.51256,45938.9930172731,0.0008254911
10954,10.1007/s11664-015-4303-6,5134,3(a),6470,x=0.7,Ca0.3Eu0.7Zn2Sb2,648,0.000021781,0.0014883,0.00017921,1.8007,0.51322,45911.574307883,0.0008265119
10954,10.1007/s11664-015-4303-6,5134,3(a),6470,x=0.7,Ca0.3Eu0.7Zn2Sb2,648.5,0.000021794,0.001489,0.00017931,1.7991,0.51389,45884.1883087088,0.000827636
10954,10.1007/s11664-015-4303-6,5134,3(a),6470,x=0.7,Ca0.3Eu0.7Zn2Sb2,649,0.000021807,0.0014897,0.0001794,1.7975,0.51455,45856.834961251,0.0008287622
10954,10.1007/s11664-015-4303-6,5134,3(a),6470,x=0.7,Ca0.3Eu0.7Zn2Sb2,649.5,0.00002182,0.0014904,0.0001795,1.7959,0.51521,45829.5142071494,0.0008298903
10954,10.1007/s11664-015-4303-6,5134,3(a),6470,x=0.7,Ca0.3Eu0.7Zn2Sb2,650,0.000021833,0.0014911,0.00017959,1.7943,0.51588,45802.225988183,0.0008310205
10954,10.1007/s11664-015-4303-6,5134,3(a),6470,x=0.7,Ca0.3Eu0.7Zn2Sb2,650.5,0.000021845,0.0014918,0.00017969,1.7927,0.51654,45777.0656900893,0.0008321526
10954,10.1007/s11664-015-4303-6,5134,3(a),6470,x=0.7,Ca0.3Eu0.7Zn2Sb2,651,0.000021858,0.0014924,0.00017978,1.7911,0.5172,45749.8398755604,0.000833231
10954,10.1007/s11664-015-4303-6,5134,3(a),6470,x=0.7,Ca0.3Eu0.7Zn2Sb2,651.5,0.000021871,0.0014931,0.00017987,1.7895,0.51787,45722.6464267752,0.0008343671
10954,10.1007/s11664-015-4303-6,5134,3(a),6470,x=0.7,Ca0.3Eu0.7Zn2Sb2,652,0.000021884,0.0014938,0.00017997,1.788,0.51853,45695.4852860537,0.0008354586
10954,10.1007/s11664-015-4303-6,5134,3(a),6470,x=0.7,Ca0.3Eu0.7Zn2Sb2,652.5,0.000021897,0.0014945,0.00018006,1.7864,0.5192,45668.3563958533,0.0008365987
10954,10.1007/s11664-015-4303-6,5134,3(a),6470,x=0.7,Ca0.3Eu0.7Zn2Sb2,653,0.00002191,0.0014952,0.00018016,1.7848,0.51986,45641.2596987677,0.0008377409
10954,10.1007/s11664-015-4303-6,5134,3(a),6470,x=0.7,Ca0.3Eu0.7Zn2Sb2,653.5,0.000021922,0.0014958,0.00018025,1.7832,0.52052,45616.2758872366,0.0008388291
10954,10.1007/s11664-015-4303-6,5134,3(a),6470,x=0.7,Ca0.3Eu0.7Zn2Sb2,654,0.000021935,0.0014965,0.00018035,1.7816,0.52119,45589.2409391384,0.0008399753
10954,10.1007/s11664-015-4303-6,5134,3(a),6470,x=0.7,Ca0.3Eu0.7Zn2Sb2,654.5,0.000021948,0.0014972,0.00018044,1.78,0.52185,45562.2380171314,0.0008411236
10954,10.1007/s11664-015-4303-6,5134,3(a),6470,x=0.7,Ca0.3Eu0.7Zn2Sb2,655,0.000021961,0.0014979,0.00018054,1.7784,0.52251,45535.2670643413,0.000842274
10954,10.1007/s11664-015-4303-6,5134,3(a),6470,x=0.7,Ca0.3Eu0.7Zn2Sb2,655.5,0.000021974,0.0014986,0.00018063,1.7769,0.52318,45508.3280240284,0.0008433789
10954,10.1007/s11664-015-4303-6,5134,3(a),6470,x=0.7,Ca0.3Eu0.7Zn2Sb2,656,0.000021987,0.0014993,0.00018073,1.7753,0.52384,45481.420839587,0.0008445333
10954,10.1007/s11664-015-4303-6,5134,3(a),6470,x=0.7,Ca0.3Eu0.7Zn2Sb2,656.5,0.000021999,0.0014999,0.00018082,1.7737,0.52451,45456.6116641666,0.0008456334
10954,10.1007/s11664-015-4303-6,5134,3(a),6470,x=0.7,Ca0.3Eu0.7Zn2Sb2,657,0.000022012,0.0015006,0.00018092,1.7721,0.52517,45429.7655824096,0.0008467919
10954,10.1007/s11664-015-4303-6,5134,3(a),6470,x=0.7,Ca0.3Eu0.7Zn2Sb2,657.5,0.000022025,0.0015013,0.00018101,1.7705,0.52583,45402.9511918275,0.0008479526
10954,10.1007/s11664-015-4303-6,5134,3(a),6470,x=0.7,Ca0.3Eu0.7Zn2Sb2,658,0.000022038,0.001502,0.00018111,1.7689,0.5265,45376.1684363372,0.0008491153
10954,10.1007/s11664-015-4303-6,5134,3(a),6470,x=0.7,Ca0.3Eu0.7Zn2Sb2,658.5,0.000022051,0.0015027,0.0001812,1.7673,0.52716,45349.4172599882,0.0008502801
10954,10.1007/s11664-015-4303-6,5134,3(a),6470,x=0.7,Ca0.3Eu0.7Zn2Sb2,659,0.000022064,0.0015034,0.0001813,1.7657,0.52782,45322.6976069616,0.000851447
10954,10.1007/s11664-015-4303-6,5134,3(a),6470,x=0.7,Ca0.3Eu0.7Zn2Sb2,659.5,0.000022077,0.001504,0.00018139,1.7642,0.52849,45296.00942157,0.0008525111
10954,10.1007/s11664-015-4303-6,5134,3(a),6470,x=0.7,Ca0.3Eu0.7Zn2Sb2,660,0.000022089,0.0015047,0.00018149,1.7626,0.52915,45271.4020553216,0.0008536821
10954,10.1007/s11664-015-4303-6,5134,3(a),6470,x=0.7,Ca0.3Eu0.7Zn2Sb2,660.5,0.000022102,0.0015054,0.00018158,1.761,0.52982,45244.7742285766,0.0008548552
10954,10.1007/s11664-015-4303-6,5134,3(a),6470,x=0.7,Ca0.3Eu0.7Zn2Sb2,661,0.000022115,0.0015061,0.00018168,1.7594,0.53048,45218.1777074384,0.0008560305
10954,10.1007/s11664-015-4303-6,5134,3(a),6470,x=0.7,Ca0.3Eu0.7Zn2Sb2,661.5,0.000022128,0.0015068,0.00018177,1.7578,0.53114,45191.6124367317,0.0008572079
10954,10.1007/s11664-015-4303-6,5134,3(a),6470,x=0.7,Ca0.3Eu0.7Zn2Sb2,662,0.000022141,0.0015074,0.00018187,1.7562,0.53181,45165.078361411,0.0008583305
10954,10.1007/s11664-015-4303-6,5134,3(a),6470,x=0.7,Ca0.3Eu0.7Zn2Sb2,662.5,0.000022154,0.0015081,0.00018196,1.7546,0.53247,45138.5754265595,0.0008595121
10954,10.1007/s11664-015-4303-6,5134,3(a),6470,x=0.7,Ca0.3Eu0.7Zn2Sb2,663,0.000022166,0.0015088,0.00018206,1.753,0.53313,45114.1387710909,0.0008606959
10954,10.1007/s11664-015-4303-6,5134,3(a),6470,x=0.7,Ca0.3Eu0.7Zn2Sb2,663.5,0.000022179,0.0015095,0.00018215,1.7515,0.5338,45087.6955678795,0.0008618327
10954,10.1007/s11664-015-4303-6,5134,3(a),6470,x=0.7,Ca0.3Eu0.7Zn2Sb2,664,0.000022192,0.0015102,0.00018225,1.7499,0.53446,45061.2833453497,0.0008630207
10954,10.1007/s11664-015-4303-6,5134,3(a),6470,x=0.7,Ca0.3Eu0.7Zn2Sb2,664.5,0.000022205,0.0015109,0.00018234,1.7483,0.53513,45034.9020490881,0.0008642109
10954,10.1007/s11664-015-4303-6,5134,3(a),6470,x=0.7,Ca0.3Eu0.7Zn2Sb2,665,0.000022218,0.0015115,0.00018244,1.7467,0.53579,45008.5516248087,0.0008653461
10954,10.1007/s11664-015-4303-6,5134,3(a),6470,x=0.7,Ca0.3Eu0.7Zn2Sb2,665.5,0.000022231,0.0015122,0.00018253,1.7451,0.53645,44982.2320183527,0.0008665406
10954,10.1007/s11664-015-4303-6,5134,3(a),6470,x=0.7,Ca0.3Eu0.7Zn2Sb2,666,0.000022243,0.0015129,0.00018263,1.7435,0.53712,44957.9643033763,0.0008677373
10954,10.1007/s11664-015-4303-6,5134,3(a),6470,x=0.7,Ca0.3Eu0.7Zn2Sb2,666.5,0.000022256,0.0015136,0.00018272,1.7419,0.53778,44931.7038102085,0.0008689362
10954,10.1007/s11664-015-4303-6,5134,3(a),6470,x=0.7,Ca0.3Eu0.7Zn2Sb2,667,0.000022269,0.0015143,0.00018282,1.7403,0.53844,44905.4739772778,0.0008701373
10954,10.1007/s11664-015-4303-6,5134,3(a),6470,x=0.7,Ca0.3Eu0.7Zn2Sb2,667.5,0.000022282,0.0015149,0.00018291,1.7388,0.53911,44879.27475092,0.000871233
10954,10.1007/s11664-015-4303-6,5134,3(a),6470,x=0.7,Ca0.3Eu0.7Zn2Sb2,668,0.000022295,0.0015156,0.00018301,1.7372,0.53977,44853.1060775959,0.0008724384
10954,10.1007/s11664-015-4303-6,5134,3(a),6470,x=0.7,Ca0.3Eu0.7Zn2Sb2,668.5,0.000022308,0.0015163,0.0001831,1.7356,0.54044,44826.967903891,0.000873646
10954,10.1007/s11664-015-4303-6,5134,3(a),6470,x=0.7,Ca0.3Eu0.7Zn2Sb2,669,0.00002232,0.001517,0.0001832,1.734,0.5411,44802.8673835125,0.0008748558
10954,10.1007/s11664-015-4303-6,5134,3(a),6470,x=0.7,Ca0.3Eu0.7Zn2Sb2,669.5,0.000022333,0.0015177,0.00018329,1.7324,0.54176,44776.7877132494,0.0008760679
10954,10.1007/s11664-015-4303-6,5134,3(a),6470,x=0.7,Ca0.3Eu0.7Zn2Sb2,670,0.000022346,0.0015184,0.00018338,1.7308,0.54243,44750.7383871834,0.0008772822
10954,10.1007/s11664-015-4303-6,5134,3(a),6470,x=0.7,Ca0.3Eu0.7Zn2Sb2,670.5,0.000022359,0.001519,0.00018348,1.7292,0.54309,44724.7193523861,0.0008784409
10954,10.1007/s11664-015-4303-6,5134,3(a),6470,x=0.7,Ca0.3Eu0.7Zn2Sb2,671,0.000022372,0.0015197,0.00018357,1.7277,0.54375,44698.7305560522,0.0008796087
10954,10.1007/s11664-015-4303-6,5134,3(a),6470,x=0.7,Ca0.3Eu0.7Zn2Sb2,671.5,0.000022385,0.0015204,0.00018367,1.7261,0.54442,44672.7719454992,0.0008808296
10954,10.1007/s11664-015-4303-6,5134,3(a),6470,x=0.7,Ca0.3Eu0.7Zn2Sb2,672,0.000022398,0.0015211,0.00018376,1.7245,0.54508,44646.8434681668,0.0008820528
10954,10.1007/s11664-015-4303-6,5134,3(a),6470,x=0.7,Ca0.3Eu0.7Zn2Sb2,672.5,0.00002241,0.0015218,0.00018386,1.7229,0.54575,44622.9361892012,0.0008832782
10954,10.1007/s11664-015-4303-6,5134,3(a),6470,x=0.7,Ca0.3Eu0.7Zn2Sb2,673,0.000022423,0.0015225,0.00018395,1.7213,0.54641,44597.0655130892,0.0008845059
10954,10.1007/s11664-015-4303-6,5134,3(a),6470,x=0.7,Ca0.3Eu0.7Zn2Sb2,673.5,0.000022436,0.0015231,0.00018405,1.7197,0.54707,44571.224817258,0.0008856777
10954,10.1007/s11664-015-4303-6,5134,3(a),6470,x=0.7,Ca0.3Eu0.7Zn2Sb2,674,0.000022449,0.0015238,0.00018414,1.7181,0.54774,44545.4140496236,0.00088691
10954,10.1007/s11664-015-4303-6,5134,3(a),6470,x=0.7,Ca0.3Eu0.7Zn2Sb2,674.5,0.000022462,0.0015245,0.00018424,1.7165,0.5484,44519.6331582228,0.0008881445
10954,10.1007/s11664-015-4303-6,5134,3(a),6470,x=0.7,Ca0.3Eu0.7Zn2Sb2,675,0.000022475,0.0015252,0.00018433,1.715,0.54906,44493.8820912125,0.0008893294
10954,10.1007/s11664-015-4303-6,5134,3(a),6470,x=0.7,Ca0.3Eu0.7Zn2Sb2,675.5,0.000022487,0.0015259,0.00018443,1.7134,0.54973,44470.1383021301,0.0008905685
10954,10.1007/s11664-015-4303-6,5134,3(a),6470,x=0.7,Ca0.3Eu0.7Zn2Sb2,676,0.0000225,0.0015265,0.00018452,1.7118,0.55039,44444.4444444444,0.0008917514
10954,10.1007/s11664-015-4303-6,5134,3(a),6470,x=0.7,Ca0.3Eu0.7Zn2Sb2,676.5,0.000022513,0.0015272,0.00018462,1.7102,0.55106,44418.7802602941,0.000892995
10954,10.1007/s11664-015-4303-6,5134,3(a),6470,x=0.7,Ca0.3Eu0.7Zn2Sb2,677,0.000022526,0.0015279,0.00018471,1.7086,0.55172,44393.1456983042,0.0008942409
10954,10.1007/s11664-015-4303-6,5134,3(a),6470,x=0.7,Ca0.3Eu0.7Zn2Sb2,677.5,0.000022539,0.0015286,0.00018481,1.707,0.55238,44367.5407072186,0.0008954892
10954,10.1007/s11664-015-4303-6,5134,3(a),6470,x=0.7,Ca0.3Eu0.7Zn2Sb2,678,0.000022552,0.0015293,0.0001849,1.7054,0.55305,44341.9652358993,0.0008967398
10954,10.1007/s11664-015-4303-6,5134,3(a),6470,x=0.7,Ca0.3Eu0.7Zn2Sb2,678.5,0.000022564,0.00153,0.000185,1.7038,0.55371,44318.3832653785,0.0008979927
10954,10.1007/s11664-015-4303-6,5134,3(a),6470,x=0.7,Ca0.3Eu0.7Zn2Sb2,679,0.000022577,0.0015306,0.00018509,1.7023,0.55438,44292.864419542,0.0008991365
10954,10.1007/s11664-015-4303-6,5134,3(a),6470,x=0.7,Ca0.3Eu0.7Zn2Sb2,679.5,0.00002259,0.0015313,0.00018519,1.7007,0.55504,44267.3749446658,0.000900394
10954,10.1007/s11664-015-4303-6,5134,3(a),6470,x=0.7,Ca0.3Eu0.7Zn2Sb2,680,0.000022603,0.001532,0.00018528,1.6991,0.5557,44241.9147900721,0.0009016538
10954,10.1007/s11664-015-4303-6,5134,3(a),6470,x=0.7,Ca0.3Eu0.7Zn2Sb2,680.5,0.000022616,0.0015327,0.00018538,1.6975,0.55637,44216.4839051999,0.0009029161
10954,10.1007/s11664-015-4303-6,5134,3(a),6470,x=0.7,Ca0.3Eu0.7Zn2Sb2,681,0.000022629,0.0015334,0.00018547,1.6959,0.55703,44191.082239604,0.0009041807