sid,DOI,figureid,fignum,sampleid,samplename,composition,Temperature,Electrical resistivity,Power factor,Seebeck coefficient,Thermal conductivity,ZT,Electrical conductivity,Figure of merit Z
73,10.1016/j.actamat.2015.04.023,4591,3(a),5858,x=0.006,Mg2.994Na0.006Sb2,323.5,0.00007237,0.00025213,0.00012194,1.4748,0.046418,13817.8803371563,0.0001709588
73,10.1016/j.actamat.2015.04.023,4591,3(a),5858,x=0.006,Mg2.994Na0.006Sb2,324,0.000072384,0.00025254,0.00012206,1.474,0.046955,13815.207780725,0.0001713297
73,10.1016/j.actamat.2015.04.023,4591,3(a),5858,x=0.006,Mg2.994Na0.006Sb2,324.5,0.000072398,0.00025295,0.00012218,1.4731,0.047491,13812.5362579077,0.0001717127
73,10.1016/j.actamat.2015.04.023,4591,3(a),5858,x=0.006,Mg2.994Na0.006Sb2,325,0.000072412,0.00025336,0.0001223,1.4723,0.048028,13809.8657681047,0.0001720845
73,10.1016/j.actamat.2015.04.023,4591,3(a),5858,x=0.006,Mg2.994Na0.006Sb2,325.5,0.000072427,0.00025378,0.00012243,1.4715,0.048564,13807.0056746793,0.0001724635
73,10.1016/j.actamat.2015.04.023,4591,3(a),5858,x=0.006,Mg2.994Na0.006Sb2,326,0.000072441,0.00025419,0.00012255,1.4706,0.049101,13804.3373227868,0.0001728478
73,10.1016/j.actamat.2015.04.023,4591,3(a),5858,x=0.006,Mg2.994Na0.006Sb2,326.5,0.000072455,0.0002546,0.00012267,1.4698,0.049637,13801.6700020703,0.0001732208
73,10.1016/j.actamat.2015.04.023,4591,3(a),5858,x=0.006,Mg2.994Na0.006Sb2,327,0.00007247,0.00025501,0.00012279,1.4689,0.050174,13798.813302056,0.0001736061
73,10.1016/j.actamat.2015.04.023,4591,3(a),5858,x=0.006,Mg2.994Na0.006Sb2,327.5,0.000072484,0.00025542,0.00012291,1.4681,0.05071,13796.1481154462,0.00017398
73,10.1016/j.actamat.2015.04.023,4591,3(a),5858,x=0.006,Mg2.994Na0.006Sb2,328,0.000072498,0.00025583,0.00012303,1.4672,0.051247,13793.4839581782,0.0001743661
73,10.1016/j.actamat.2015.04.023,4591,3(a),5858,x=0.006,Mg2.994Na0.006Sb2,328.5,0.000072513,0.00025624,0.00012315,1.4664,0.051784,13790.6306455394,0.0001747409
73,10.1016/j.actamat.2015.04.023,4591,3(a),5858,x=0.006,Mg2.994Na0.006Sb2,329,0.000072527,0.00025665,0.00012327,1.4655,0.05232,13787.9686185834,0.0001751279
73,10.1016/j.actamat.2015.04.023,4591,3(a),5858,x=0.006,Mg2.994Na0.006Sb2,329.5,0.000072541,0.00025706,0.00012339,1.4647,0.052857,13785.3076191395,0.0001755035
73,10.1016/j.actamat.2015.04.023,4591,3(a),5858,x=0.006,Mg2.994Na0.006Sb2,330,0.000072556,0.00025747,0.00012351,1.4638,0.053393,13782.4576878549,0.0001758915
73,10.1016/j.actamat.2015.04.023,4591,3(a),5858,x=0.006,Mg2.994Na0.006Sb2,330.5,0.00007257,0.00025788,0.00012363,1.463,0.05393,13779.7988149373,0.0001762679
73,10.1016/j.actamat.2015.04.023,4591,3(a),5858,x=0.006,Mg2.994Na0.006Sb2,331,0.000072584,0.00025829,0.00012376,1.4621,0.054466,13777.1409677064,0.0001766569
73,10.1016/j.actamat.2015.04.023,4591,3(a),5858,x=0.006,Mg2.994Na0.006Sb2,331.5,0.000072598,0.0002587,0.00012388,1.4613,0.055003,13774.4841455687,0.0001770341
73,10.1016/j.actamat.2015.04.023,4591,3(a),5858,x=0.006,Mg2.994Na0.006Sb2,332,0.000072613,0.00025912,0.000124,1.4604,0.055539,13771.6386872874,0.0001774308
73,10.1016/j.actamat.2015.04.023,4591,3(a),5858,x=0.006,Mg2.994Na0.006Sb2,332.5,0.000072627,0.00025953,0.00012412,1.4596,0.056076,13768.9839866716,0.000177809
73,10.1016/j.actamat.2015.04.023,4591,3(a),5858,x=0.006,Mg2.994Na0.006Sb2,333,0.000072641,0.00025994,0.00012424,1.4588,0.056612,13766.3303093294,0.0001781876
73,10.1016/j.actamat.2015.04.023,4591,3(a),5858,x=0.006,Mg2.994Na0.006Sb2,333.5,0.000072656,0.00026035,0.00012436,1.4579,0.057149,13763.4882184541,0.0001785788
73,10.1016/j.actamat.2015.04.023,4591,3(a),5858,x=0.006,Mg2.994Na0.006Sb2,334,0.00007267,0.00026076,0.00012448,1.4571,0.057686,13760.8366588689,0.0001789582
73,10.1016/j.actamat.2015.04.023,4591,3(a),5858,x=0.006,Mg2.994Na0.006Sb2,334.5,0.000072684,0.00026117,0.0001246,1.4562,0.058222,13758.1861207418,0.0001793504
73,10.1016/j.actamat.2015.04.023,4591,3(a),5858,x=0.006,Mg2.994Na0.006Sb2,335,0.000072699,0.00026158,0.00012472,1.4554,0.058759,13755.3473912984,0.0001797307
73,10.1016/j.actamat.2015.04.023,4591,3(a),5858,x=0.006,Mg2.994Na0.006Sb2,335.5,0.000072713,0.00026199,0.00012484,1.4545,0.059295,13752.6989671723,0.0001801238
73,10.1016/j.actamat.2015.04.023,4591,3(a),5858,x=0.006,Mg2.994Na0.006Sb2,336,0.000072727,0.0002624,0.00012497,1.4537,0.059832,13750.0515626934,0.0001805049
73,10.1016/j.actamat.2015.04.023,4591,3(a),5858,x=0.006,Mg2.994Na0.006Sb2,336.5,0.000072741,0.00026281,0.00012509,1.4528,0.060368,13747.4051772728,0.000180899
73,10.1016/j.actamat.2015.04.023,4591,3(a),5858,x=0.006,Mg2.994Na0.006Sb2,337,0.000072756,0.00026322,0.00012521,1.452,0.060905,13744.5708944967,0.000181281
73,10.1016/j.actamat.2015.04.023,4591,3(a),5858,x=0.006,Mg2.994Na0.006Sb2,337.5,0.00007277,0.00026363,0.00012533,1.4511,0.061441,13741.9266181119,0.000181676
73,10.1016/j.actamat.2015.04.023,4591,3(a),5858,x=0.006,Mg2.994Na0.006Sb2,338,0.000072784,0.00026404,0.00012545,1.4503,0.061978,13739.28335898,0.0001820589
73,10.1016/j.actamat.2015.04.023,4591,3(a),5858,x=0.006,Mg2.994Na0.006Sb2,338.5,0.000072799,0.00026445,0.00012557,1.4494,0.062514,13736.452423797,0.0001824548
73,10.1016/j.actamat.2015.04.023,4591,3(a),5858,x=0.006,Mg2.994Na0.006Sb2,339,0.000072813,0.00026487,0.00012569,1.4486,0.063051,13733.8112699655,0.0001828455
73,10.1016/j.actamat.2015.04.023,4591,3(a),5858,x=0.006,Mg2.994Na0.006Sb2,339.5,0.000072827,0.00026528,0.00012581,1.4478,0.063588,13731.1711315858,0.0001832297
73,10.1016/j.actamat.2015.04.023,4591,3(a),5858,x=0.006,Mg2.994Na0.006Sb2,340,0.000072842,0.00026569,0.00012593,1.4469,0.064124,13728.3435380687,0.0001836271
73,10.1016/j.actamat.2015.04.023,4591,3(a),5858,x=0.006,Mg2.994Na0.006Sb2,340.5,0.000072856,0.0002661,0.00012605,1.4461,0.064661,13725.7055012628,0.0001840122
73,10.1016/j.actamat.2015.04.023,4591,3(a),5858,x=0.006,Mg2.994Na0.006Sb2,341,0.00007287,0.00026651,0.00012617,1.4452,0.065197,13723.0684781117,0.0001844105
73,10.1016/j.actamat.2015.04.023,4591,3(a),5858,x=0.006,Mg2.994Na0.006Sb2,341.5,0.000072885,0.00026692,0.0001263,1.4444,0.065734,13720.2442203471,0.0001847965
73,10.1016/j.actamat.2015.04.023,4591,3(a),5858,x=0.006,Mg2.994Na0.006Sb2,342,0.000072899,0.00026733,0.00012642,1.4435,0.06627,13717.6092950521,0.0001851957
73,10.1016/j.actamat.2015.04.023,4591,3(a),5858,x=0.006,Mg2.994Na0.006Sb2,342.5,0.000072913,0.00026774,0.00012654,1.4427,0.066807,13714.9753816192,0.0001855826
73,10.1016/j.actamat.2015.04.023,4591,3(a),5858,x=0.006,Mg2.994Na0.006Sb2,343,0.000072927,0.00026815,0.00012666,1.4418,0.067343,13712.3424794658,0.0001859828
73,10.1016/j.actamat.2015.04.023,4591,3(a),5858,x=0.006,Mg2.994Na0.006Sb2,343.5,0.000072942,0.00026856,0.00012678,1.441,0.06788,13709.5226344219,0.0001863706
73,10.1016/j.actamat.2015.04.023,4591,3(a),5858,x=0.006,Mg2.994Na0.006Sb2,344,0.000072956,0.00026897,0.0001269,1.4401,0.068416,13706.8918252097,0.0001867718
73,10.1016/j.actamat.2015.04.023,4591,3(a),5858,x=0.006,Mg2.994Na0.006Sb2,344.5,0.00007297,0.00026938,0.00012702,1.4393,0.068953,13704.2620254899,0.0001871604
73,10.1016/j.actamat.2015.04.023,4591,3(a),5858,x=0.006,Mg2.994Na0.006Sb2,345,0.000072985,0.00026979,0.00012714,1.4384,0.069489,13701.4455025005,0.0001875626
73,10.1016/j.actamat.2015.04.023,4591,3(a),5858,x=0.006,Mg2.994Na0.006Sb2,345.5,0.000072999,0.00027021,0.00012726,1.4376,0.070026,13698.8177920245,0.0001879591
73,10.1016/j.actamat.2015.04.023,4591,3(a),5858,x=0.006,Mg2.994Na0.006Sb2,346,0.000073013,0.00027062,0.00012738,1.4367,0.070563,13696.1910892581,0.0001883622
73,10.1016/j.actamat.2015.04.023,4591,3(a),5858,x=0.006,Mg2.994Na0.006Sb2,346.5,0.000073028,0.00027103,0.00012751,1.4359,0.071099,13693.377882456,0.0001887527
73,10.1016/j.actamat.2015.04.023,4591,3(a),5858,x=0.006,Mg2.994Na0.006Sb2,347,0.000073042,0.00027144,0.00012763,1.4351,0.071636,13690.7532652447,0.0001891436
73,10.1016/j.actamat.2015.04.023,4591,3(a),5858,x=0.006,Mg2.994Na0.006Sb2,347.5,0.000073056,0.00027185,0.00012775,1.4342,0.072172,13688.1296539641,0.0001895482
73,10.1016/j.actamat.2015.04.023,4591,3(a),5858,x=0.006,Mg2.994Na0.006Sb2,348,0.00007307,0.00027226,0.00012787,1.4334,0.072709,13685.5070480361,0.00018994
73,10.1016/j.actamat.2015.04.023,4591,3(a),5858,x=0.006,Mg2.994Na0.006Sb2,348.5,0.000073085,0.00027267,0.00012799,1.4325,0.073245,13682.6982280906,0.0001903455
73,10.1016/j.actamat.2015.04.023,4591,3(a),5858,x=0.006,Mg2.994Na0.006Sb2,349,0.000073099,0.00027308,0.00012811,1.4317,0.073782,13680.0777028414,0.0001907383
73,10.1016/j.actamat.2015.04.023,4591,3(a),5858,x=0.006,Mg2.994Na0.006Sb2,349.5,0.000073113,0.00027349,0.00012823,1.4308,0.074318,13677.4581811716,0.0001911448
73,10.1016/j.actamat.2015.04.023,4591,3(a),5858,x=0.006,Mg2.994Na0.006Sb2,350,0.000073128,0.0002739,0.00012835,1.43,0.074855,13674.6526638223,0.0001915385
73,10.1016/j.actamat.2015.04.023,4591,3(a),5858,x=0.006,Mg2.994Na0.006Sb2,350.5,0.000073142,0.00027431,0.00012847,1.4291,0.075391,13672.0352191627,0.000191946
73,10.1016/j.actamat.2015.04.023,4591,3(a),5858,x=0.006,Mg2.994Na0.006Sb2,351,0.000073156,0.00027472,0.00012859,1.4283,0.075928,13669.4187763136,0.0001923405
73,10.1016/j.actamat.2015.04.023,4591,3(a),5858,x=0.006,Mg2.994Na0.006Sb2,351.5,0.000073171,0.00027513,0.00012871,1.4274,0.076465,13666.6165557393,0.0001927491
73,10.1016/j.actamat.2015.04.023,4591,3(a),5858,x=0.006,Mg2.994Na0.006Sb2,352,0.000073185,0.00027555,0.00012884,1.4266,0.077001,13664.0021862404,0.0001931515
73,10.1016/j.actamat.2015.04.023,4591,3(a),5858,x=0.006,Mg2.994Na0.006Sb2,352.5,0.000073199,0.00027596,0.00012896,1.4257,0.077538,13661.3888167871,0.0001935611
73,10.1016/j.actamat.2015.04.023,4591,3(a),5858,x=0.006,Mg2.994Na0.006Sb2,353,0.000073214,0.00027637,0.00012908,1.4249,0.078074,13658.58988718,0.0001939575
73,10.1016/j.actamat.2015.04.023,4591,3(a),5858,x=0.006,Mg2.994Na0.006Sb2,353.5,0.000073228,0.00027678,0.0001292,1.424,0.078611,13655.9785874256,0.000194368
73,10.1016/j.actamat.2015.04.023,4591,3(a),5858,x=0.006,Mg2.994Na0.006Sb2,354,0.000073242,0.00027719,0.00012932,1.4232,0.079147,13653.3682859561,0.0001947653
73,10.1016/j.actamat.2015.04.023,4591,3(a),5858,x=0.006,Mg2.994Na0.006Sb2,354.5,0.000073256,0.0002776,0.00012944,1.4224,0.079684,13650.7589821994,0.0001951631
73,10.1016/j.actamat.2015.04.023,4591,3(a),5858,x=0.006,Mg2.994Na0.006Sb2,355,0.000073271,0.00027801,0.00012956,1.4215,0.08022,13647.9644061088,0.0001955751
73,10.1016/j.actamat.2015.04.023,4591,3(a),5858,x=0.006,Mg2.994Na0.006Sb2,355.5,0.000073285,0.00027842,0.00012968,1.4207,0.080757,13645.3571672239,0.0001959738
73,10.1016/j.actamat.2015.04.023,4591,3(a),5858,x=0.006,Mg2.994Na0.006Sb2,356,0.000073299,0.00027883,0.0001298,1.4198,0.081293,13642.7509242964,0.0001963868
73,10.1016/j.actamat.2015.04.023,4591,3(a),5858,x=0.006,Mg2.994Na0.006Sb2,356.5,0.000073314,0.00027924,0.00012992,1.419,0.08183,13639.9596257195,0.0001967865
73,10.1016/j.actamat.2015.04.023,4591,3(a),5858,x=0.006,Mg2.994Na0.006Sb2,357,0.000073328,0.00027965,0.00013004,1.4181,0.082367,13637.3554440323,0.0001972005
73,10.1016/j.actamat.2015.04.023,4591,3(a),5858,x=0.006,Mg2.994Na0.006Sb2,357.5,0.000073342,0.00028006,0.00013017,1.4173,0.082903,13634.7522565515,0.0001976011
73,10.1016/j.actamat.2015.04.023,4591,3(a),5858,x=0.006,Mg2.994Na0.006Sb2,358,0.000073357,0.00028047,0.00013029,1.4164,0.08344,13631.9642297259,0.0001980161
73,10.1016/j.actamat.2015.04.023,4591,3(a),5858,x=0.006,Mg2.994Na0.006Sb2,358.5,0.000073371,0.00028088,0.00013041,1.4156,0.083976,13629.3630998623,0.0001984176
73,10.1016/j.actamat.2015.04.023,4591,3(a),5858,x=0.006,Mg2.994Na0.006Sb2,359,0.000073385,0.0002813,0.00013053,1.4147,0.084513,13626.7629624583,0.0001988407
73,10.1016/j.actamat.2015.04.023,4591,3(a),5858,x=0.006,Mg2.994Na0.006Sb2,359.5,0.000073399,0.00028171,0.00013065,1.4139,0.085049,13624.1638169457,0.0001992432
73,10.1016/j.actamat.2015.04.023,4591,3(a),5858,x=0.006,Mg2.994Na0.006Sb2,360,0.000073414,0.00028212,0.00013077,1.413,0.085586,13621.3801182336,0.0001996603
73,10.1016/j.actamat.2015.04.023,4591,3(a),5858,x=0.006,Mg2.994Na0.006Sb2,360.5,0.000073428,0.00028253,0.00013089,1.4122,0.086122,13618.7830255488,0.0002000637
73,10.1016/j.actamat.2015.04.023,4591,3(a),5858,x=0.006,Mg2.994Na0.006Sb2,361,0.000073442,0.00028294,0.00013101,1.4114,0.086659,13616.1869230141,0.0002004676
73,10.1016/j.actamat.2015.04.023,4591,3(a),5858,x=0.006,Mg2.994Na0.006Sb2,361.5,0.000073457,0.00028335,0.00013113,1.4105,0.087195,13613.4064827042,0.0002008862
73,10.1016/j.actamat.2015.04.023,4591,3(a),5858,x=0.006,Mg2.994Na0.006Sb2,362,0.000073471,0.00028376,0.00013125,1.4097,0.087732,13610.8124293939,0.0002012911
73,10.1016/j.actamat.2015.04.023,4591,3(a),5858,x=0.006,Mg2.994Na0.006Sb2,362.5,0.000073485,0.00028417,0.00013138,1.4088,0.088269,13608.2193644962,0.0002017107
73,10.1016/j.actamat.2015.04.023,4591,3(a),5858,x=0.006,Mg2.994Na0.006Sb2,363,0.0000735,0.00028458,0.0001315,1.408,0.088805,13605.4421768707,0.0002021165
73,10.1016/j.actamat.2015.04.023,4591,3(a),5858,x=0.006,Mg2.994Na0.006Sb2,363.5,0.000073514,0.00028499,0.00013162,1.4071,0.089342,13602.8511576026,0.0002025371
73,10.1016/j.actamat.2015.04.023,4591,3(a),5858,x=0.006,Mg2.994Na0.006Sb2,364,0.000073528,0.0002854,0.00013174,1.4063,0.089878,13600.2611250136,0.0002029439
73,10.1016/j.actamat.2015.04.023,4591,3(a),5858,x=0.006,Mg2.994Na0.006Sb2,364.5,0.000073543,0.00028581,0.00013186,1.4054,0.090415,13597.4871843683,0.0002033656
73,10.1016/j.actamat.2015.04.023,4591,3(a),5858,x=0.006,Mg2.994Na0.006Sb2,365,0.000073557,0.00028622,0.00013198,1.4046,0.090951,13594.8991938225,0.0002037733
73,10.1016/j.actamat.2015.04.023,4591,3(a),5858,x=0.006,Mg2.994Na0.006Sb2,365.5,0.000073571,0.00028664,0.0001321,1.4037,0.091488,13592.3121882263,0.0002042032
73,10.1016/j.actamat.2015.04.023,4591,3(a),5858,x=0.006,Mg2.994Na0.006Sb2,366,0.000073585,0.00028705,0.00013222,1.4029,0.092024,13589.7261670177,0.0002046119
73,10.1016/j.actamat.2015.04.023,4591,3(a),5858,x=0.006,Mg2.994Na0.006Sb2,366.5,0.0000736,0.00028746,0.00013234,1.402,0.092561,13586.9565217391,0.0002050357
73,10.1016/j.actamat.2015.04.023,4591,3(a),5858,x=0.006,Mg2.994Na0.006Sb2,367,0.000073614,0.00028787,0.00013246,1.4012,0.093097,13584.3725378325,0.0002054453
73,10.1016/j.actamat.2015.04.023,4591,3(a),5858,x=0.006,Mg2.994Na0.006Sb2,367.5,0.000073628,0.00028828,0.00013258,1.4003,0.093634,13581.7895365893,0.0002058702
73,10.1016/j.actamat.2015.04.023,4591,3(a),5858,x=0.006,Mg2.994Na0.006Sb2,368,0.000073643,0.00028869,0.00013271,1.3995,0.09417,13579.0231250764,0.0002062808
73,10.1016/j.actamat.2015.04.023,4591,3(a),5858,x=0.006,Mg2.994Na0.006Sb2,368.5,0.000073657,0.0002891,0.00013283,1.3987,0.094707,13576.4421575682,0.0002066919
73,10.1016/j.actamat.2015.04.023,4591,3(a),5858,x=0.006,Mg2.994Na0.006Sb2,369,0.000073671,0.00028951,0.00013295,1.3978,0.095244,13573.8621710035,0.0002071183
73,10.1016/j.actamat.2015.04.023,4591,3(a),5858,x=0.006,Mg2.994Na0.006Sb2,369.5,0.000073686,0.00028992,0.00013307,1.397,0.09578,13571.098987596,0.0002075304
73,10.1016/j.actamat.2015.04.023,4591,3(a),5858,x=0.006,Mg2.994Na0.006Sb2,370,0.0000737,0.00029033,0.00013319,1.3961,0.096317,13568.5210312076,0.0002079579
73,10.1016/j.actamat.2015.04.023,4591,3(a),5858,x=0.006,Mg2.994Na0.006Sb2,370.5,0.000073714,0.00029074,0.00013331,1.3953,0.096853,13565.9440540467,0.000208371
73,10.1016/j.actamat.2015.04.023,4591,3(a),5858,x=0.006,Mg2.994Na0.006Sb2,371,0.000073729,0.00029115,0.00013343,1.3944,0.09739,13563.1840930977,0.0002087995
73,10.1016/j.actamat.2015.04.023,4591,3(a),5858,x=0.006,Mg2.994Na0.006Sb2,371.5,0.000073743,0.00029156,0.00013355,1.3936,0.097926,13560.6091425627,0.0002092135
73,10.1016/j.actamat.2015.04.023,4591,3(a),5858,x=0.006,Mg2.994Na0.006Sb2,372,0.000073757,0.00029198,0.00013367,1.3927,0.098463,13558.0351695432,0.0002096503
73,10.1016/j.actamat.2015.04.023,4591,3(a),5858,x=0.006,Mg2.994Na0.006Sb2,372.5,0.000073771,0.00029239,0.00013379,1.3919,0.098999,13555.4621734828,0.0002100654
73,10.1016/j.actamat.2015.04.023,4591,3(a),5858,x=0.006,Mg2.994Na0.006Sb2,373,0.000073786,0.0002928,0.00013391,1.391,0.099536,13552.7064754832,0.000210496
73,10.1016/j.actamat.2015.04.023,4591,3(a),5858,x=0.006,Mg2.994Na0.006Sb2,373.5,0.0000738,0.00029321,0.00013404,1.3902,0.10007,13550.135501355,0.0002109121
73,10.1016/j.actamat.2015.04.023,4591,3(a),5858,x=0.006,Mg2.994Na0.006Sb2,374,0.000073814,0.00029362,0.00013416,1.3893,0.10061,13547.5655024792,0.0002113438
73,10.1016/j.actamat.2015.04.023,4591,3(a),5858,x=0.006,Mg2.994Na0.006Sb2,374.5,0.000073829,0.00029403,0.00013428,1.3885,0.10115,13544.8130138563,0.0002117609
73,10.1016/j.actamat.2015.04.023,4591,3(a),5858,x=0.006,Mg2.994Na0.006Sb2,375,0.000073843,0.00029444,0.0001344,1.3876,0.10168,13542.2450333816,0.0002121937
73,10.1016/j.actamat.2015.04.023,4591,3(a),5858,x=0.006,Mg2.994Na0.006Sb2,375.5,0.000073857,0.00029485,0.00013452,1.3868,0.10222,13539.6780264565,0.0002126118
73,10.1016/j.actamat.2015.04.023,4591,3(a),5858,x=0.006,Mg2.994Na0.006Sb2,376,0.000073872,0.00029526,0.00013464,1.386,0.10276,13536.9287416071,0.0002130303
73,10.1016/j.actamat.2015.04.023,4591,3(a),5858,x=0.006,Mg2.994Na0.006Sb2,376.5,0.000073886,0.00029567,0.00013476,1.3851,0.10329,13534.3637495601,0.0002134647
73,10.1016/j.actamat.2015.04.023,4591,3(a),5858,x=0.006,Mg2.994Na0.006Sb2,377,0.0000739,0.00029608,0.00013488,1.3843,0.10383,13531.799729364,0.0002138843
73,10.1016/j.actamat.2015.04.023,4591,3(a),5858,x=0.006,Mg2.994Na0.006Sb2,377.5,0.000073914,0.00029649,0.000135,1.3834,0.10436,13529.2366804665,0.0002143198
73,10.1016/j.actamat.2015.04.023,4591,3(a),5858,x=0.006,Mg2.994Na0.006Sb2,378,0.000073929,0.0002969,0.00013512,1.3826,0.1049,13526.4916338649,0.0002147403
73,10.1016/j.actamat.2015.04.023,4591,3(a),5858,x=0.006,Mg2.994Na0.006Sb2,378.5,0.000073943,0.00029732,0.00013525,1.3817,0.10544,13523.9305951882,0.0002151842
73,10.1016/j.actamat.2015.04.023,4591,3(a),5858,x=0.006,Mg2.994Na0.006Sb2,379,0.000073957,0.00029773,0.00013537,1.3809,0.10597,13521.3705261165,0.0002156058
73,10.1016/j.actamat.2015.04.023,4591,3(a),5858,x=0.006,Mg2.994Na0.006Sb2,379.5,0.000073972,0.00029814,0.00013549,1.38,0.10651,13518.6286703077,0.0002160435
73,10.1016/j.actamat.2015.04.023,4591,3(a),5858,x=0.006,Mg2.994Na0.006Sb2,380,0.000073986,0.00029855,0.00013561,1.3792,0.10705,13516.0706079529,0.0002164661
73,10.1016/j.actamat.2015.04.023,4591,3(a),5858,x=0.006,Mg2.994Na0.006Sb2,380.5,0.000074,0.00029896,0.00013573,1.3783,0.10758,13513.5135135135,0.0002169049
73,10.1016/j.actamat.2015.04.023,4591,3(a),5858,x=0.006,Mg2.994Na0.006Sb2,381,0.000074015,0.00029937,0.00013585,1.3775,0.10812,13510.7748429372,0.0002173285
73,10.1016/j.actamat.2015.04.023,4591,3(a),5858,x=0.006,Mg2.994Na0.006Sb2,381.5,0.000074029,0.00029978,0.00013597,1.3766,0.10866,13508.2197517189,0.0002177684
73,10.1016/j.actamat.2015.04.023,4591,3(a),5858,x=0.006,Mg2.994Na0.006Sb2,382,0.000074043,0.00030019,0.00013609,1.3758,0.10919,13505.6656267304,0.0002181931
73,10.1016/j.actamat.2015.04.023,4591,3(a),5858,x=0.006,Mg2.994Na0.006Sb2,382.5,0.000074058,0.0003006,0.00013621,1.375,0.10973,13502.9301358395,0.0002186182
73,10.1016/j.actamat.2015.04.023,4591,3(a),5858,x=0.006,Mg2.994Na0.006Sb2,383,0.000074072,0.00030101,0.00013633,1.3741,0.11027,13500.3780105843,0.0002190597
73,10.1016/j.actamat.2015.04.023,4591,3(a),5858,x=0.006,Mg2.994Na0.006Sb2,383.5,0.000074086,0.00030142,0.00013645,1.3733,0.1108,13497.8268498772,0.0002194859
73,10.1016/j.actamat.2015.04.023,4591,3(a),5858,x=0.006,Mg2.994Na0.006Sb2,384,0.0000741,0.00030183,0.00013658,1.3724,0.11134,13495.2766531714,0.0002199286
73,10.1016/j.actamat.2015.04.023,4591,3(a),5858,x=0.006,Mg2.994Na0.006Sb2,384.5,0.000074115,0.00030224,0.0001367,1.3716,0.11188,13492.5453686838,0.0002203558
73,10.1016/j.actamat.2015.04.023,4591,3(a),5858,x=0.006,Mg2.994Na0.006Sb2,385,0.000074129,0.00030265,0.00013682,1.3707,0.11241,13489.9971671006,0.0002207996
73,10.1016/j.actamat.2015.04.023,4591,3(a),5858,x=0.006,Mg2.994Na0.006Sb2,385.5,0.000074143,0.00030307,0.00013694,1.3699,0.11295,13487.4499278421,0.0002212351