sid,DOI,figureid,fignum,sampleid,samplename,composition,Temperature,Electrical resistivity,Power factor,Seebeck coefficient,Thermal conductivity,ZT,Electrical conductivity,Figure of merit Z
10954,10.1007/s11664-015-4303-6,5134,3(a),6468,x=0.1,Ca0.9Eu0.1Zn2Sb2,681,0.000026391,0.0012329,0.00018003,1.7194,0.4324,37891.7055056648,0.0007170525
10954,10.1007/s11664-015-4303-6,5134,3(a),6468,x=0.1,Ca0.9Eu0.1Zn2Sb2,681.5,0.000026406,0.0012335,0.00018013,1.7174,0.43293,37870.1810194653,0.0007182369
10954,10.1007/s11664-015-4303-6,5134,3(a),6468,x=0.1,Ca0.9Eu0.1Zn2Sb2,682,0.000026421,0.0012341,0.00018022,1.7155,0.43346,37848.6809734681,0.0007193821
10954,10.1007/s11664-015-4303-6,5134,3(a),6468,x=0.1,Ca0.9Eu0.1Zn2Sb2,682.5,0.000026436,0.0012346,0.00018031,1.7135,0.43399,37827.2053260705,0.0007205136
10954,10.1007/s11664-015-4303-6,5134,3(a),6468,x=0.1,Ca0.9Eu0.1Zn2Sb2,683,0.000026451,0.0012352,0.0001804,1.7116,0.43451,37805.7540357642,0.0007216639
10954,10.1007/s11664-015-4303-6,5134,3(a),6468,x=0.1,Ca0.9Eu0.1Zn2Sb2,683.5,0.000026467,0.0012358,0.00018049,1.7096,0.43504,37782.8994597045,0.0007228591
10954,10.1007/s11664-015-4303-6,5134,3(a),6468,x=0.1,Ca0.9Eu0.1Zn2Sb2,684,0.000026482,0.0012363,0.00018059,1.7077,0.43557,37761.4983762556,0.0007239562
10954,10.1007/s11664-015-4303-6,5134,3(a),6468,x=0.1,Ca0.9Eu0.1Zn2Sb2,684.5,0.000026497,0.0012369,0.00018068,1.7057,0.4361,37740.1215231913,0.0007251568
10954,10.1007/s11664-015-4303-6,5134,3(a),6468,x=0.1,Ca0.9Eu0.1Zn2Sb2,685,0.000026512,0.0012375,0.00018077,1.7038,0.43662,37718.7688593844,0.0007263176
10954,10.1007/s11664-015-4303-6,5134,3(a),6468,x=0.1,Ca0.9Eu0.1Zn2Sb2,685.5,0.000026527,0.001238,0.00018086,1.7018,0.43715,37697.4403438007,0.000727465
10954,10.1007/s11664-015-4303-6,5134,3(a),6468,x=0.1,Ca0.9Eu0.1Zn2Sb2,686,0.000026542,0.0012386,0.00018095,1.6998,0.43768,37676.1359354985,0.000728674
10954,10.1007/s11664-015-4303-6,5134,3(a),6468,x=0.1,Ca0.9Eu0.1Zn2Sb2,686.5,0.000026557,0.0012392,0.00018105,1.6979,0.43821,37654.8555936288,0.0007298427
10954,10.1007/s11664-015-4303-6,5134,3(a),6468,x=0.1,Ca0.9Eu0.1Zn2Sb2,687,0.000026572,0.0012397,0.00018114,1.6959,0.43874,37633.5992774349,0.0007309983
10954,10.1007/s11664-015-4303-6,5134,3(a),6468,x=0.1,Ca0.9Eu0.1Zn2Sb2,687.5,0.000026587,0.0012403,0.00018123,1.694,0.43926,37612.3669462519,0.0007321724
10954,10.1007/s11664-015-4303-6,5134,3(a),6468,x=0.1,Ca0.9Eu0.1Zn2Sb2,688,0.000026603,0.0012409,0.00018132,1.692,0.43979,37589.7455174228,0.0007333924
10954,10.1007/s11664-015-4303-6,5134,3(a),6468,x=0.1,Ca0.9Eu0.1Zn2Sb2,688.5,0.000026618,0.0012414,0.00018141,1.6901,0.44032,37568.5626267939,0.0007345128
10954,10.1007/s11664-015-4303-6,5134,3(a),6468,x=0.1,Ca0.9Eu0.1Zn2Sb2,689,0.000026633,0.001242,0.0001815,1.6881,0.44085,37547.4035970413,0.0007357384
10954,10.1007/s11664-015-4303-6,5134,3(a),6468,x=0.1,Ca0.9Eu0.1Zn2Sb2,689.5,0.000026648,0.0012426,0.0001816,1.6862,0.44137,37526.2683878715,0.0007369233
10954,10.1007/s11664-015-4303-6,5134,3(a),6468,x=0.1,Ca0.9Eu0.1Zn2Sb2,690,0.000026663,0.0012432,0.00018169,1.6842,0.4419,37505.1569590819,0.0007381546
10954,10.1007/s11664-015-4303-6,5134,3(a),6468,x=0.1,Ca0.9Eu0.1Zn2Sb2,690.5,0.000026678,0.0012437,0.00018178,1.6823,0.44243,37484.06927056,0.0007392855
10954,10.1007/s11664-015-4303-6,5134,3(a),6468,x=0.1,Ca0.9Eu0.1Zn2Sb2,691,0.000026693,0.0012443,0.00018187,1.6803,0.44296,37463.0052822837,0.0007405225
10954,10.1007/s11664-015-4303-6,5134,3(a),6468,x=0.1,Ca0.9Eu0.1Zn2Sb2,691.5,0.000026708,0.0012449,0.00018196,1.6784,0.44348,37441.9649543208,0.0007417183
10954,10.1007/s11664-015-4303-6,5134,3(a),6468,x=0.1,Ca0.9Eu0.1Zn2Sb2,692,0.000026724,0.0012454,0.00018206,1.6764,0.44401,37419.5479718605,0.0007429015
10954,10.1007/s11664-015-4303-6,5134,3(a),6468,x=0.1,Ca0.9Eu0.1Zn2Sb2,692.5,0.000026739,0.001246,0.00018215,1.6745,0.44454,37398.5564157224,0.0007441027
10954,10.1007/s11664-015-4303-6,5134,3(a),6468,x=0.1,Ca0.9Eu0.1Zn2Sb2,693,0.000026754,0.0012466,0.00018224,1.6725,0.44507,37377.5883979966,0.0007453513
10954,10.1007/s11664-015-4303-6,5134,3(a),6468,x=0.1,Ca0.9Eu0.1Zn2Sb2,693.5,0.000026769,0.0012471,0.00018233,1.6706,0.4456,37356.6438791139,0.0007464983
10954,10.1007/s11664-015-4303-6,5134,3(a),6468,x=0.1,Ca0.9Eu0.1Zn2Sb2,694,0.000026784,0.0012477,0.00018242,1.6686,0.44612,37335.7228195938,0.0007477526
10954,10.1007/s11664-015-4303-6,5134,3(a),6468,x=0.1,Ca0.9Eu0.1Zn2Sb2,694.5,0.000026799,0.0012483,0.00018252,1.6667,0.44665,37314.825180044,0.000748965
10954,10.1007/s11664-015-4303-6,5134,3(a),6468,x=0.1,Ca0.9Eu0.1Zn2Sb2,695,0.000026814,0.0012488,0.00018261,1.6647,0.44718,37293.9509211606,0.0007501652
10954,10.1007/s11664-015-4303-6,5134,3(a),6468,x=0.1,Ca0.9Eu0.1Zn2Sb2,695.5,0.000026829,0.0012494,0.0001827,1.6628,0.44771,37273.1000037273,0.0007513832
10954,10.1007/s11664-015-4303-6,5134,3(a),6468,x=0.1,Ca0.9Eu0.1Zn2Sb2,696,0.000026844,0.00125,0.00018279,1.6608,0.44823,37252.2723886157,0.0007526493
10954,10.1007/s11664-015-4303-6,5134,3(a),6468,x=0.1,Ca0.9Eu0.1Zn2Sb2,696.5,0.00002686,0.0012505,0.00018288,1.6588,0.44876,37230.0819061802,0.0007538582
10954,10.1007/s11664-015-4303-6,5134,3(a),6468,x=0.1,Ca0.9Eu0.1Zn2Sb2,697,0.000026875,0.0012511,0.00018298,1.6569,0.44929,37209.3023255814,0.0007550848
10954,10.1007/s11664-015-4303-6,5134,3(a),6468,x=0.1,Ca0.9Eu0.1Zn2Sb2,697.5,0.00002689,0.0012517,0.00018307,1.6549,0.44982,37188.5459278542,0.0007563599
10954,10.1007/s11664-015-4303-6,5134,3(a),6468,x=0.1,Ca0.9Eu0.1Zn2Sb2,698,0.000026905,0.0012522,0.00018316,1.653,0.45034,37167.8126742241,0.0007575318
10954,10.1007/s11664-015-4303-6,5134,3(a),6468,x=0.1,Ca0.9Eu0.1Zn2Sb2,698.5,0.00002692,0.0012528,0.00018325,1.651,0.45087,37147.102526003,0.0007588128
10954,10.1007/s11664-015-4303-6,5134,3(a),6468,x=0.1,Ca0.9Eu0.1Zn2Sb2,699,0.000026935,0.0012534,0.00018334,1.6491,0.4514,37126.4154445888,0.0007600509
10954,10.1007/s11664-015-4303-6,5134,3(a),6468,x=0.1,Ca0.9Eu0.1Zn2Sb2,699.5,0.00002695,0.0012539,0.00018343,1.6471,0.45193,37105.7513914657,0.0007612774
10954,10.1007/s11664-015-4303-6,5134,3(a),6468,x=0.1,Ca0.9Eu0.1Zn2Sb2,700,0.000026965,0.0012545,0.00018353,1.6452,0.45245,37085.1103282032,0.0007625213
10954,10.1007/s11664-015-4303-6,5134,3(a),6468,x=0.1,Ca0.9Eu0.1Zn2Sb2,700.5,0.000026981,0.0012551,0.00018362,1.6432,0.45298,37063.1184907898,0.0007638145
10954,10.1007/s11664-015-4303-6,5134,3(a),6468,x=0.1,Ca0.9Eu0.1Zn2Sb2,701,0.000026996,0.0012556,0.00018371,1.6413,0.45351,37042.5248184916,0.0007650034
10954,10.1007/s11664-015-4303-6,5134,3(a),6468,x=0.1,Ca0.9Eu0.1Zn2Sb2,701.5,0.000027011,0.0012562,0.0001838,1.6393,0.45404,37021.9540187331,0.0007663027
10954,10.1007/s11664-015-4303-6,5134,3(a),6468,x=0.1,Ca0.9Eu0.1Zn2Sb2,702,0.000027026,0.0012568,0.00018389,1.6374,0.45457,37001.40605343,0.0007675583
10954,10.1007/s11664-015-4303-6,5134,3(a),6468,x=0.1,Ca0.9Eu0.1Zn2Sb2,702.5,0.000027041,0.0012574,0.00018399,1.6354,0.45509,36980.8808845827,0.0007688639
10954,10.1007/s11664-015-4303-6,5134,3(a),6468,x=0.1,Ca0.9Eu0.1Zn2Sb2,703,0.000027056,0.0012579,0.00018408,1.6335,0.45562,36960.3784742756,0.0007700643
10954,10.1007/s11664-015-4303-6,5134,3(a),6468,x=0.1,Ca0.9Eu0.1Zn2Sb2,703.5,0.000027071,0.0012585,0.00018417,1.6315,0.45615,36939.8987846773,0.000771376
10954,10.1007/s11664-015-4303-6,5134,3(a),6468,x=0.1,Ca0.9Eu0.1Zn2Sb2,704,0.000027086,0.0012591,0.00018426,1.6296,0.45668,36919.4417780403,0.0007726436
10954,10.1007/s11664-015-4303-6,5134,3(a),6468,x=0.1,Ca0.9Eu0.1Zn2Sb2,704.5,0.000027101,0.0012596,0.00018435,1.6276,0.4572,36899.0074167005,0.0007739002
10954,10.1007/s11664-015-4303-6,5134,3(a),6468,x=0.1,Ca0.9Eu0.1Zn2Sb2,705,0.000027117,0.0012602,0.00018445,1.6257,0.45773,36877.2356824132,0.0007751738
10954,10.1007/s11664-015-4303-6,5134,3(a),6468,x=0.1,Ca0.9Eu0.1Zn2Sb2,705.5,0.000027132,0.0012608,0.00018454,1.6237,0.45826,36856.8480023588,0.0007764981
10954,10.1007/s11664-015-4303-6,5134,3(a),6468,x=0.1,Ca0.9Eu0.1Zn2Sb2,706,0.000027147,0.0012613,0.00018463,1.6218,0.45879,36836.4828526172,0.0007777161
10954,10.1007/s11664-015-4303-6,5134,3(a),6468,x=0.1,Ca0.9Eu0.1Zn2Sb2,706.5,0.000027162,0.0012619,0.00018472,1.6198,0.45931,36816.1401958619,0.0007790468
10954,10.1007/s11664-015-4303-6,5134,3(a),6468,x=0.1,Ca0.9Eu0.1Zn2Sb2,707,0.000027177,0.0012625,0.00018481,1.6178,0.45984,36795.8199948486,0.0007803808
10954,10.1007/s11664-015-4303-6,5134,3(a),6468,x=0.1,Ca0.9Eu0.1Zn2Sb2,707.5,0.000027192,0.001263,0.00018491,1.6159,0.46037,36775.5222124154,0.0007816078
10954,10.1007/s11664-015-4303-6,5134,3(a),6468,x=0.1,Ca0.9Eu0.1Zn2Sb2,708,0.000027207,0.0012636,0.000185,1.6139,0.4609,36755.2468114823,0.0007829481
10954,10.1007/s11664-015-4303-6,5134,3(a),6468,x=0.1,Ca0.9Eu0.1Zn2Sb2,708.5,0.000027222,0.0012642,0.00018509,1.612,0.46142,36734.9937550511,0.0007842432
10954,10.1007/s11664-015-4303-6,5134,3(a),6468,x=0.1,Ca0.9Eu0.1Zn2Sb2,709,0.000027238,0.0012647,0.00018518,1.61,0.46195,36713.4150818709,0.000785528
10954,10.1007/s11664-015-4303-6,5134,3(a),6468,x=0.1,Ca0.9Eu0.1Zn2Sb2,709.5,0.000027253,0.0012653,0.00018527,1.6081,0.46248,36693.2080871831,0.0007868292
10954,10.1007/s11664-015-4303-6,5134,3(a),6468,x=0.1,Ca0.9Eu0.1Zn2Sb2,710,0.000027268,0.0012659,0.00018536,1.6061,0.46301,36673.0233240428,0.0007881826
10954,10.1007/s11664-015-4303-6,5134,3(a),6468,x=0.1,Ca0.9Eu0.1Zn2Sb2,710.5,0.000027283,0.0012664,0.00018546,1.6042,0.46354,36652.860755782,0.0007894278
10954,10.1007/s11664-015-4303-6,5134,3(a),6468,x=0.1,Ca0.9Eu0.1Zn2Sb2,711,0.000027298,0.001267,0.00018555,1.6022,0.46406,36632.7203458129,0.0007907877
10954,10.1007/s11664-015-4303-6,5134,3(a),6468,x=0.1,Ca0.9Eu0.1Zn2Sb2,711.5,0.000027313,0.0012676,0.00018564,1.6003,0.46459,36612.6020576282,0.0007921015
10954,10.1007/s11664-015-4303-6,5134,3(a),6468,x=0.1,Ca0.9Eu0.1Zn2Sb2,712,0.000027328,0.0012681,0.00018573,1.5983,0.46512,36592.5058548009,0.0007934055
10954,10.1007/s11664-015-4303-6,5134,3(a),6468,x=0.1,Ca0.9Eu0.1Zn2Sb2,712.5,0.000027343,0.0012687,0.00018582,1.5964,0.46565,36572.4317009838,0.0007947256
10954,10.1007/s11664-015-4303-6,5134,3(a),6468,x=0.1,Ca0.9Eu0.1Zn2Sb2,713,0.000027359,0.0012693,0.00018592,1.5944,0.46617,36551.0435322928,0.0007960988
10954,10.1007/s11664-015-4303-6,5134,3(a),6468,x=0.1,Ca0.9Eu0.1Zn2Sb2,713.5,0.000027374,0.001264,0.00018601,1.5925,0.4667,36531.014831592,0.0007937206
10954,10.1007/s11664-015-4303-6,5134,3(a),6468,x=0.1,Ca0.9Eu0.1Zn2Sb2,714,0.000027389,0.0012645,0.0001861,1.5905,0.46723,36511.0080689328,0.000795033
10954,10.1007/s11664-015-4303-6,5134,3(a),6468,x=0.1,Ca0.9Eu0.1Zn2Sb2,714.5,0.000027404,0.001265,0.00018619,1.5886,0.46776,36491.0232082908,0.0007962986
10954,10.1007/s11664-015-4303-6,5134,3(a),6468,x=0.1,Ca0.9Eu0.1Zn2Sb2,715,0.000027419,0.0012656,0.00018628,1.5866,0.46828,36471.0602137204,0.0007976806
10954,10.1007/s11664-015-4303-6,5134,3(a),6468,x=0.1,Ca0.9Eu0.1Zn2Sb2,715.5,0.000027434,0.0012662,0.00018638,1.5847,0.46881,36451.1190493548,0.0007990156
10954,10.1007/s11664-015-4303-6,5134,3(a),6468,x=0.1,Ca0.9Eu0.1Zn2Sb2,716,0.000027449,0.0012668,0.00018647,1.5827,0.46934,36431.1996794054,0.0008004044
10954,10.1007/s11664-015-4303-6,5134,3(a),6468,x=0.1,Ca0.9Eu0.1Zn2Sb2,716.5,0.000027464,0.0012673,0.00018656,1.5807,0.46987,36411.302068162,0.0008017334
10954,10.1007/s11664-015-4303-6,5136,3(b),6468,x=0.1,Ca0.9Eu0.1Zn2Sb2,717,,,0.00018665,1.5788,0.47039,,
10954,10.1007/s11664-015-4303-6,5136,3(b),6468,x=0.1,Ca0.9Eu0.1Zn2Sb2,717.5,,,0.00018674,1.5768,0.47092,,
10954,10.1007/s11664-015-4303-6,5136,3(b),6468,x=0.1,Ca0.9Eu0.1Zn2Sb2,718,,,0.00018684,1.5749,0.47145,,
10954,10.1007/s11664-015-4303-6,5136,3(b),6468,x=0.1,Ca0.9Eu0.1Zn2Sb2,718.5,,,0.00018693,1.5729,0.47198,,
10954,10.1007/s11664-015-4303-6,5136,3(b),6468,x=0.1,Ca0.9Eu0.1Zn2Sb2,719,,,0.00018702,1.571,0.47251,,
10954,10.1007/s11664-015-4303-6,5136,3(b),6468,x=0.1,Ca0.9Eu0.1Zn2Sb2,719.5,,,0.00018711,1.569,0.47303,,
10954,10.1007/s11664-015-4303-6,5136,3(b),6468,x=0.1,Ca0.9Eu0.1Zn2Sb2,720,,,0.0001872,1.5671,0.47356,,
10954,10.1007/s11664-015-4303-6,5136,3(b),6468,x=0.1,Ca0.9Eu0.1Zn2Sb2,720.5,,,0.00018729,1.5651,0.47409,,
10954,10.1007/s11664-015-4303-6,5136,3(b),6468,x=0.1,Ca0.9Eu0.1Zn2Sb2,721,,,0.00018739,,0.47462,,
10954,10.1007/s11664-015-4303-6,5137,3(c),6468,x=0.1,Ca0.9Eu0.1Zn2Sb2,299,,0.00079894,,3.2111,0.029275,,0.0002488057
10954,10.1007/s11664-015-4303-6,5137,3(c),6468,x=0.1,Ca0.9Eu0.1Zn2Sb2,299.5,,0.0007995,,3.2091,0.029803,,0.0002491353
10954,10.1007/s11664-015-4303-6,5137,3(c),6468,x=0.1,Ca0.9Eu0.1Zn2Sb2,300,,0.00080007,,3.2072,0.03033,,0.0002494606
10954,10.1007/s11664-015-4303-6,5137,3(c),6468,x=0.1,Ca0.9Eu0.1Zn2Sb2,300.5,,0.00080064,,3.2052,0.030858,,0.0002497941
10954,10.1007/s11664-015-4303-6,5137,3(c),6468,x=0.1,Ca0.9Eu0.1Zn2Sb2,301,,0.00080121,,3.2032,0.031386,,0.000250128
10954,10.1007/s11664-015-4303-6,5139,4,6468,x=0.1,Ca0.9Eu0.1Zn2Sb2,721.5,,,,,0.47514,,
10954,10.1007/s11664-015-4303-6,5139,4,6468,x=0.1,Ca0.9Eu0.1Zn2Sb2,722,,,,,0.47567,,
10954,10.1007/s11664-015-4303-6,5139,4,6468,x=0.1,Ca0.9Eu0.1Zn2Sb2,722.5,,,,,0.4762,,
10954,10.1007/s11664-015-4303-6,5134,3(a),6469,x=0.3,Ca0.7Eu0.3Zn2Sb2,299,0.000013984,,,,,71510.2974828375,
10954,10.1007/s11664-015-4303-6,5134,3(a),6469,x=0.3,Ca0.7Eu0.3Zn2Sb2,299.5,0.000013998,,,,,71438.7769681383,
10954,10.1007/s11664-015-4303-6,5134,3(a),6469,x=0.3,Ca0.7Eu0.3Zn2Sb2,300,0.000014011,,,,,71372.4930411819,
10954,10.1007/s11664-015-4303-6,5134,3(a),6469,x=0.3,Ca0.7Eu0.3Zn2Sb2,300.5,0.000014024,0.00091099,0.00011303,3.3462,0.08181,71306.3320022818,0.0002722461
10954,10.1007/s11664-015-4303-6,5134,3(a),6469,x=0.3,Ca0.7Eu0.3Zn2Sb2,301,0.000014038,0.00091154,0.00011312,3.3443,0.082042,71235.2186921214,0.0002725653
10954,10.1007/s11664-015-4303-6,5134,3(a),6469,x=0.3,Ca0.7Eu0.3Zn2Sb2,301.5,0.000014051,0.00091214,0.00011321,3.3424,0.038803,71169.311792755,0.0002728997
10954,10.1007/s11664-015-4303-6,5134,3(a),6469,x=0.3,Ca0.7Eu0.3Zn2Sb2,302,0.000014064,0.00091275,0.0001133,3.3405,0.039331,71103.5267349261,0.0002732375
10954,10.1007/s11664-015-4303-6,5134,3(a),6469,x=0.3,Ca0.7Eu0.3Zn2Sb2,302.5,0.000014078,0.00091329,0.00011339,3.3387,0.03986,71032.8171615286,0.0002735466
10954,10.1007/s11664-015-4303-6,5134,3(a),6469,x=0.3,Ca0.7Eu0.3Zn2Sb2,303,0.000014091,0.00091406,0.00011349,3.3368,0.040388,70967.2840820382,0.0002739331
10954,10.1007/s11664-015-4303-6,5134,3(a),6469,x=0.3,Ca0.7Eu0.3Zn2Sb2,303.5,0.000014104,0.00091466,0.00011358,3.3349,0.040917,70901.8718094158,0.0002742691
10954,10.1007/s11664-015-4303-6,5134,3(a),6469,x=0.3,Ca0.7Eu0.3Zn2Sb2,304,0.000014118,0.00090707,0.00011367,3.333,0.041446,70831.5625442697,0.0002721482
10954,10.1007/s11664-015-4303-6,5134,3(a),6469,x=0.3,Ca0.7Eu0.3Zn2Sb2,304.5,0.000014131,0.00090775,0.00011376,3.3311,0.041974,70766.4001132262,0.0002725076
10954,10.1007/s11664-015-4303-6,5134,3(a),6469,x=0.3,Ca0.7Eu0.3Zn2Sb2,305,0.000014145,0.00090843,0.00011386,3.3292,0.042503,70696.3591375044,0.0002728674
10954,10.1007/s11664-015-4303-6,5134,3(a),6469,x=0.3,Ca0.7Eu0.3Zn2Sb2,305.5,0.000014158,0.00090911,0.00011395,3.3273,0.043031,70631.4451193671,0.0002732275
10954,10.1007/s11664-015-4303-6,5134,3(a),6469,x=0.3,Ca0.7Eu0.3Zn2Sb2,306,0.000014171,0.00090979,0.00011404,3.3254,0.04356,70566.650201115,0.0002735881
10954,10.1007/s11664-015-4303-6,5134,3(a),6469,x=0.3,Ca0.7Eu0.3Zn2Sb2,306.5,0.000014185,0.00091047,0.00011413,3.3236,0.044089,70497.0038773352,0.0002739409
10954,10.1007/s11664-015-4303-6,5134,3(a),6469,x=0.3,Ca0.7Eu0.3Zn2Sb2,307,0.000014198,0.00091115,0.00011423,3.3217,0.044617,70432.4552753909,0.0002743023
10954,10.1007/s11664-015-4303-6,5134,3(a),6469,x=0.3,Ca0.7Eu0.3Zn2Sb2,307.5,0.000014211,0.00091183,0.00011432,3.3198,0.045146,70368.0247695447,0.0002746641
10954,10.1007/s11664-015-4303-6,5134,3(a),6469,x=0.3,Ca0.7Eu0.3Zn2Sb2,308,0.000014225,0.00091251,0.00011441,3.3179,0.045674,70298.769771529,0.0002750264
10954,10.1007/s11664-015-4303-6,5134,3(a),6469,x=0.3,Ca0.7Eu0.3Zn2Sb2,308.5,0.000014238,0.00091319,0.0001145,3.316,0.046203,70234.5835089198,0.000275389
10954,10.1007/s11664-015-4303-6,5134,3(a),6469,x=0.3,Ca0.7Eu0.3Zn2Sb2,309,0.000014251,0.00091387,0.00011459,3.3141,0.046732,70170.5143498702,0.0002757521
10954,10.1007/s11664-015-4303-6,5134,3(a),6469,x=0.3,Ca0.7Eu0.3Zn2Sb2,309.5,0.000014265,0.00091455,0.00011469,3.3122,0.04726,70101.6473887136,0.0002761156
10954,10.1007/s11664-015-4303-6,5134,3(a),6469,x=0.3,Ca0.7Eu0.3Zn2Sb2,310,0.000014278,0.00091523,0.00011478,3.3103,0.047789,70037.8204230284,0.0002764795
10954,10.1007/s11664-015-4303-6,5134,3(a),6469,x=0.3,Ca0.7Eu0.3Zn2Sb2,310.5,0.000014291,0.00091591,0.00011487,3.3085,0.048317,69974.1095794556,0.0002768354
10954,10.1007/s11664-015-4303-6,5134,3(a),6469,x=0.3,Ca0.7Eu0.3Zn2Sb2,311,0.000014305,0.00091659,0.00011496,3.3066,0.048846,69905.6274030059,0.0002772001
10954,10.1007/s11664-015-4303-6,5134,3(a),6469,x=0.3,Ca0.7Eu0.3Zn2Sb2,311.5,0.000014318,0.00091727,0.00011506,3.3047,0.049375,69842.1567257997,0.0002775653
10954,10.1007/s11664-015-4303-6,5134,3(a),6469,x=0.3,Ca0.7Eu0.3Zn2Sb2,312,0.000014331,0.00091795,0.00011515,3.3028,0.049903,69778.8012001954,0.0002779308
10954,10.1007/s11664-015-4303-6,5134,3(a),6469,x=0.3,Ca0.7Eu0.3Zn2Sb2,312.5,0.000014345,0.00091864,0.00011524,3.3009,0.050432,69710.7005925409,0.0002782999
10954,10.1007/s11664-015-4303-6,5134,3(a),6469,x=0.3,Ca0.7Eu0.3Zn2Sb2,313,0.000014358,0.00091932,0.00011533,3.299,0.05096,69647.583228862,0.0002786663
10954,10.1007/s11664-015-4303-6,5134,3(a),6469,x=0.3,Ca0.7Eu0.3Zn2Sb2,313.5,0.000014371,0.00092,0.00011543,3.2971,0.051489,69584.5800570594,0.0002790331
10954,10.1007/s11664-015-4303-6,5134,3(a),6469,x=0.3,Ca0.7Eu0.3Zn2Sb2,314,0.000014385,0.00092068,0.00011552,3.2952,0.052018,69516.8578380257,0.0002794003
10954,10.1007/s11664-015-4303-6,5134,3(a),6469,x=0.3,Ca0.7Eu0.3Zn2Sb2,314.5,0.000014398,0.00092136,0.00011561,3.2934,0.052546,69454.0908459508,0.0002797595
10954,10.1007/s11664-015-4303-6,5134,3(a),6469,x=0.3,Ca0.7Eu0.3Zn2Sb2,315,0.000014411,0.00092204,0.0001157,3.2915,0.053075,69391.4370966623,0.0002801276
10954,10.1007/s11664-015-4303-6,5134,3(a),6469,x=0.3,Ca0.7Eu0.3Zn2Sb2,315.5,0.000014425,0.00092272,0.0001158,3.2896,0.053603,69324.0901213172,0.0002804961
10954,10.1007/s11664-015-4303-6,5134,3(a),6469,x=0.3,Ca0.7Eu0.3Zn2Sb2,316,0.000014438,0.0009234,0.00011589,3.2877,0.054132,69261.6705914947,0.000280865
10954,10.1007/s11664-015-4303-6,5134,3(a),6469,x=0.3,Ca0.7Eu0.3Zn2Sb2,316.5,0.000014451,0.00092408,0.00011598,3.2858,0.054661,69199.363365857,0.0002812344
10954,10.1007/s11664-015-4303-6,5134,3(a),6469,x=0.3,Ca0.7Eu0.3Zn2Sb2,317,0.000014465,0.00092476,0.00011607,3.2839,0.055189,69132.3885240235,0.0002816042
10954,10.1007/s11664-015-4303-6,5134,3(a),6469,x=0.3,Ca0.7Eu0.3Zn2Sb2,317.5,0.000014478,0.00092544,0.00011616,3.282,0.055718,69070.3135792237,0.0002819744
10954,10.1007/s11664-015-4303-6,5134,3(a),6469,x=0.3,Ca0.7Eu0.3Zn2Sb2,318,0.000014492,0.00092612,0.00011626,3.2801,0.056247,69003.5881865857,0.0002823451
10954,10.1007/s11664-015-4303-6,5134,3(a),6469,x=0.3,Ca0.7Eu0.3Zn2Sb2,318.5,0.000014505,0.0009268,0.00011635,3.2783,0.056775,68941.7442261289,0.0002827075
10954,10.1007/s11664-015-4303-6,5134,3(a),6469,x=0.3,Ca0.7Eu0.3Zn2Sb2,319,0.000014518,0.00092748,0.00011644,3.2764,0.057304,68880.0110208018,0.000283079
10954,10.1007/s11664-015-4303-6,5134,3(a),6469,x=0.3,Ca0.7Eu0.3Zn2Sb2,319.5,0.000014532,0.00092816,0.00011653,3.2745,0.057832,68813.6526286815,0.0002834509
10954,10.1007/s11664-015-4303-6,5134,3(a),6469,x=0.3,Ca0.7Eu0.3Zn2Sb2,320,0.000014545,0.00092884,0.00011663,3.2726,0.058361,68752.1485046408,0.0002838233
10954,10.1007/s11664-015-4303-6,5134,3(a),6469,x=0.3,Ca0.7Eu0.3Zn2Sb2,320.5,0.000014558,0.00092952,0.00011672,3.2707,0.05889,68690.7542244814,0.000284196
10954,10.1007/s11664-015-4303-6,5134,3(a),6469,x=0.3,Ca0.7Eu0.3Zn2Sb2,321,0.000014572,0.0009302,0.00011681,3.2688,0.059418,68624.7598133407,0.0002845693
10954,10.1007/s11664-015-4303-6,5134,3(a),6469,x=0.3,Ca0.7Eu0.3Zn2Sb2,321.5,0.000014585,0.00093088,0.0001169,3.2669,0.059947,68563.5927322592,0.0002849429