sid,DOI,figureid,fignum,sampleid,samplename,composition,Temperature,Electrical resistivity,Power factor,Seebeck coefficient,Thermal conductivity,ZT,Electrical conductivity,Figure of merit Z
73,10.1016/j.actamat.2015.04.023,4591,3(a),5859,x=0.0125,Mg2.9875Na0.0125Sb2,472.5,0.000041553,0.00043538,0.00012586,1.4027,0.21568,24065.6510961904,0.0003103871
73,10.1016/j.actamat.2015.04.023,4591,3(a),5859,x=0.0125,Mg2.9875Na0.0125Sb2,473,0.000041559,0.00043598,0.00012597,1.4018,0.21631,24062.1766645011,0.0003110144
73,10.1016/j.actamat.2015.04.023,4591,3(a),5859,x=0.0125,Mg2.9875Na0.0125Sb2,473.5,0.000041566,0.00043659,0.00012608,1.4009,0.21693,24058.1244286195,0.0003116497
73,10.1016/j.actamat.2015.04.023,4591,3(a),5859,x=0.0125,Mg2.9875Na0.0125Sb2,474,0.000041572,0.0004372,0.00012619,1.4,0.21755,24054.6521697296,0.0003122857
73,10.1016/j.actamat.2015.04.023,4591,3(a),5859,x=0.0125,Mg2.9875Na0.0125Sb2,474.5,0.000041579,0.00043781,0.00012631,1.3991,0.21817,24050.6024675918,0.0003129226
73,10.1016/j.actamat.2015.04.023,4591,3(a),5859,x=0.0125,Mg2.9875Na0.0125Sb2,475,0.000041586,0.00043841,0.00012642,1.3982,0.2188,24046.5541287933,0.0003135531
73,10.1016/j.actamat.2015.04.023,4591,3(a),5859,x=0.0125,Mg2.9875Na0.0125Sb2,475.5,0.000041592,0.00043902,0.00012653,1.3973,0.21942,24043.085208694,0.0003141917
73,10.1016/j.actamat.2015.04.023,4591,3(a),5859,x=0.0125,Mg2.9875Na0.0125Sb2,476,0.000041599,0.00043963,0.00012664,1.3964,0.22004,24039.0393999856,0.000314831
73,10.1016/j.actamat.2015.04.023,4591,3(a),5859,x=0.0125,Mg2.9875Na0.0125Sb2,476.5,0.000041605,0.00044024,0.00012675,1.3954,0.22066,24035.5726475183,0.0003154938
73,10.1016/j.actamat.2015.04.023,4591,3(a),5859,x=0.0125,Mg2.9875Na0.0125Sb2,477,0.000041612,0.00044085,0.00012686,1.3945,0.22128,24031.5293665289,0.0003161348
73,10.1016/j.actamat.2015.04.023,4591,3(a),5859,x=0.0125,Mg2.9875Na0.0125Sb2,477.5,0.000041619,0.00044145,0.00012697,1.3936,0.22191,24027.4874456378,0.0003167695
73,10.1016/j.actamat.2015.04.023,4591,3(a),5859,x=0.0125,Mg2.9875Na0.0125Sb2,478,0.000041625,0.00044206,0.00012708,1.3927,0.22253,24024.024024024,0.0003174122
73,10.1016/j.actamat.2015.04.023,4591,3(a),5859,x=0.0125,Mg2.9875Na0.0125Sb2,478.5,0.000041632,0.00044267,0.00012719,1.3918,0.22315,24019.9846272098,0.0003180558
73,10.1016/j.actamat.2015.04.023,4591,3(a),5859,x=0.0125,Mg2.9875Na0.0125Sb2,479,0.000041638,0.00044328,0.00012731,1.3909,0.22377,24016.5233680772,0.0003187001
73,10.1016/j.actamat.2015.04.023,4591,3(a),5859,x=0.0125,Mg2.9875Na0.0125Sb2,479.5,0.000041645,0.00044388,0.00012742,1.39,0.2244,24012.4864929763,0.0003193381
73,10.1016/j.actamat.2015.04.023,4591,3(a),5859,x=0.0125,Mg2.9875Na0.0125Sb2,480,0.000041652,0.00044449,0.00012753,1.3891,0.22502,24008.4509747431,0.0003199842
73,10.1016/j.actamat.2015.04.023,4591,3(a),5859,x=0.0125,Mg2.9875Na0.0125Sb2,480.5,0.000041658,0.0004451,0.00012764,1.3882,0.22564,24004.993038552,0.000320631
73,10.1016/j.actamat.2015.04.023,4591,3(a),5859,x=0.0125,Mg2.9875Na0.0125Sb2,481,0.000041665,0.00044571,0.00012775,1.3873,0.22626,24000.9600384015,0.0003212787
73,10.1016/j.actamat.2015.04.023,4591,3(a),5859,x=0.0125,Mg2.9875Na0.0125Sb2,481.5,0.000041671,0.00044631,0.00012786,1.3864,0.22689,23997.504259557,0.0003219201
73,10.1016/j.actamat.2015.04.023,4591,3(a),5859,x=0.0125,Mg2.9875Na0.0125Sb2,482,0.000041678,0.00044692,0.00012797,1.3855,0.22751,23993.4737751332,0.0003225695
73,10.1016/j.actamat.2015.04.023,4591,3(a),5859,x=0.0125,Mg2.9875Na0.0125Sb2,482.5,0.000041685,0.00044753,0.00012808,1.3846,0.22813,23989.4446443565,0.0003232197
73,10.1016/j.actamat.2015.04.023,4591,3(a),5859,x=0.0125,Mg2.9875Na0.0125Sb2,483,0.000041691,0.00044814,0.0001282,1.3836,0.22875,23985.9921805666,0.0003238942
73,10.1016/j.actamat.2015.04.023,4591,3(a),5859,x=0.0125,Mg2.9875Na0.0125Sb2,483.5,0.000041698,0.00044874,0.00012831,1.3827,0.22938,23981.9655618975,0.0003245389
73,10.1016/j.actamat.2015.04.023,4591,3(a),5859,x=0.0125,Mg2.9875Na0.0125Sb2,484,0.000041705,0.00044935,0.00012842,1.3818,0.23,23977.9402949287,0.0003251918
73,10.1016/j.actamat.2015.04.023,4591,3(a),5859,x=0.0125,Mg2.9875Na0.0125Sb2,484.5,0.000041711,0.00044996,0.00012853,1.3809,0.23062,23974.4911414255,0.0003258455
73,10.1016/j.actamat.2015.04.023,4591,3(a),5859,x=0.0125,Mg2.9875Na0.0125Sb2,485,0.000041718,0.00045057,0.00012864,1.38,0.23124,23970.4683829522,0.0003265
73,10.1016/j.actamat.2015.04.023,4591,3(a),5859,x=0.0125,Mg2.9875Na0.0125Sb2,485.5,0.000041724,0.00045117,0.00012875,1.3791,0.23186,23967.0213785831,0.0003271481
73,10.1016/j.actamat.2015.04.023,4591,3(a),5859,x=0.0125,Mg2.9875Na0.0125Sb2,486,0.000041731,0.00045178,0.00012886,1.3782,0.23249,23963.0011262611,0.0003278044
73,10.1016/j.actamat.2015.04.023,4591,3(a),5859,x=0.0125,Mg2.9875Na0.0125Sb2,486.5,0.000041738,0.00045239,0.00012897,1.3773,0.23311,23958.9822224352,0.0003284615
73,10.1016/j.actamat.2015.04.023,4591,3(a),5859,x=0.0125,Mg2.9875Na0.0125Sb2,487,0.000041744,0.000453,0.00012908,1.3764,0.23373,23955.5385205059,0.0003291194
73,10.1016/j.actamat.2015.04.023,4591,3(a),5859,x=0.0125,Mg2.9875Na0.0125Sb2,487.5,0.000041751,0.0004536,0.0001292,1.3755,0.23435,23951.5221192307,0.000329771
73,10.1016/j.actamat.2015.04.023,4591,3(a),5859,x=0.0125,Mg2.9875Na0.0125Sb2,488,0.000041757,0.00045421,0.00012931,1.3746,0.23498,23948.080561343,0.0003304307
73,10.1016/j.actamat.2015.04.023,4591,3(a),5859,x=0.0125,Mg2.9875Na0.0125Sb2,488.5,0.000041764,0.00045482,0.00012942,1.3737,0.2356,23944.0666602816,0.0003310912
73,10.1016/j.actamat.2015.04.023,4591,3(a),5859,x=0.0125,Mg2.9875Na0.0125Sb2,489,0.000041771,0.00045543,0.00012953,1.3728,0.23622,23940.0541045223,0.0003317526
73,10.1016/j.actamat.2015.04.023,4591,3(a),5859,x=0.0125,Mg2.9875Na0.0125Sb2,489.5,0.000041777,0.00045603,0.00012964,1.3719,0.23684,23936.6158412524,0.0003324076
73,10.1016/j.actamat.2015.04.023,4591,3(a),5859,x=0.0125,Mg2.9875Na0.0125Sb2,490,0.000041784,0.00045664,0.00012975,1.3709,0.23747,23932.6057821176,0.000333095
73,10.1016/j.actamat.2015.04.023,4591,3(a),5859,x=0.0125,Mg2.9875Na0.0125Sb2,490.5,0.00004179,0.00045725,0.00012986,1.37,0.23809,23929.1696578129,0.0003337591
73,10.1016/j.actamat.2015.04.023,4591,3(a),5859,x=0.0125,Mg2.9875Na0.0125Sb2,491,0.000041797,0.00045786,0.00012997,1.3691,0.23871,23925.1620929732,0.0003344241
73,10.1016/j.actamat.2015.04.023,4591,3(a),5859,x=0.0125,Mg2.9875Na0.0125Sb2,491.5,0.000041804,0.00045846,0.00013009,1.3682,0.23933,23921.1558702516,0.0003350826
73,10.1016/j.actamat.2015.04.023,4591,3(a),5859,x=0.0125,Mg2.9875Na0.0125Sb2,492,0.00004181,0.00045907,0.0001302,1.3673,0.23996,23917.7230327673,0.0003357493
73,10.1016/j.actamat.2015.04.023,4591,3(a),5859,x=0.0125,Mg2.9875Na0.0125Sb2,492.5,0.000041817,0.00045968,0.00013031,1.3664,0.24058,23913.7193007628,0.0003364169
73,10.1016/j.actamat.2015.04.023,4591,3(a),5859,x=0.0125,Mg2.9875Na0.0125Sb2,493,0.000041823,0.00046029,0.00013042,1.3655,0.2412,23910.2885971834,0.0003370853
73,10.1016/j.actamat.2015.04.023,4591,3(a),5859,x=0.0125,Mg2.9875Na0.0125Sb2,493.5,0.00004183,0.00046089,0.00013053,1.3646,0.24182,23906.287353574,0.0003377473
73,10.1016/j.actamat.2015.04.023,4591,3(a),5859,x=0.0125,Mg2.9875Na0.0125Sb2,494,0.000041837,0.0004615,0.00013064,1.3637,0.24244,23902.2874489089,0.0003384175
73,10.1016/j.actamat.2015.04.023,4591,3(a),5859,x=0.0125,Mg2.9875Na0.0125Sb2,494.5,0.000041843,0.00046211,0.00013075,1.3628,0.24307,23898.8600243768,0.0003390886
73,10.1016/j.actamat.2015.04.023,4591,3(a),5859,x=0.0125,Mg2.9875Na0.0125Sb2,495,0.00004185,0.00046272,0.00013086,1.3619,0.24369,23894.86260454,0.0003397606
73,10.1016/j.actamat.2015.04.023,4591,3(a),5859,x=0.0125,Mg2.9875Na0.0125Sb2,495.5,0.000041856,0.00046333,0.00013098,1.361,0.24431,23891.4373088685,0.0003404335
73,10.1016/j.actamat.2015.04.023,4591,3(a),5859,x=0.0125,Mg2.9875Na0.0125Sb2,496,0.000041863,0.00046393,0.00013109,1.3601,0.24493,23887.4423715453,0.0003410999
73,10.1016/j.actamat.2015.04.023,4591,3(a),5859,x=0.0125,Mg2.9875Na0.0125Sb2,496.5,0.00004187,0.00046454,0.0001312,1.3592,0.24556,23883.4487700024,0.0003417746
73,10.1016/j.actamat.2015.04.023,4591,3(a),5859,x=0.0125,Mg2.9875Na0.0125Sb2,497,0.000041876,0.00046515,0.00013131,1.3582,0.24618,23880.02674563,0.0003424753
73,10.1016/j.actamat.2015.04.023,4591,3(a),5859,x=0.0125,Mg2.9875Na0.0125Sb2,497.5,0.000041883,0.00046576,0.00013142,1.3573,0.2468,23876.0356230452,0.0003431518
73,10.1016/j.actamat.2015.04.023,4591,3(a),5859,x=0.0125,Mg2.9875Na0.0125Sb2,498,0.000041889,0.00046636,0.00013153,1.3564,0.24742,23872.6157225047,0.0003438219
73,10.1016/j.actamat.2015.04.023,4591,3(a),5859,x=0.0125,Mg2.9875Na0.0125Sb2,498.5,0.000041896,0.00046697,0.00013164,1.3555,0.24805,23868.6270765706,0.0003445002
73,10.1016/j.actamat.2015.04.023,4591,3(a),5859,x=0.0125,Mg2.9875Na0.0125Sb2,499,0.000041903,0.00046758,0.00013175,1.3546,0.24867,23864.6397632628,0.0003451794
73,10.1016/j.actamat.2015.04.023,4591,3(a),5859,x=0.0125,Mg2.9875Na0.0125Sb2,499.5,0.000041909,0.00046819,0.00013186,1.3537,0.24929,23861.2231262975,0.0003458595
73,10.1016/j.actamat.2015.04.023,4591,3(a),5859,x=0.0125,Mg2.9875Na0.0125Sb2,500,0.000041916,0.00046879,0.00013198,1.3528,0.24991,23857.238286096,0.0003465331
73,10.1016/j.actamat.2015.04.023,4591,3(a),5859,x=0.0125,Mg2.9875Na0.0125Sb2,500.5,0.000041923,0.0004694,0.00013209,1.3519,0.25053,23853.2547766143,0.000347215
73,10.1016/j.actamat.2015.04.023,4591,3(a),5859,x=0.0125,Mg2.9875Na0.0125Sb2,501,0.000041929,0.00047001,0.0001322,1.351,0.25116,23849.8413985547,0.0003478979
73,10.1016/j.actamat.2015.04.023,4591,3(a),5859,x=0.0125,Mg2.9875Na0.0125Sb2,501.5,0.000041936,0.00047062,0.00013231,1.3501,0.25178,23845.8603586417,0.0003485816
73,10.1016/j.actamat.2015.04.023,4591,3(a),5859,x=0.0125,Mg2.9875Na0.0125Sb2,502,0.000041942,0.00047122,0.00013242,1.3492,0.2524,23842.4490963712,0.0003492588
73,10.1016/j.actamat.2015.04.023,4591,3(a),5859,x=0.0125,Mg2.9875Na0.0125Sb2,502.5,0.000041949,0.00047183,0.00013253,1.3483,0.25302,23838.4705237312,0.0003499444
73,10.1016/j.actamat.2015.04.023,4591,3(a),5859,x=0.0125,Mg2.9875Na0.0125Sb2,503,0.000041956,0.00047244,0.00013264,1.3474,0.25365,23834.4932786729,0.0003506308
73,10.1016/j.actamat.2015.04.023,4591,3(a),5859,x=0.0125,Mg2.9875Na0.0125Sb2,503.5,0.000041962,0.00047305,0.00013275,1.3464,0.25427,23831.0852676231,0.0003513443
73,10.1016/j.actamat.2015.04.023,4591,3(a),5859,x=0.0125,Mg2.9875Na0.0125Sb2,504,0.000041969,0.00047365,0.00013287,1.3455,0.25489,23827.1104863113,0.0003520253
73,10.1016/j.actamat.2015.04.023,4591,3(a),5859,x=0.0125,Mg2.9875Na0.0125Sb2,504.5,0.000041975,0.00047426,0.00013298,1.3446,0.25551,23823.7045860631,0.0003527146
73,10.1016/j.actamat.2015.04.023,4591,3(a),5859,x=0.0125,Mg2.9875Na0.0125Sb2,505,0.000041982,0.00047487,0.00013309,1.3437,0.25614,23819.7322662093,0.0003534048
73,10.1016/j.actamat.2015.04.023,4591,3(a),5859,x=0.0125,Mg2.9875Na0.0125Sb2,505.5,0.000041989,0.00047548,0.0001332,1.3428,0.25676,23815.761270809,0.0003540959
73,10.1016/j.actamat.2015.04.023,4591,3(a),5859,x=0.0125,Mg2.9875Na0.0125Sb2,506,0.000041995,0.00047608,0.00013331,1.3419,0.25738,23812.3586141207,0.0003547805
73,10.1016/j.actamat.2015.04.023,4591,3(a),5859,x=0.0125,Mg2.9875Na0.0125Sb2,506.5,0.000042002,0.00047669,0.00013342,1.341,0.258,23808.390076663,0.0003554735
73,10.1016/j.actamat.2015.04.023,4591,3(a),5859,x=0.0125,Mg2.9875Na0.0125Sb2,507,0.000042008,0.0004773,0.00013353,1.3401,0.25863,23804.9895258046,0.0003561675
73,10.1016/j.actamat.2015.04.023,4591,3(a),5859,x=0.0125,Mg2.9875Na0.0125Sb2,507.5,0.000042015,0.00047791,0.00013364,1.3392,0.25925,23801.0234440081,0.0003568623
73,10.1016/j.actamat.2015.04.023,4591,3(a),5859,x=0.0125,Mg2.9875Na0.0125Sb2,508,0.000042022,0.00047851,0.00013375,1.3383,0.25987,23797.0586835467,0.0003575506
73,10.1016/j.actamat.2015.04.023,4591,3(a),5859,x=0.0125,Mg2.9875Na0.0125Sb2,508.5,0.000042028,0.00047912,0.00013387,1.3374,0.26049,23793.6613686114,0.0003582473
73,10.1016/j.actamat.2015.04.023,4591,3(a),5859,x=0.0125,Mg2.9875Na0.0125Sb2,509,0.000042035,0.00047973,0.00013398,1.3365,0.26111,23789.6990603069,0.000358945
73,10.1016/j.actamat.2015.04.023,4591,3(a),5859,x=0.0125,Mg2.9875Na0.0125Sb2,509.5,0.000042041,0.00048034,0.00013409,1.3356,0.26174,23786.3038462453,0.0003596436
73,10.1016/j.actamat.2015.04.023,4591,3(a),5859,x=0.0125,Mg2.9875Na0.0125Sb2,510,0.000042048,0.00048094,0.0001342,1.3347,0.26236,23782.3439878234,0.0003603357
73,10.1016/j.actamat.2015.04.023,4591,3(a),5859,x=0.0125,Mg2.9875Na0.0125Sb2,510.5,0.000042055,0.00048155,0.00013431,1.3337,0.26298,23778.3854476281,0.0003610632
73,10.1016/j.actamat.2015.04.023,4591,3(a),5859,x=0.0125,Mg2.9875Na0.0125Sb2,511,0.000042061,0.00048216,0.00013442,1.3328,0.2636,23774.9934618768,0.0003617647
73,10.1016/j.actamat.2015.04.023,4591,3(a),5859,x=0.0125,Mg2.9875Na0.0125Sb2,511.5,0.000042068,0.00048277,0.00013453,1.3319,0.26423,23771.0373680707,0.0003624672
73,10.1016/j.actamat.2015.04.023,4591,3(a),5859,x=0.0125,Mg2.9875Na0.0125Sb2,512,0.000042074,0.00048337,0.00013464,1.331,0.26485,23767.6474782526,0.000363163
73,10.1016/j.actamat.2015.04.023,4591,3(a),5859,x=0.0125,Mg2.9875Na0.0125Sb2,512.5,0.000042081,0.00048398,0.00013476,1.3301,0.26547,23763.6938285687,0.0003638674
73,10.1016/j.actamat.2015.04.023,4591,3(a),5859,x=0.0125,Mg2.9875Na0.0125Sb2,513,0.000042088,0.00048459,0.00013487,1.3292,0.26609,23759.7414940125,0.0003645727
73,10.1016/j.actamat.2015.04.023,4591,3(a),5859,x=0.0125,Mg2.9875Na0.0125Sb2,513.5,0.000042094,0.0004852,0.00013498,1.3283,0.26672,23756.3548249157,0.0003652789
73,10.1016/j.actamat.2015.04.023,4591,3(a),5859,x=0.0125,Mg2.9875Na0.0125Sb2,514,0.000042101,0.00048581,0.00013509,1.3274,0.26734,23752.4049309993,0.0003659861
73,10.1016/j.actamat.2015.04.023,4591,3(a),5859,x=0.0125,Mg2.9875Na0.0125Sb2,514.5,0.000042108,0.00048641,0.0001352,1.3265,0.26796,23748.4563503372,0.0003666868
73,10.1016/j.actamat.2015.04.023,4591,3(a),5859,x=0.0125,Mg2.9875Na0.0125Sb2,515,0.000042114,0.00048702,0.00013531,1.3256,0.26858,23745.0728973738,0.0003673959
73,10.1016/j.actamat.2015.04.023,4591,3(a),5859,x=0.0125,Mg2.9875Na0.0125Sb2,515.5,0.000042121,0.00048763,0.00013542,1.3247,0.26921,23741.1267538757,0.000368106
73,10.1016/j.actamat.2015.04.023,4591,3(a),5859,x=0.0125,Mg2.9875Na0.0125Sb2,516,0.000042127,0.00048824,0.00013553,1.3238,0.26983,23737.745388943,0.000368817
73,10.1016/j.actamat.2015.04.023,4591,3(a),5859,x=0.0125,Mg2.9875Na0.0125Sb2,516.5,0.000042134,0.00048884,0.00013565,1.3229,0.27045,23733.8016803532,0.0003695215
73,10.1016/j.actamat.2015.04.023,4591,3(a),5859,x=0.0125,Mg2.9875Na0.0125Sb2,517,0.000042141,0.00048945,0.00013576,1.3219,0.27107,23729.8592819345,0.0003702625
73,10.1016/j.actamat.2015.04.023,4591,3(a),5859,x=0.0125,Mg2.9875Na0.0125Sb2,517.5,0.000042147,0.00049006,0.00013587,1.321,0.27169,23726.4811255843,0.0003709765
73,10.1016/j.actamat.2015.04.023,4591,3(a),5859,x=0.0125,Mg2.9875Na0.0125Sb2,518,0.000042154,0.00049067,0.00013598,1.3201,0.27232,23722.5411586089,0.0003716915
73,10.1016/j.actamat.2015.04.023,4591,3(a),5859,x=0.0125,Mg2.9875Na0.0125Sb2,518.5,0.00004216,0.00049127,0.00013609,1.3192,0.27294,23719.165085389,0.0003723999
73,10.1016/j.actamat.2015.04.023,4591,3(a),5859,x=0.0125,Mg2.9875Na0.0125Sb2,519,0.000042167,0.00049188,0.0001362,1.3183,0.27356,23715.2275476083,0.0003731169
73,10.1016/j.actamat.2015.04.023,4591,3(a),5859,x=0.0125,Mg2.9875Na0.0125Sb2,519.5,0.000042174,0.00049249,0.00013631,1.3174,0.27418,23711.2913169251,0.0003738348
73,10.1016/j.actamat.2015.04.023,4591,3(a),5859,x=0.0125,Mg2.9875Na0.0125Sb2,520,0.00004218,0.0004931,0.00013642,1.3165,0.27481,23707.9184447606,0.0003745537
73,10.1016/j.actamat.2015.04.023,4591,3(a),5859,x=0.0125,Mg2.9875Na0.0125Sb2,520.5,0.000042187,0.0004937,0.00013653,1.3156,0.27543,23703.984639818,0.000375266
73,10.1016/j.actamat.2015.04.023,4591,3(a),5859,x=0.0125,Mg2.9875Na0.0125Sb2,521,0.000042193,0.00049431,0.00013665,1.3147,0.27605,23700.6138458986,0.0003759869
73,10.1016/j.actamat.2015.04.023,4591,3(a),5859,x=0.0125,Mg2.9875Na0.0125Sb2,521.5,0.0000422,0.00049492,0.00013676,1.3138,0.27667,23696.682464455,0.0003767088
73,10.1016/j.actamat.2015.04.023,4591,3(a),5859,x=0.0125,Mg2.9875Na0.0125Sb2,522,0.000042207,0.00049553,0.00013687,1.3129,0.2773,23692.7523870448,0.0003774316
73,10.1016/j.actamat.2015.04.023,4591,3(a),5859,x=0.0125,Mg2.9875Na0.0125Sb2,522.5,0.000042213,0.00049613,0.00013698,1.312,0.27792,23689.3847866771,0.0003781479
73,10.1016/j.actamat.2015.04.023,4591,3(a),5859,x=0.0125,Mg2.9875Na0.0125Sb2,523,0.00004222,0.00049674,0.00013709,1.3111,0.27854,23685.4571293226,0.0003788727
73,10.1016/j.actamat.2015.04.023,4591,3(a),5859,x=0.0125,Mg2.9875Na0.0125Sb2,523.5,0.000042226,0.00049735,0.0001372,1.3102,0.27916,23682.0916023303,0.0003795985
73,10.1016/j.actamat.2015.04.023,4591,3(a),5859,x=0.0125,Mg2.9875Na0.0125Sb2,524,0.000042233,0.00049796,0.00013731,1.3092,0.27979,23678.1663627969,0.0003803544
73,10.1016/j.actamat.2015.04.023,4591,3(a),5859,x=0.0125,Mg2.9875Na0.0125Sb2,524.5,0.00004224,0.00049856,0.00013742,1.3083,0.28041,23674.2424242424,0.0003810747
73,10.1016/j.actamat.2015.04.023,4591,3(a),5859,x=0.0125,Mg2.9875Na0.0125Sb2,525,0.000042246,0.00049917,0.00013754,1.3074,0.28103,23670.8800833215,0.0003818036
73,10.1016/j.actamat.2015.04.023,4591,3(a),5859,x=0.0125,Mg2.9875Na0.0125Sb2,525.5,0.000042253,0.00049978,0.00013765,1.3065,0.28165,23666.9585591556,0.0003825335
73,10.1016/j.actamat.2015.04.023,4591,3(a),5859,x=0.0125,Mg2.9875Na0.0125Sb2,526,0.000042259,0.00050039,0.00013776,1.3056,0.28227,23663.5982867555,0.0003832644
73,10.1016/j.actamat.2015.04.023,4591,3(a),5859,x=0.0125,Mg2.9875Na0.0125Sb2,526.5,0.000042266,0.00050099,0.00013787,1.3047,0.2829,23659.6791747504,0.0003839887
73,10.1016/j.actamat.2015.04.023,4591,3(a),5859,x=0.0125,Mg2.9875Na0.0125Sb2,527,0.000042273,0.0005016,0.00013798,1.3038,0.28352,23655.7613606794,0.0003847216
73,10.1016/j.actamat.2015.04.023,4591,3(a),5859,x=0.0125,Mg2.9875Na0.0125Sb2,527.5,0.000042279,0.00050221,0.00013809,1.3029,0.28414,23652.4042668937,0.0003854555
73,10.1016/j.actamat.2015.04.023,4591,3(a),5859,x=0.0125,Mg2.9875Na0.0125Sb2,528,0.000042286,0.00050282,0.0001382,1.302,0.28476,23648.4888615617,0.0003861905
73,10.1016/j.actamat.2015.04.023,4591,3(a),5859,x=0.0125,Mg2.9875Na0.0125Sb2,528.5,0.000042292,0.00050342,0.00013831,1.3011,0.28539,23645.1338314575,0.0003869188
73,10.1016/j.actamat.2015.04.023,4591,3(a),5859,x=0.0125,Mg2.9875Na0.0125Sb2,529,0.000042299,0.00050403,0.00013842,1.3002,0.28601,23641.2208326438,0.0003876557
73,10.1016/j.actamat.2015.04.023,4591,3(a),5859,x=0.0125,Mg2.9875Na0.0125Sb2,529.5,0.000042306,0.00050464,0.00013854,1.2993,0.28663,23637.3091287288,0.0003883938
73,10.1016/j.actamat.2015.04.023,4591,3(a),5859,x=0.0125,Mg2.9875Na0.0125Sb2,530,0.000042312,0.00050525,0.00013865,1.2984,0.28725,23633.9572698053,0.0003891328
73,10.1016/j.actamat.2015.04.023,4591,3(a),5859,x=0.0125,Mg2.9875Na0.0125Sb2,530.5,0.000042319,0.00050585,0.00013876,1.2975,0.28788,23630.0479689974,0.0003898651
73,10.1016/j.actamat.2015.04.023,4591,3(a),5859,x=0.0125,Mg2.9875Na0.0125Sb2,531,0.000042326,0.00050646,0.00013887,1.2965,0.2885,23626.1399612531,0.0003906363
73,10.1016/j.actamat.2015.04.023,4591,3(a),5859,x=0.0125,Mg2.9875Na0.0125Sb2,531.5,0.000042332,0.00050707,0.00013898,1.2956,0.28912,23622.7912690163,0.0003913785
73,10.1016/j.actamat.2015.04.023,4591,3(a),5859,x=0.0125,Mg2.9875Na0.0125Sb2,532,0.000042339,0.00050768,0.00013909,1.2947,0.28974,23618.8856609745,0.0003921217
73,10.1016/j.actamat.2015.04.023,4591,3(a),5859,x=0.0125,Mg2.9875Na0.0125Sb2,532.5,0.000042345,0.00050829,0.0001392,1.2938,0.29037,23615.5390246782,0.000392866
73,10.1016/j.actamat.2015.04.023,4591,3(a),5859,x=0.0125,Mg2.9875Na0.0125Sb2,533,0.000042352,0.00050889,0.00013931,1.2929,0.29099,23611.6358141292,0.0003936035
73,10.1016/j.actamat.2015.04.023,4591,3(a),5859,x=0.0125,Mg2.9875Na0.0125Sb2,533.5,0.000042359,0.0005095,0.00013943,1.292,0.29161,23607.7338936236,0.0003943498