sid,DOI,figureid,fignum,sampleid,samplename,composition,Temperature,Electrical resistivity,Power factor,Seebeck coefficient,Thermal conductivity,ZT,Electrical conductivity,Figure of merit Z
73,10.1016/j.actamat.2015.04.023,4591,3(a),5858,x=0.006,Mg2.994Na0.006Sb2,762,0.000084915,0.00061236,0.00022801,,0.51697,11776.4823647177,
73,10.1016/j.actamat.2015.04.023,4591,3(a),5858,x=0.006,Mg2.994Na0.006Sb2,762.5,0.000084929,0.00061277,0.00022813,,0.5175,11774.5410872611,
73,10.1016/j.actamat.2015.04.023,4591,3(a),5858,x=0.006,Mg2.994Na0.006Sb2,763,0.000084943,0.00061318,0.00022825,,0.51804,11772.6004497133,
73,10.1016/j.actamat.2015.04.023,4591,3(a),5858,x=0.006,Mg2.994Na0.006Sb2,763.5,0.000084958,0.00061359,0.00022837,,0.51858,11770.5219049413,
73,10.1016/j.actamat.2015.04.023,4591,3(a),5858,x=0.006,Mg2.994Na0.006Sb2,764,0.000084972,0.00061401,,,0.51911,11768.5825919126,
73,10.1016/j.actamat.2015.04.023,4591,3(a),5858,x=0.006,Mg2.994Na0.006Sb2,764.5,0.000084986,0.00061442,,,0.51965,11766.6439178218,
73,10.1016/j.actamat.2015.04.023,4592,3(b),5858,x=0.006,Mg2.994Na0.006Sb2,295,0.000071554,,,,0.015835,13975.4590938312,
73,10.1016/j.actamat.2015.04.023,4592,3(b),5858,x=0.006,Mg2.994Na0.006Sb2,295.5,0.000071568,0.00018534,0.00011517,1.5222,0.016372,13972.7252403309,0.000121758
73,10.1016/j.actamat.2015.04.023,4592,3(b),5858,x=0.006,Mg2.994Na0.006Sb2,296,0.000071583,0.00018568,0.00011529,1.5214,0.016908,13969.7972982412,0.0001220455
73,10.1016/j.actamat.2015.04.023,4592,3(b),5858,x=0.006,Mg2.994Na0.006Sb2,296.5,0.000071597,0.00018603,0.00011541,1.5206,0.017445,13967.0656591757,0.0001223399
73,10.1016/j.actamat.2015.04.023,4592,3(b),5858,x=0.006,Mg2.994Na0.006Sb2,297,0.000071611,0.00023036,0.00011553,1.5197,0.017981,13964.3350881848,0.0001515825
73,10.1016/j.actamat.2015.04.023,4592,3(b),5858,x=0.006,Mg2.994Na0.006Sb2,297.5,0.000071626,0.00023077,0.00011565,1.5189,0.018518,13961.4106609332,0.0001519323
73,10.1016/j.actamat.2015.04.023,4592,3(b),5858,x=0.006,Mg2.994Na0.006Sb2,298,0.00007164,0.00023118,0.00011577,1.518,0.019054,13958.6823003908,0.0001522925
73,10.1016/j.actamat.2015.04.023,4592,3(b),5858,x=0.006,Mg2.994Na0.006Sb2,298.5,0.000071654,0.00023159,0.00011589,1.5172,0.019591,13955.9550060011,0.000152643
73,10.1016/j.actamat.2015.04.023,4592,3(b),5858,x=0.006,Mg2.994Na0.006Sb2,299,0.000071669,0.00023201,0.00011602,1.5163,0.020127,13953.0340872623,0.0001530106
73,10.1016/j.actamat.2015.04.023,4592,3(b),5858,x=0.006,Mg2.994Na0.006Sb2,299.5,0.000071683,0.00023242,0.00011614,1.5155,0.020664,13950.3089993443,0.0001533619
73,10.1016/j.actamat.2015.04.023,4592,3(b),5858,x=0.006,Mg2.994Na0.006Sb2,300,0.000071697,0.00023283,0.00011626,1.5146,0.021201,13947.5849756615,0.0001537238
73,10.1016/j.actamat.2015.04.023,4592,3(b),5858,x=0.006,Mg2.994Na0.006Sb2,300.5,0.000071712,0.00023324,0.00011638,1.5138,0.021737,13944.6675591254,0.0001540758
73,10.1016/j.actamat.2015.04.023,4592,3(b),5858,x=0.006,Mg2.994Na0.006Sb2,765,0.000085001,,,,0.52019,11764.5674756768,
73,10.1016/j.actamat.2015.04.023,4592,3(b),5858,x=0.006,Mg2.994Na0.006Sb2,765.5,0.000085015,,,,0.52072,11762.6301240957,
73,10.1016/j.actamat.2015.04.023,4592,3(b),5858,x=0.006,Mg2.994Na0.006Sb2,766,0.000085029,,,,0.52126,11760.6934104835,
73,10.1016/j.actamat.2015.04.023,4592,3(b),5858,x=0.006,Mg2.994Na0.006Sb2,766.5,0.000085044,,,,0.5218,11758.6190677767,
73,10.1016/j.actamat.2015.04.023,4592,3(b),5858,x=0.006,Mg2.994Na0.006Sb2,767,0.000085058,,,,0.52233,11756.683674669,
73,10.1016/j.actamat.2015.04.023,4597,5,5858,x=0.006,Mg2.994Na0.006Sb2,294,,,,,0.014762,,
73,10.1016/j.actamat.2015.04.023,4597,5,5858,x=0.006,Mg2.994Na0.006Sb2,294.5,,,,,0.015299,,
73,10.1016/j.actamat.2015.04.023,4591,3(a),5859,x=0.0125,Mg2.9875Na0.0125Sb2,299.5,0.000039267,0.00019448,0.000087388,1.7167,0.00035138,25466.6768533374,0.0001132871
73,10.1016/j.actamat.2015.04.023,4591,3(a),5859,x=0.0125,Mg2.9875Na0.0125Sb2,300,0.000039273,0.00019495,0.000087499,1.7157,0.00097373,25462.7861380592,0.0001136271
73,10.1016/j.actamat.2015.04.023,4591,3(a),5859,x=0.0125,Mg2.9875Na0.0125Sb2,300.5,0.00003928,0.00019541,0.00008761,1.7148,0.0015961,25458.2484725051,0.000113955
73,10.1016/j.actamat.2015.04.023,4591,3(a),5859,x=0.0125,Mg2.9875Na0.0125Sb2,301,0.000039287,0.00019587,0.000087721,1.7139,0.0022184,25453.712423957,0.0001142832
73,10.1016/j.actamat.2015.04.023,4591,3(a),5859,x=0.0125,Mg2.9875Na0.0125Sb2,301.5,0.000039293,0.00019633,0.000087832,1.713,0.0028408,25449.8256686942,0.0001146118
73,10.1016/j.actamat.2015.04.023,4591,3(a),5859,x=0.0125,Mg2.9875Na0.0125Sb2,302,0.0000393,0.0001968,0.000087944,1.7121,0.0034631,25445.2926208651,0.0001149466
73,10.1016/j.actamat.2015.04.023,4591,3(a),5859,x=0.0125,Mg2.9875Na0.0125Sb2,302.5,0.000039306,0.0002288,0.000088055,1.7112,0.0040855,25441.408436371,0.0001337073
73,10.1016/j.actamat.2015.04.023,4591,3(a),5859,x=0.0125,Mg2.9875Na0.0125Sb2,303,0.000039313,0.00022941,0.000088166,1.7103,0.0047078,25436.8783862844,0.0001341344
73,10.1016/j.actamat.2015.04.023,4591,3(a),5859,x=0.0125,Mg2.9875Na0.0125Sb2,303.5,0.00003932,0.00023002,0.000088277,1.7094,0.0053302,25432.3499491353,0.0001345618
73,10.1016/j.actamat.2015.04.023,4591,3(a),5859,x=0.0125,Mg2.9875Na0.0125Sb2,304,0.000039326,0.00023063,0.000088388,1.7085,0.0059525,25428.4697146926,0.0001349898
73,10.1016/j.actamat.2015.04.023,4591,3(a),5859,x=0.0125,Mg2.9875Na0.0125Sb2,304.5,0.000039333,0.00023123,0.0000885,1.7076,0.0065749,25423.9442707142,0.0001354123
73,10.1016/j.actamat.2015.04.023,4591,3(a),5859,x=0.0125,Mg2.9875Na0.0125Sb2,305,0.000039339,0.00023184,0.000088611,1.7067,0.0071972,25420.0666005745,0.0001358411
73,10.1016/j.actamat.2015.04.023,4591,3(a),5859,x=0.0125,Mg2.9875Na0.0125Sb2,305.5,0.000039346,0.00023245,0.000088722,1.7058,0.0078195,25415.5441468002,0.0001362704
73,10.1016/j.actamat.2015.04.023,4591,3(a),5859,x=0.0125,Mg2.9875Na0.0125Sb2,306,0.000039353,0.00023306,0.000088833,1.7049,0.0084419,25411.0233019084,0.0001367001
73,10.1016/j.actamat.2015.04.023,4591,3(a),5859,x=0.0125,Mg2.9875Na0.0125Sb2,306.5,0.000039359,0.00023367,0.000088944,1.7039,0.0090642,25407.1495718895,0.0001371383
73,10.1016/j.actamat.2015.04.023,4591,3(a),5859,x=0.0125,Mg2.9875Na0.0125Sb2,307,0.000039366,0.00023427,0.000089056,1.703,0.0096866,25402.6317126454,0.0001375631
73,10.1016/j.actamat.2015.04.023,4591,3(a),5859,x=0.0125,Mg2.9875Na0.0125Sb2,307.5,0.000039372,0.00023488,0.000089167,1.7021,0.010309,25398.7605404856,0.0001379942
73,10.1016/j.actamat.2015.04.023,4591,3(a),5859,x=0.0125,Mg2.9875Na0.0125Sb2,308,0.000039379,0.00023549,0.000089278,1.7012,0.010931,25394.2456639326,0.0001384258
73,10.1016/j.actamat.2015.04.023,4591,3(a),5859,x=0.0125,Mg2.9875Na0.0125Sb2,308.5,0.000039386,0.0002361,0.000089389,1.7003,0.011554,25389.7323922206,0.0001388578
73,10.1016/j.actamat.2015.04.023,4591,3(a),5859,x=0.0125,Mg2.9875Na0.0125Sb2,309,0.000039392,0.0002367,0.0000895,1.6994,0.012176,25385.8651502843,0.0001392845
73,10.1016/j.actamat.2015.04.023,4591,3(a),5859,x=0.0125,Mg2.9875Na0.0125Sb2,309.5,0.000039399,0.00023731,0.000089612,1.6985,0.012798,25381.3548567223,0.0001397174
73,10.1016/j.actamat.2015.04.023,4591,3(a),5859,x=0.0125,Mg2.9875Na0.0125Sb2,310,0.000039405,0.00023792,0.000089723,1.6976,0.013421,25377.4901662226,0.0001401508
73,10.1016/j.actamat.2015.04.023,4591,3(a),5859,x=0.0125,Mg2.9875Na0.0125Sb2,310.5,0.000039412,0.00023853,0.000089834,1.6967,0.014043,25372.9828478636,0.0001405847
73,10.1016/j.actamat.2015.04.023,4591,3(a),5859,x=0.0125,Mg2.9875Na0.0125Sb2,311,0.000039419,0.00023913,0.000089945,1.6958,0.014665,25368.4771303179,0.0001410131
73,10.1016/j.actamat.2015.04.023,4591,3(a),5859,x=0.0125,Mg2.9875Na0.0125Sb2,311.5,0.000039425,0.00023974,0.000090056,1.6949,0.015288,25364.6163601776,0.0001414479
73,10.1016/j.actamat.2015.04.023,4591,3(a),5859,x=0.0125,Mg2.9875Na0.0125Sb2,312,0.000039432,0.00024035,0.000090168,1.694,0.01591,25360.113613309,0.0001418831
73,10.1016/j.actamat.2015.04.023,4591,3(a),5859,x=0.0125,Mg2.9875Na0.0125Sb2,312.5,0.000039438,0.00024096,0.000090279,1.6931,0.016532,25356.2553882043,0.0001423188
73,10.1016/j.actamat.2015.04.023,4591,3(a),5859,x=0.0125,Mg2.9875Na0.0125Sb2,313,0.000039445,0.00024156,0.00009039,1.6922,0.017155,25351.7556090759,0.0001427491
73,10.1016/j.actamat.2015.04.023,4591,3(a),5859,x=0.0125,Mg2.9875Na0.0125Sb2,313.5,0.000039452,0.00024217,0.000090501,1.6912,0.017777,25347.2574267464,0.0001431942
73,10.1016/j.actamat.2015.04.023,4591,3(a),5859,x=0.0125,Mg2.9875Na0.0125Sb2,314,0.000039458,0.00024278,0.000090612,1.6903,0.018399,25343.4031121699,0.0001436313
73,10.1016/j.actamat.2015.04.023,4591,3(a),5859,x=0.0125,Mg2.9875Na0.0125Sb2,314.5,0.000039465,0.00024339,0.000090723,1.6894,0.019022,25338.9078930698,0.0001440689
73,10.1016/j.actamat.2015.04.023,4591,3(a),5859,x=0.0125,Mg2.9875Na0.0125Sb2,315,0.000039471,0.00024399,0.000090835,1.6885,0.019644,25335.0561171493,0.000144501
73,10.1016/j.actamat.2015.04.023,4591,3(a),5859,x=0.0125,Mg2.9875Na0.0125Sb2,315.5,0.000039478,0.0002446,0.000090946,1.6876,0.020266,25330.5638583515,0.0001449396
73,10.1016/j.actamat.2015.04.023,4591,3(a),5859,x=0.0125,Mg2.9875Na0.0125Sb2,316,0.000039485,0.00024521,0.000091057,1.6867,0.020889,25326.0731923515,0.0001453785
73,10.1016/j.actamat.2015.04.023,4591,3(a),5859,x=0.0125,Mg2.9875Na0.0125Sb2,316.5,0.000039491,0.00024582,0.000091168,1.6858,0.021511,25322.2253171609,0.000145818
73,10.1016/j.actamat.2015.04.023,4591,3(a),5859,x=0.0125,Mg2.9875Na0.0125Sb2,317,0.000039498,0.00024642,0.000091279,1.6849,0.022134,25317.7376069674,0.000146252
73,10.1016/j.actamat.2015.04.023,4591,3(a),5859,x=0.0125,Mg2.9875Na0.0125Sb2,317.5,0.000039505,0.00024703,0.000091391,1.684,0.022756,25313.2514871535,0.0001466924
73,10.1016/j.actamat.2015.04.023,4591,3(a),5859,x=0.0125,Mg2.9875Na0.0125Sb2,318,0.000039511,0.00024764,0.000091502,1.6831,0.023378,25309.4075067703,0.0001471333
73,10.1016/j.actamat.2015.04.023,4591,3(a),5859,x=0.0125,Mg2.9875Na0.0125Sb2,318.5,0.000039518,0.00024825,0.000091613,1.6822,0.024001,25304.9243382762,0.0001475746
73,10.1016/j.actamat.2015.04.023,4591,3(a),5859,x=0.0125,Mg2.9875Na0.0125Sb2,319,0.000039524,0.00024885,0.000091724,1.6813,0.024623,25301.0828863475,0.0001480105
73,10.1016/j.actamat.2015.04.023,4591,3(a),5859,x=0.0125,Mg2.9875Na0.0125Sb2,319.5,0.000039531,0.00024946,0.000091835,1.6804,0.025245,25296.6026662619,0.0001484527
73,10.1016/j.actamat.2015.04.023,4591,3(a),5859,x=0.0125,Mg2.9875Na0.0125Sb2,320,0.000039538,0.00025007,0.000091947,1.6794,0.025868,25292.1240325763,0.0001489044
73,10.1016/j.actamat.2015.04.023,4591,3(a),5859,x=0.0125,Mg2.9875Na0.0125Sb2,320.5,0.000039544,0.00025068,0.000092058,1.6785,0.02649,25288.2864657091,0.0001493476
73,10.1016/j.actamat.2015.04.023,4591,3(a),5859,x=0.0125,Mg2.9875Na0.0125Sb2,321,0.000039551,0.00025128,0.000092169,1.6776,0.027112,25283.8107759602,0.0001497854
73,10.1016/j.actamat.2015.04.023,4591,3(a),5859,x=0.0125,Mg2.9875Na0.0125Sb2,321.5,0.000039557,0.00025189,0.00009228,1.6767,0.027735,25279.9757312233,0.0001502296
73,10.1016/j.actamat.2015.04.023,4591,3(a),5859,x=0.0125,Mg2.9875Na0.0125Sb2,322,0.000039564,0.0002525,0.000092391,1.6758,0.028357,25275.5029825094,0.0001506743
73,10.1016/j.actamat.2015.04.023,4591,3(a),5859,x=0.0125,Mg2.9875Na0.0125Sb2,322.5,0.000039571,0.00025311,0.000092503,1.6749,0.028979,25271.0318162291,0.0001511195
73,10.1016/j.actamat.2015.04.023,4591,3(a),5859,x=0.0125,Mg2.9875Na0.0125Sb2,323,0.000039577,0.00025371,0.000092614,1.674,0.029602,25267.2006468403,0.0001515591
73,10.1016/j.actamat.2015.04.023,4591,3(a),5859,x=0.0125,Mg2.9875Na0.0125Sb2,323.5,0.000039584,0.00025432,0.000092725,1.6731,0.030224,25262.7324171382,0.0001520053
73,10.1016/j.actamat.2015.04.023,4591,3(a),5859,x=0.0125,Mg2.9875Na0.0125Sb2,324,0.00003959,0.00025493,0.000092836,1.6722,0.030846,25258.9037635767,0.0001524519
73,10.1016/j.actamat.2015.04.023,4591,3(a),5859,x=0.0125,Mg2.9875Na0.0125Sb2,324.5,0.000039597,0.00025554,0.000092947,1.6713,0.031469,25254.4384675607,0.0001528989
73,10.1016/j.actamat.2015.04.023,4591,3(a),5859,x=0.0125,Mg2.9875Na0.0125Sb2,325,0.000039604,0.00025615,0.000093059,1.6704,0.032091,25249.9747500252,0.0001533465
73,10.1016/j.actamat.2015.04.023,4591,3(a),5859,x=0.0125,Mg2.9875Na0.0125Sb2,325.5,0.00003961,0.00025675,0.00009317,1.6695,0.032713,25246.1499621308,0.0001537886
73,10.1016/j.actamat.2015.04.023,4591,3(a),5859,x=0.0125,Mg2.9875Na0.0125Sb2,326,0.000039617,0.00025736,0.000093281,1.6686,0.033336,25241.6891738395,0.0001542371
73,10.1016/j.actamat.2015.04.023,4591,3(a),5859,x=0.0125,Mg2.9875Na0.0125Sb2,326.5,0.000039623,0.00025797,0.000093392,1.6677,0.033958,25237.86689549,0.0001546861
73,10.1016/j.actamat.2015.04.023,4591,3(a),5859,x=0.0125,Mg2.9875Na0.0125Sb2,327,0.00003963,0.00025858,0.000093503,1.6667,0.03458,25233.4090335604,0.0001551449
73,10.1016/j.actamat.2015.04.023,4591,3(a),5859,x=0.0125,Mg2.9875Na0.0125Sb2,327.5,0.000039637,0.00025918,0.000093614,1.6658,0.035203,25228.9527461715,0.0001555889
73,10.1016/j.actamat.2015.04.023,4591,3(a),5859,x=0.0125,Mg2.9875Na0.0125Sb2,328,0.000039643,0.00025979,0.000093726,1.6649,0.035825,25225.1343238403,0.0001560394
73,10.1016/j.actamat.2015.04.023,4591,3(a),5859,x=0.0125,Mg2.9875Na0.0125Sb2,328.5,0.00003965,0.0002604,0.000093837,1.664,0.036448,25220.6809583859,0.0001564904
73,10.1016/j.actamat.2015.04.023,4591,3(a),5859,x=0.0125,Mg2.9875Na0.0125Sb2,329,0.000039656,0.00026101,0.000093948,1.6631,0.03707,25216.8650393383,0.0001569419
73,10.1016/j.actamat.2015.04.023,4591,3(a),5859,x=0.0125,Mg2.9875Na0.0125Sb2,329.5,0.000039663,0.00026161,0.000094059,1.6622,0.037692,25212.4145929456,0.0001573878
73,10.1016/j.actamat.2015.04.023,4591,3(a),5859,x=0.0125,Mg2.9875Na0.0125Sb2,330,0.00003967,0.00026222,0.00009417,1.6613,0.038315,25207.9657171666,0.0001578402
73,10.1016/j.actamat.2015.04.023,4591,3(a),5859,x=0.0125,Mg2.9875Na0.0125Sb2,330.5,0.000039676,0.00026283,0.000094282,1.6604,0.038937,25204.1536445206,0.0001582932
73,10.1016/j.actamat.2015.04.023,4591,3(a),5859,x=0.0125,Mg2.9875Na0.0125Sb2,331,0.000039683,0.00026344,0.000094393,1.6595,0.039559,25199.7076833909,0.0001587466
73,10.1016/j.actamat.2015.04.023,4591,3(a),5859,x=0.0125,Mg2.9875Na0.0125Sb2,331.5,0.00003969,0.00026404,0.000094504,1.6586,0.040182,25195.2632905014,0.0001591945
73,10.1016/j.actamat.2015.04.023,4591,3(a),5859,x=0.0125,Mg2.9875Na0.0125Sb2,332,0.000039696,0.00026465,0.000094615,1.6577,0.040804,25191.4550584442,0.0001596489
73,10.1016/j.actamat.2015.04.023,4591,3(a),5859,x=0.0125,Mg2.9875Na0.0125Sb2,332.5,0.000039703,0.00026526,0.000094726,1.6568,0.041426,25187.0135758003,0.0001601038
73,10.1016/j.actamat.2015.04.023,4591,3(a),5859,x=0.0125,Mg2.9875Na0.0125Sb2,333,0.000039709,0.00026587,0.000094838,1.6559,0.042049,25183.2078370143,0.0001605592
73,10.1016/j.actamat.2015.04.023,4591,3(a),5859,x=0.0125,Mg2.9875Na0.0125Sb2,333.5,0.000039716,0.00026647,0.000094949,1.6549,0.042671,25178.7692617585,0.0001610188
73,10.1016/j.actamat.2015.04.023,4591,3(a),5859,x=0.0125,Mg2.9875Na0.0125Sb2,334,0.000039723,0.00026708,0.00009506,1.654,0.043293,25174.332250837,0.0001614752
73,10.1016/j.actamat.2015.04.023,4591,3(a),5859,x=0.0125,Mg2.9875Na0.0125Sb2,334.5,0.000039729,0.00026769,0.000095171,1.6531,0.043916,25170.5303430743,0.0001619321
73,10.1016/j.actamat.2015.04.023,4591,3(a),5859,x=0.0125,Mg2.9875Na0.0125Sb2,335,0.000039736,0.0002683,0.000095282,1.6522,0.044538,25166.096235152,0.0001623895
73,10.1016/j.actamat.2015.04.023,4591,3(a),5859,x=0.0125,Mg2.9875Na0.0125Sb2,335.5,0.000039742,0.0002689,0.000095394,1.6513,0.04516,25162.2968144532,0.0001628414
73,10.1016/j.actamat.2015.04.023,4591,3(a),5859,x=0.0125,Mg2.9875Na0.0125Sb2,336,0.000039749,0.00026951,0.000095505,1.6504,0.045783,25157.8656066819,0.0001632998
73,10.1016/j.actamat.2015.04.023,4591,3(a),5859,x=0.0125,Mg2.9875Na0.0125Sb2,336.5,0.000039756,0.00027012,0.000095616,1.6495,0.046405,25153.435959352,0.0001637587
73,10.1016/j.actamat.2015.04.023,4591,3(a),5859,x=0.0125,Mg2.9875Na0.0125Sb2,337,0.000039762,0.00027073,0.000095727,1.6486,0.047027,25149.6403601428,0.0001642181
73,10.1016/j.actamat.2015.04.023,4591,3(a),5859,x=0.0125,Mg2.9875Na0.0125Sb2,337.5,0.000039769,0.00027133,0.000095838,1.6477,0.04765,25145.2136085896,0.000164672
73,10.1016/j.actamat.2015.04.023,4591,3(a),5859,x=0.0125,Mg2.9875Na0.0125Sb2,338,0.000039775,0.00027194,0.00009595,1.6468,0.048272,25141.4204902577,0.0001651324
73,10.1016/j.actamat.2015.04.023,4591,3(a),5859,x=0.0125,Mg2.9875Na0.0125Sb2,338.5,0.000039782,0.00027255,0.000096061,1.6459,0.048894,25136.9966316425,0.0001655933
73,10.1016/j.actamat.2015.04.023,4591,3(a),5859,x=0.0125,Mg2.9875Na0.0125Sb2,339,0.000039789,0.00027316,0.000096172,1.645,0.049517,25132.5743295886,0.0001660547
73,10.1016/j.actamat.2015.04.023,4591,3(a),5859,x=0.0125,Mg2.9875Na0.0125Sb2,339.5,0.000039795,0.00027376,0.000096283,1.6441,0.050139,25128.7850232441,0.0001665106
73,10.1016/j.actamat.2015.04.023,4591,3(a),5859,x=0.0125,Mg2.9875Na0.0125Sb2,340,0.000039802,0.00027437,0.000096394,1.6432,0.050762,25124.3656097684,0.000166973
73,10.1016/j.actamat.2015.04.023,4591,3(a),5859,x=0.0125,Mg2.9875Na0.0125Sb2,340.5,0.000039808,0.00027498,0.000096505,1.6422,0.051384,25120.578778135,0.0001674461
73,10.1016/j.actamat.2015.04.023,4591,3(a),5859,x=0.0125,Mg2.9875Na0.0125Sb2,341,0.000039815,0.00027559,0.000096617,1.6413,0.052006,25116.1622504081,0.0001679096
73,10.1016/j.actamat.2015.04.023,4591,3(a),5859,x=0.0125,Mg2.9875Na0.0125Sb2,341.5,0.000039822,0.00027619,0.000096728,1.6404,0.052629,25111.7472753754,0.0001683675
73,10.1016/j.actamat.2015.04.023,4591,3(a),5859,x=0.0125,Mg2.9875Na0.0125Sb2,342,0.000039828,0.0002768,0.000096839,1.6395,0.053251,25107.9642462589,0.000168832
73,10.1016/j.actamat.2015.04.023,4591,3(a),5859,x=0.0125,Mg2.9875Na0.0125Sb2,342.5,0.000039835,0.00027741,0.00009695,1.6386,0.053873,25103.5521526296,0.000169297
73,10.1016/j.actamat.2015.04.023,4591,3(a),5859,x=0.0125,Mg2.9875Na0.0125Sb2,343,0.000039841,0.00027802,0.000097061,1.6377,0.054496,25099.7715920785,0.0001697625
73,10.1016/j.actamat.2015.04.023,4591,3(a),5859,x=0.0125,Mg2.9875Na0.0125Sb2,343.5,0.000039848,0.00027863,0.000097173,1.6368,0.055118,25095.3623770327,0.0001702285
73,10.1016/j.actamat.2015.04.023,4591,3(a),5859,x=0.0125,Mg2.9875Na0.0125Sb2,344,0.000039855,0.00027923,0.000097284,1.6359,0.05574,25090.9547108267,0.0001706889
73,10.1016/j.actamat.2015.04.023,4591,3(a),5859,x=0.0125,Mg2.9875Na0.0125Sb2,344.5,0.000039861,0.00027984,0.000097395,1.635,0.056363,25087.1779433532,0.000171156
73,10.1016/j.actamat.2015.04.023,4591,3(a),5859,x=0.0125,Mg2.9875Na0.0125Sb2,345,0.000039868,0.00028045,0.000097506,1.6341,0.056985,25082.7731513996,0.0001716235
73,10.1016/j.actamat.2015.04.023,4591,3(a),5859,x=0.0125,Mg2.9875Na0.0125Sb2,345.5,0.000039874,0.00028106,0.000097617,1.6332,0.057607,25078.9988463661,0.0001720916
73,10.1016/j.actamat.2015.04.023,4591,3(a),5859,x=0.0125,Mg2.9875Na0.0125Sb2,346,0.000039881,0.00028166,0.000097729,1.6323,0.05823,25074.5969258544,0.0001725541
73,10.1016/j.actamat.2015.04.023,4591,3(a),5859,x=0.0125,Mg2.9875Na0.0125Sb2,346.5,0.000039888,0.00028227,0.00009784,1.6314,0.058852,25070.196550341,0.0001730232
73,10.1016/j.actamat.2015.04.023,4591,3(a),5859,x=0.0125,Mg2.9875Na0.0125Sb2,347,0.000039894,0.00028288,0.000097951,1.6305,0.059474,25066.4260289768,0.0001734928
73,10.1016/j.actamat.2015.04.023,4591,3(a),5859,x=0.0125,Mg2.9875Na0.0125Sb2,347.5,0.000039901,0.00028349,0.000098062,1.6295,0.060097,25062.0285205885,0.0001739736
73,10.1016/j.actamat.2015.04.023,4591,3(a),5859,x=0.0125,Mg2.9875Na0.0125Sb2,348,0.000039908,0.00028409,0.000098173,1.6286,0.060719,25057.6325548762,0.0001744382
73,10.1016/j.actamat.2015.04.023,4591,3(a),5859,x=0.0125,Mg2.9875Na0.0125Sb2,348.5,0.000039914,0.0002847,0.000098285,1.6277,0.061341,25053.8658114947,0.0001749094
73,10.1016/j.actamat.2015.04.023,4591,3(a),5859,x=0.0125,Mg2.9875Na0.0125Sb2,349,0.000039921,0.00028531,0.000098396,1.6268,0.061964,25049.4727085995,0.0001753811