sid,DOI,figureid,fignum,sampleid,samplename,composition,Temperature,Electrical resistivity,Power factor,Seebeck coefficient,Thermal conductivity,ZT,Electrical conductivity,Figure of merit Z
10954,10.1007/s11664-015-4303-6,5134,3(a),6472,x=1,Eu1Zn2Sb2,709.5,0.000017828,0.0020984,0.00018559,1.2632,0.96206,56091.5413955575,0.001661178
10954,10.1007/s11664-015-4303-6,5134,3(a),6472,x=1,Eu1Zn2Sb2,710,0.000017836,0.0020994,0.00018557,1.2617,0.96314,56066.3825969948,0.0016639455
10954,10.1007/s11664-015-4303-6,5134,3(a),6472,x=1,Eu1Zn2Sb2,710.5,0.000017844,0.0021005,0.00018555,1.2603,0.96422,56041.246357319,0.0016666667
10954,10.1007/s11664-015-4303-6,5134,3(a),6472,x=1,Eu1Zn2Sb2,711,0.000017852,0.0021015,0.00018553,1.2589,0.9653,56016.1326462021,0.0016693145
10954,10.1007/s11664-015-4303-6,5134,3(a),6472,x=1,Eu1Zn2Sb2,711.5,0.00001786,0.0021025,0.0001855,1.2575,0.96638,55991.0414333707,0.0016719682
10954,10.1007/s11664-015-4303-6,5134,3(a),6472,x=1,Eu1Zn2Sb2,712,0.000017868,0.0021036,0.00018548,1.2561,0.96746,55965.9726886053,0.0016747074
10954,10.1007/s11664-015-4303-6,5134,3(a),6472,x=1,Eu1Zn2Sb2,712.5,0.000017876,0.0021046,0.00018545,1.2546,0.96854,55940.9263817409,0.0016775068
10954,10.1007/s11664-015-4303-6,5134,3(a),6472,x=1,Eu1Zn2Sb2,713,0.000017884,0.0021056,0.00018543,1.2532,0.96962,55915.9024826661,0.0016801787
10954,10.1007/s11664-015-4303-6,5134,3(a),6472,x=1,Eu1Zn2Sb2,713.5,0.000017892,0.0021067,0.0001854,1.2518,0.9707,55890.9009613235,0.0016829366
10954,10.1007/s11664-015-4303-6,5134,3(a),6472,x=1,Eu1Zn2Sb2,714,0.0000179,0.0021077,0.00018537,1.2504,0.97178,55865.9217877095,0.0016856206
10954,10.1007/s11664-015-4303-6,5134,3(a),6472,x=1,Eu1Zn2Sb2,714.5,0.000017908,0.0021087,0.00018534,1.249,0.97286,55840.964931874,0.0016883106
10954,10.1007/s11664-015-4303-6,5134,3(a),6472,x=1,Eu1Zn2Sb2,715,0.000017916,0.0021097,0.00018531,1.2476,0.97394,55816.0303639205,0.0016910067
10954,10.1007/s11664-015-4303-6,5134,3(a),6472,x=1,Eu1Zn2Sb2,715.5,0.000017924,0.0021108,0.00018528,1.2461,0.97502,55791.1180540058,0.001693925
10954,10.1007/s11664-015-4303-6,5134,3(a),6472,x=1,Eu1Zn2Sb2,716,0.000017932,0.0021118,0.00018525,1.2447,0.9761,55766.2279723399,0.0016966337
10954,10.1007/s11664-015-4303-6,5134,3(a),6472,x=1,Eu1Zn2Sb2,716.5,0.000017941,0.0021128,0.00018522,1.2433,0.97718,55738.2531631459,0.0016993485
10954,10.1007/s11664-015-4303-6,5136,3(b),6472,x=1,Eu1Zn2Sb2,299,,,0.00011081,2.4275,,,
10954,10.1007/s11664-015-4303-6,5136,3(b),6472,x=1,Eu1Zn2Sb2,299.5,,,0.00011098,2.4261,,,
10954,10.1007/s11664-015-4303-6,5136,3(b),6472,x=1,Eu1Zn2Sb2,300,,,0.00011115,2.4247,,,
10954,10.1007/s11664-015-4303-6,5136,3(b),6472,x=1,Eu1Zn2Sb2,300.5,,,0.00011132,2.4232,,,
10954,10.1007/s11664-015-4303-6,5136,3(b),6472,x=1,Eu1Zn2Sb2,301,,,0.00011148,2.4218,,,
10954,10.1007/s11664-015-4303-6,5136,3(b),6472,x=1,Eu1Zn2Sb2,717,,0.0021139,0.00018519,,0.97826,,
10954,10.1007/s11664-015-4303-6,5136,3(b),6472,x=1,Eu1Zn2Sb2,717.5,,0.0021149,0.00018516,,0.97934,,
10954,10.1007/s11664-015-4303-6,5136,3(b),6472,x=1,Eu1Zn2Sb2,718,,0.0021159,0.00018512,,0.98042,,
10954,10.1007/s11664-015-4303-6,5136,3(b),6472,x=1,Eu1Zn2Sb2,718.5,,,0.00018509,,0.9815,,
10954,10.1007/s11664-015-4303-6,5136,3(b),6472,x=1,Eu1Zn2Sb2,719,,,0.00018505,,0.98258,,
10954,10.1007/s11664-015-4303-6,5136,3(b),6472,x=1,Eu1Zn2Sb2,719.5,,,0.00018501,,0.98366,,
10954,10.1007/s11664-015-4303-6,5136,3(b),6472,x=1,Eu1Zn2Sb2,720,,,0.00018498,,0.98474,,
10954,10.1007/s11664-015-4303-6,5137,3(c),6472,x=1,Eu1Zn2Sb2,297.5,,,,2.4318,,,
10954,10.1007/s11664-015-4303-6,5137,3(c),6472,x=1,Eu1Zn2Sb2,298,,,,2.4303,,,
10954,10.1007/s11664-015-4303-6,5137,3(c),6472,x=1,Eu1Zn2Sb2,298.5,,,,2.4289,,,