sid,DOI,figureid,fignum,sampleid,samplename,composition,Temperature,Electrical resistivity,Power factor,Seebeck coefficient,Thermal conductivity,ZT,Electrical conductivity,Figure of merit Z
10954,10.1007/s11664-015-4303-6,5134,3(a),6470,x=0.7,Ca0.3Eu0.7Zn2Sb2,421.5,0.000015964,0.0011793,0.00013624,2.5196,0.21254,62640.9421197695,0.0004680505
10954,10.1007/s11664-015-4303-6,5134,3(a),6470,x=0.7,Ca0.3Eu0.7Zn2Sb2,422,0.000015977,0.00118,0.00013633,2.518,0.2132,62589.9730863116,0.0004686259
10954,10.1007/s11664-015-4303-6,5134,3(a),6470,x=0.7,Ca0.3Eu0.7Zn2Sb2,422.5,0.00001599,0.0011806,0.00013643,2.5164,0.21387,62539.0869293308,0.0004691623
10954,10.1007/s11664-015-4303-6,5134,3(a),6470,x=0.7,Ca0.3Eu0.7Zn2Sb2,423,0.000016003,0.0011813,0.00013652,2.5149,0.21453,62488.2834468537,0.0004697205
10954,10.1007/s11664-015-4303-6,5134,3(a),6470,x=0.7,Ca0.3Eu0.7Zn2Sb2,423.5,0.000016015,0.001182,0.00013662,2.5133,0.21519,62441.4611301904,0.000470298
10954,10.1007/s11664-015-4303-6,5134,3(a),6470,x=0.7,Ca0.3Eu0.7Zn2Sb2,424,0.000016028,0.0011827,0.00013671,2.5117,0.21586,62390.8160718742,0.0004708763
10954,10.1007/s11664-015-4303-6,5134,3(a),6470,x=0.7,Ca0.3Eu0.7Zn2Sb2,424.5,0.000016041,0.0011834,0.00013681,2.5101,0.21652,62340.2531014276,0.0004714553
10954,10.1007/s11664-015-4303-6,5134,3(a),6470,x=0.7,Ca0.3Eu0.7Zn2Sb2,425,0.000016054,0.0011841,0.0001369,2.5085,0.21719,62289.7720194344,0.0004720351
10954,10.1007/s11664-015-4303-6,5134,3(a),6470,x=0.7,Ca0.3Eu0.7Zn2Sb2,425.5,0.000016067,0.0011847,0.000137,2.5069,0.21785,62239.3726271239,0.0004725757
10954,10.1007/s11664-015-4303-6,5134,3(a),6470,x=0.7,Ca0.3Eu0.7Zn2Sb2,426,0.00001608,0.0011854,0.00013709,2.5053,0.21851,62189.0547263682,0.0004731569
10954,10.1007/s11664-015-4303-6,5134,3(a),6470,x=0.7,Ca0.3Eu0.7Zn2Sb2,426.5,0.000016092,0.0011861,0.00013719,2.5037,0.21918,62142.679592344,0.0004737389
10954,10.1007/s11664-015-4303-6,5134,3(a),6470,x=0.7,Ca0.3Eu0.7Zn2Sb2,427,0.000016105,0.0011868,0.00013728,2.5022,0.21984,62092.5178515989,0.0004743026
10954,10.1007/s11664-015-4303-6,5134,3(a),6470,x=0.7,Ca0.3Eu0.7Zn2Sb2,427.5,0.000016118,0.0011875,0.00013738,2.5006,0.2205,62042.4370269264,0.000474886
10954,10.1007/s11664-015-4303-6,5134,3(a),6470,x=0.7,Ca0.3Eu0.7Zn2Sb2,428,0.000016131,0.0011882,0.00013747,2.499,0.22117,61992.4369226954,0.0004754702
10954,10.1007/s11664-015-4303-6,5134,3(a),6470,x=0.7,Ca0.3Eu0.7Zn2Sb2,428.5,0.000016144,0.0011888,0.00013757,2.4974,0.22183,61942.5173439049,0.0004760151
10954,10.1007/s11664-015-4303-6,5134,3(a),6470,x=0.7,Ca0.3Eu0.7Zn2Sb2,429,0.000016157,0.0011895,0.00013766,2.4958,0.2225,61892.6780961812,0.0004766007
10954,10.1007/s11664-015-4303-6,5134,3(a),6470,x=0.7,Ca0.3Eu0.7Zn2Sb2,429.5,0.00001617,0.0011902,0.00013776,2.4942,0.22316,61842.9189857761,0.0004771871
10954,10.1007/s11664-015-4303-6,5134,3(a),6470,x=0.7,Ca0.3Eu0.7Zn2Sb2,430,0.000016182,0.0011909,0.00013785,2.4926,0.22382,61797.0584600173,0.0004777742
10954,10.1007/s11664-015-4303-6,5134,3(a),6470,x=0.7,Ca0.3Eu0.7Zn2Sb2,430.5,0.000016195,0.0011916,0.00013794,2.491,0.22449,61747.4529175671,0.0004783621
10954,10.1007/s11664-015-4303-6,5134,3(a),6470,x=0.7,Ca0.3Eu0.7Zn2Sb2,431,0.000016208,0.0011922,0.00013804,2.4895,0.22515,61697.9269496545,0.0004788913
10954,10.1007/s11664-015-4303-6,5134,3(a),6470,x=0.7,Ca0.3Eu0.7Zn2Sb2,431.5,0.000016221,0.0011929,0.00013813,2.4879,0.22581,61648.480364959,0.0004794807
10954,10.1007/s11664-015-4303-6,5134,3(a),6470,x=0.7,Ca0.3Eu0.7Zn2Sb2,432,0.000016234,0.0011936,0.00013823,2.4863,0.22648,61599.1129727732,0.0004800708
10954,10.1007/s11664-015-4303-6,5134,3(a),6470,x=0.7,Ca0.3Eu0.7Zn2Sb2,432.5,0.000016247,0.0011943,0.00013832,2.4847,0.22714,61549.8245829999,0.0004806616
10954,10.1007/s11664-015-4303-6,5134,3(a),6470,x=0.7,Ca0.3Eu0.7Zn2Sb2,433,0.000016259,0.001195,0.00013842,2.4831,0.22781,61504.3975644259,0.0004812533
10954,10.1007/s11664-015-4303-6,5134,3(a),6470,x=0.7,Ca0.3Eu0.7Zn2Sb2,433.5,0.000016272,0.0011957,0.00013851,2.4815,0.22847,61455.2605703048,0.0004818457
10954,10.1007/s11664-015-4303-6,5134,3(a),6470,x=0.7,Ca0.3Eu0.7Zn2Sb2,434,0.000016285,0.0011963,0.00013861,2.4799,0.22913,61406.2020264047,0.0004823985
10954,10.1007/s11664-015-4303-6,5134,3(a),6470,x=0.7,Ca0.3Eu0.7Zn2Sb2,434.5,0.000016298,0.001197,0.0001387,2.4784,0.2298,61357.2217449994,0.0004829729
10954,10.1007/s11664-015-4303-6,5134,3(a),6470,x=0.7,Ca0.3Eu0.7Zn2Sb2,435,0.000016311,0.0011977,0.0001388,2.4768,0.23046,61308.3195389614,0.0004835675
10954,10.1007/s11664-015-4303-6,5134,3(a),6470,x=0.7,Ca0.3Eu0.7Zn2Sb2,435.5,0.000016324,0.0011984,0.00013889,2.4752,0.23112,61259.4952217594,0.0004841629
10954,10.1007/s11664-015-4303-6,5134,3(a),6470,x=0.7,Ca0.3Eu0.7Zn2Sb2,436,0.000016336,0.0011991,0.00013899,2.4736,0.23179,61214.4955925563,0.0004847591
10954,10.1007/s11664-015-4303-6,5134,3(a),6470,x=0.7,Ca0.3Eu0.7Zn2Sb2,436.5,0.000016349,0.0011997,0.00013908,2.472,0.23245,61165.8205394825,0.0004853155
10954,10.1007/s11664-015-4303-6,5134,3(a),6470,x=0.7,Ca0.3Eu0.7Zn2Sb2,437,0.000016362,0.0012004,0.00013918,2.4704,0.23312,61117.2228333945,0.0004859132
10954,10.1007/s11664-015-4303-6,5134,3(a),6470,x=0.7,Ca0.3Eu0.7Zn2Sb2,437.5,0.000016375,0.0012011,0.00013927,2.4688,0.23378,61068.7022900763,0.0004865117
10954,10.1007/s11664-015-4303-6,5134,3(a),6470,x=0.7,Ca0.3Eu0.7Zn2Sb2,438,0.000016388,0.0012018,0.00013937,2.4672,0.23444,61020.258725897,0.0004871109
10954,10.1007/s11664-015-4303-6,5134,3(a),6470,x=0.7,Ca0.3Eu0.7Zn2Sb2,438.5,0.000016401,0.0012025,0.00013946,2.4657,0.23511,60971.8919578074,0.0004876911
10954,10.1007/s11664-015-4303-6,5134,3(a),6470,x=0.7,Ca0.3Eu0.7Zn2Sb2,439,0.000016414,0.0012032,0.00013956,2.4641,0.23577,60923.6018033386,0.0004882919
10954,10.1007/s11664-015-4303-6,5134,3(a),6470,x=0.7,Ca0.3Eu0.7Zn2Sb2,439.5,0.000016426,0.0012038,0.00013965,2.4625,0.23643,60879.0941190795,0.0004888528
10954,10.1007/s11664-015-4303-6,5134,3(a),6470,x=0.7,Ca0.3Eu0.7Zn2Sb2,440,0.000016439,0.0012045,0.00013975,2.4609,0.2371,60830.9507877608,0.0004894551
10954,10.1007/s11664-015-4303-6,5134,3(a),6470,x=0.7,Ca0.3Eu0.7Zn2Sb2,440.5,0.000016452,0.0012052,0.00013984,2.4593,0.23776,60782.8835399951,0.0004900581
10954,10.1007/s11664-015-4303-6,5134,3(a),6470,x=0.7,Ca0.3Eu0.7Zn2Sb2,441,0.000016465,0.0012059,0.00013994,2.4577,0.23843,60734.8921955664,0.000490662
10954,10.1007/s11664-015-4303-6,5134,3(a),6470,x=0.7,Ca0.3Eu0.7Zn2Sb2,441.5,0.000016478,0.0012066,0.00014003,2.4561,0.23909,60686.976574827,0.0004912666
10954,10.1007/s11664-015-4303-6,5134,3(a),6470,x=0.7,Ca0.3Eu0.7Zn2Sb2,442,0.000016491,0.0012073,0.00014013,2.4545,0.23975,60639.1364986963,0.0004918721
10954,10.1007/s11664-015-4303-6,5134,3(a),6470,x=0.7,Ca0.3Eu0.7Zn2Sb2,442.5,0.000016503,0.0012079,0.00014022,2.453,0.24042,60595.043325456,0.0004924174
10954,10.1007/s11664-015-4303-6,5134,3(a),6470,x=0.7,Ca0.3Eu0.7Zn2Sb2,443,0.000016516,0.0012086,0.00014032,2.4514,0.24108,60547.3480261565,0.0004930244
10954,10.1007/s11664-015-4303-6,5134,3(a),6470,x=0.7,Ca0.3Eu0.7Zn2Sb2,443.5,0.000016529,0.0012093,0.00014041,2.4498,0.24174,60499.7277512251,0.0004936321
10954,10.1007/s11664-015-4303-6,5134,3(a),6470,x=0.7,Ca0.3Eu0.7Zn2Sb2,444,0.000016542,0.00121,0.00014051,2.4482,0.24241,60452.1823237819,0.0004942407
10954,10.1007/s11664-015-4303-6,5134,3(a),6470,x=0.7,Ca0.3Eu0.7Zn2Sb2,444.5,0.000016555,0.0012107,0.0001406,2.4466,0.24307,60404.7115675023,0.00049485
10954,10.1007/s11664-015-4303-6,5134,3(a),6470,x=0.7,Ca0.3Eu0.7Zn2Sb2,445,0.000016568,0.0012113,0.0001407,2.445,0.24374,60357.3153066152,0.0004954192
10954,10.1007/s11664-015-4303-6,5134,3(a),6470,x=0.7,Ca0.3Eu0.7Zn2Sb2,445.5,0.00001658,0.001212,0.00014079,2.4434,0.2444,60313.630880579,0.0004960301
10954,10.1007/s11664-015-4303-6,5134,3(a),6470,x=0.7,Ca0.3Eu0.7Zn2Sb2,446,0.000016593,0.0012127,0.00014089,2.4418,0.24506,60266.3773880552,0.0004966418
10954,10.1007/s11664-015-4303-6,5134,3(a),6470,x=0.7,Ca0.3Eu0.7Zn2Sb2,446.5,0.000016606,0.0012134,0.00014098,2.4403,0.24573,60219.1978802842,0.0004972339
10954,10.1007/s11664-015-4303-6,5134,3(a),6470,x=0.7,Ca0.3Eu0.7Zn2Sb2,447,0.000016619,0.0012141,0.00014108,2.4387,0.24639,60172.0921836452,0.0004978472
10954,10.1007/s11664-015-4303-6,5134,3(a),6470,x=0.7,Ca0.3Eu0.7Zn2Sb2,447.5,0.000016632,0.0012148,0.00014117,2.4371,0.24705,60125.0601250601,0.0004984613
10954,10.1007/s11664-015-4303-6,5134,3(a),6470,x=0.7,Ca0.3Eu0.7Zn2Sb2,448,0.000016645,0.0012154,0.00014126,2.4355,0.24772,60078.1015319916,0.0004990351
10954,10.1007/s11664-015-4303-6,5134,3(a),6470,x=0.7,Ca0.3Eu0.7Zn2Sb2,448.5,0.000016658,0.0012161,0.00014136,2.4339,0.24838,60031.2162324409,0.0004996508
10954,10.1007/s11664-015-4303-6,5134,3(a),6470,x=0.7,Ca0.3Eu0.7Zn2Sb2,449,0.00001667,0.0012168,0.00014145,2.4323,0.24905,59988.0023995201,0.0005002672
10954,10.1007/s11664-015-4303-6,5134,3(a),6470,x=0.7,Ca0.3Eu0.7Zn2Sb2,449.5,0.000016683,0.0012175,0.00014155,2.4307,0.24971,59941.2575675838,0.0005008845
10954,10.1007/s11664-015-4303-6,5134,3(a),6470,x=0.7,Ca0.3Eu0.7Zn2Sb2,450,0.000016696,0.0012182,0.00014164,2.4292,0.25037,59894.5855294681,0.000501482
10954,10.1007/s11664-015-4303-6,5134,3(a),6470,x=0.7,Ca0.3Eu0.7Zn2Sb2,450.5,0.000016709,0.0012189,0.00014174,2.4276,0.25104,59847.9861152672,0.0005021008
10954,10.1007/s11664-015-4303-6,5134,3(a),6470,x=0.7,Ca0.3Eu0.7Zn2Sb2,451,0.000016722,0.0012195,0.00014183,2.426,0.2517,59801.4591556034,0.0005026793
10954,10.1007/s11664-015-4303-6,5134,3(a),6470,x=0.7,Ca0.3Eu0.7Zn2Sb2,451.5,0.000016735,0.0012202,0.00014193,2.4244,0.25236,59755.0044816253,0.0005032998
10954,10.1007/s11664-015-4303-6,5134,3(a),6470,x=0.7,Ca0.3Eu0.7Zn2Sb2,452,0.000016747,0.0012209,0.00014202,2.4228,0.25303,59712.1872574192,0.0005039211
10954,10.1007/s11664-015-4303-6,5134,3(a),6470,x=0.7,Ca0.3Eu0.7Zn2Sb2,452.5,0.00001676,0.0012216,0.00014212,2.4212,0.25369,59665.8711217184,0.0005045432
10954,10.1007/s11664-015-4303-6,5134,3(a),6470,x=0.7,Ca0.3Eu0.7Zn2Sb2,453,0.000016773,0.0012223,0.00014221,2.4196,0.25436,59619.6267811364,0.0005051661
10954,10.1007/s11664-015-4303-6,5134,3(a),6470,x=0.7,Ca0.3Eu0.7Zn2Sb2,453.5,0.000016786,0.0012229,0.00014231,2.418,0.25502,59573.4540688669,0.0005057486
10954,10.1007/s11664-015-4303-6,5134,3(a),6470,x=0.7,Ca0.3Eu0.7Zn2Sb2,454,0.000016799,0.0012236,0.0001424,2.4165,0.25568,59527.3528186202,0.0005063522
10954,10.1007/s11664-015-4303-6,5134,3(a),6470,x=0.7,Ca0.3Eu0.7Zn2Sb2,454.5,0.000016812,0.0012243,0.0001425,2.4149,0.25635,59481.3228646205,0.0005069775
10954,10.1007/s11664-015-4303-6,5134,3(a),6470,x=0.7,Ca0.3Eu0.7Zn2Sb2,455,0.000016824,0.001225,0.00014259,2.4133,0.25701,59438.8968140751,0.0005076037
10954,10.1007/s11664-015-4303-6,5134,3(a),6470,x=0.7,Ca0.3Eu0.7Zn2Sb2,455.5,0.000016837,0.0012257,0.00014269,2.4117,0.25768,59393.0035041872,0.0005082307
10954,10.1007/s11664-015-4303-6,5134,3(a),6470,x=0.7,Ca0.3Eu0.7Zn2Sb2,456,0.00001685,0.0012264,0.00014278,2.4101,0.25834,59347.1810089021,0.0005088586
10954,10.1007/s11664-015-4303-6,5134,3(a),6470,x=0.7,Ca0.3Eu0.7Zn2Sb2,456.5,0.000016863,0.001227,0.00014288,2.4085,0.259,59301.4291644429,0.0005094457
10954,10.1007/s11664-015-4303-6,5134,3(a),6470,x=0.7,Ca0.3Eu0.7Zn2Sb2,457,0.000016876,0.0012277,0.00014297,2.4069,0.25967,59255.7478075373,0.0005100752
10954,10.1007/s11664-015-4303-6,5134,3(a),6470,x=0.7,Ca0.3Eu0.7Zn2Sb2,457.5,0.000016889,0.0012284,0.00014307,2.4053,0.26033,59210.136775416,0.0005107055
10954,10.1007/s11664-015-4303-6,5134,3(a),6470,x=0.7,Ca0.3Eu0.7Zn2Sb2,458,0.000016901,0.0012291,0.00014316,2.4038,0.26099,59168.0965623336,0.0005113154
10954,10.1007/s11664-015-4303-6,5134,3(a),6470,x=0.7,Ca0.3Eu0.7Zn2Sb2,458.5,0.000016914,0.0012298,0.00014326,2.4022,0.26166,59122.6203145323,0.0005119474
10954,10.1007/s11664-015-4303-6,5134,3(a),6470,x=0.7,Ca0.3Eu0.7Zn2Sb2,459,0.000016927,0.0012304,0.00014335,2.4006,0.26232,59077.2139185916,0.0005125385
10954,10.1007/s11664-015-4303-6,5134,3(a),6470,x=0.7,Ca0.3Eu0.7Zn2Sb2,459.5,0.00001694,0.0012311,0.00014345,2.399,0.26299,59031.8772136954,0.0005131722
10954,10.1007/s11664-015-4303-6,5134,3(a),6470,x=0.7,Ca0.3Eu0.7Zn2Sb2,460,0.000016953,0.0012318,0.00014354,2.3974,0.26365,58986.610039521,0.0005138066
10954,10.1007/s11664-015-4303-6,5134,3(a),6470,x=0.7,Ca0.3Eu0.7Zn2Sb2,460.5,0.000016966,0.0012325,0.00014364,2.3958,0.26431,58941.4122362372,0.0005144419
10954,10.1007/s11664-015-4303-6,5134,3(a),6470,x=0.7,Ca0.3Eu0.7Zn2Sb2,461,0.000016979,0.0012332,0.00014373,2.3942,0.26498,58896.283644502,0.0005150781
10954,10.1007/s11664-015-4303-6,5134,3(a),6470,x=0.7,Ca0.3Eu0.7Zn2Sb2,461.5,0.000016991,0.0012339,0.00014383,2.3926,0.26564,58854.6877758813,0.0005157151
10954,10.1007/s11664-015-4303-6,5134,3(a),6470,x=0.7,Ca0.3Eu0.7Zn2Sb2,462,0.000017004,0.0012345,0.00014392,2.3911,0.2663,58809.6918372148,0.0005162896
10954,10.1007/s11664-015-4303-6,5134,3(a),6470,x=0.7,Ca0.3Eu0.7Zn2Sb2,462.5,0.000017017,0.0012352,0.00014402,2.3895,0.26697,58764.7646471176,0.0005169282
10954,10.1007/s11664-015-4303-6,5134,3(a),6470,x=0.7,Ca0.3Eu0.7Zn2Sb2,463,0.00001703,0.0012359,0.00014411,2.3879,0.26763,58719.9060481503,0.0005175677
10954,10.1007/s11664-015-4303-6,5134,3(a),6470,x=0.7,Ca0.3Eu0.7Zn2Sb2,463.5,0.000017043,0.0012366,0.00014421,2.3863,0.2683,58675.1158833539,0.0005182081
10954,10.1007/s11664-015-4303-6,5134,3(a),6470,x=0.7,Ca0.3Eu0.7Zn2Sb2,464,0.000017056,0.0012373,0.0001443,2.3847,0.26896,58630.3939962477,0.0005188493
10954,10.1007/s11664-015-4303-6,5134,3(a),6470,x=0.7,Ca0.3Eu0.7Zn2Sb2,464.5,0.000017068,0.001238,0.0001444,2.3831,0.26962,58589.1727208812,0.0005194914
10954,10.1007/s11664-015-4303-6,5134,3(a),6470,x=0.7,Ca0.3Eu0.7Zn2Sb2,465,0.000017081,0.0012386,0.00014449,2.3815,0.27029,58544.5816989638,0.0005200924
10954,10.1007/s11664-015-4303-6,5134,3(a),6470,x=0.7,Ca0.3Eu0.7Zn2Sb2,465.5,0.000017094,0.0012393,0.00014459,2.38,0.27095,58500.0585000585,0.0005207143
10954,10.1007/s11664-015-4303-6,5134,3(a),6470,x=0.7,Ca0.3Eu0.7Zn2Sb2,466,0.000017107,0.00124,0.00014468,2.3784,0.27161,58455.6029695446,0.0005213589
10954,10.1007/s11664-015-4303-6,5134,3(a),6470,x=0.7,Ca0.3Eu0.7Zn2Sb2,466.5,0.00001712,0.0012407,0.00014477,2.3768,0.27228,58411.214953271,0.0005220044
10954,10.1007/s11664-015-4303-6,5134,3(a),6470,x=0.7,Ca0.3Eu0.7Zn2Sb2,467,0.000017133,0.0012414,0.00014487,2.3752,0.27294,58366.8942975544,0.0005226507
10954,10.1007/s11664-015-4303-6,5134,3(a),6470,x=0.7,Ca0.3Eu0.7Zn2Sb2,467.5,0.000017145,0.001242,0.00014496,2.3736,0.27361,58326.0425780111,0.0005232558
10954,10.1007/s11664-015-4303-6,5134,3(a),6470,x=0.7,Ca0.3Eu0.7Zn2Sb2,468,0.000017158,0.0012427,0.00014506,2.372,0.27427,58281.8510315888,0.0005239039
10954,10.1007/s11664-015-4303-6,5134,3(a),6470,x=0.7,Ca0.3Eu0.7Zn2Sb2,468.5,0.000017171,0.0012434,0.00014515,2.3704,0.27493,58237.7263991614,0.0005245528
10954,10.1007/s11664-015-4303-6,5134,3(a),6470,x=0.7,Ca0.3Eu0.7Zn2Sb2,469,0.000017184,0.0012441,0.00014525,2.3688,0.2756,58193.6685288641,0.0005252026
10954,10.1007/s11664-015-4303-6,5134,3(a),6470,x=0.7,Ca0.3Eu0.7Zn2Sb2,469.5,0.000017197,0.0012448,0.00014534,2.3673,0.27626,58149.6772692911,0.0005258311
10954,10.1007/s11664-015-4303-6,5134,3(a),6470,x=0.7,Ca0.3Eu0.7Zn2Sb2,470,0.00001721,0.0012455,0.00014544,2.3657,0.27692,58105.7524694945,0.0005264826
10954,10.1007/s11664-015-4303-6,5134,3(a),6470,x=0.7,Ca0.3Eu0.7Zn2Sb2,470.5,0.000017223,0.0012461,0.00014553,2.3641,0.27759,58061.8939789816,0.0005270928
10954,10.1007/s11664-015-4303-6,5134,3(a),6470,x=0.7,Ca0.3Eu0.7Zn2Sb2,471,0.000017235,0.0012468,0.00014563,2.3625,0.27825,58021.467943139,0.000527746
10954,10.1007/s11664-015-4303-6,5134,3(a),6470,x=0.7,Ca0.3Eu0.7Zn2Sb2,471.5,0.000017248,0.0012475,0.00014572,2.3609,0.27892,57977.7365491651,0.0005284002
10954,10.1007/s11664-015-4303-6,5134,3(a),6470,x=0.7,Ca0.3Eu0.7Zn2Sb2,472,0.000017261,0.0012482,0.00014582,2.3593,0.27958,57934.0710271711,0.0005290552
10954,10.1007/s11664-015-4303-6,5134,3(a),6470,x=0.7,Ca0.3Eu0.7Zn2Sb2,472.5,0.000017274,0.0012489,0.00014591,2.3577,0.28024,57890.4712284358,0.0005297112
10954,10.1007/s11664-015-4303-6,5134,3(a),6470,x=0.7,Ca0.3Eu0.7Zn2Sb2,473,0.000017287,0.0012496,0.00014601,2.3561,0.28091,57846.9370046856,0.000530368
10954,10.1007/s11664-015-4303-6,5134,3(a),6470,x=0.7,Ca0.3Eu0.7Zn2Sb2,473.5,0.0000173,0.0012502,0.0001461,2.3546,0.28157,57803.4682080925,0.0005309607
10954,10.1007/s11664-015-4303-6,5134,3(a),6470,x=0.7,Ca0.3Eu0.7Zn2Sb2,474,0.000017312,0.0012509,0.0001462,2.353,0.28223,57763.4011090573,0.0005316192
10954,10.1007/s11664-015-4303-6,5134,3(a),6470,x=0.7,Ca0.3Eu0.7Zn2Sb2,474.5,0.000017325,0.0012516,0.00014629,2.3514,0.2829,57720.0577200577,0.0005322786
10954,10.1007/s11664-015-4303-6,5134,3(a),6470,x=0.7,Ca0.3Eu0.7Zn2Sb2,475,0.000017338,0.0012523,0.00014639,2.3498,0.28356,57676.7793286423,0.000532939
10954,10.1007/s11664-015-4303-6,5134,3(a),6470,x=0.7,Ca0.3Eu0.7Zn2Sb2,475.5,0.000017351,0.001253,0.00014648,2.3482,0.28423,57633.5657887153,0.0005336002
10954,10.1007/s11664-015-4303-6,5134,3(a),6470,x=0.7,Ca0.3Eu0.7Zn2Sb2,476,0.000017364,0.0012536,0.00014658,2.3466,0.28489,57590.4169546188,0.0005342197
10954,10.1007/s11664-015-4303-6,5134,3(a),6470,x=0.7,Ca0.3Eu0.7Zn2Sb2,476.5,0.000017377,0.0012543,0.00014667,2.345,0.28555,57547.3326811302,0.0005348827
10954,10.1007/s11664-015-4303-6,5134,3(a),6470,x=0.7,Ca0.3Eu0.7Zn2Sb2,477,0.000017389,0.001255,0.00014677,2.3434,0.28622,57507.6197596182,0.0005355466
10954,10.1007/s11664-015-4303-6,5134,3(a),6470,x=0.7,Ca0.3Eu0.7Zn2Sb2,477.5,0.000017402,0.0012557,0.00014686,2.3419,0.28688,57464.6592345707,0.0005361886
10954,10.1007/s11664-015-4303-6,5134,3(a),6470,x=0.7,Ca0.3Eu0.7Zn2Sb2,478,0.000017415,0.0012564,0.00014696,2.3403,0.28754,57421.7628481194,0.0005368542
10954,10.1007/s11664-015-4303-6,5134,3(a),6470,x=0.7,Ca0.3Eu0.7Zn2Sb2,478.5,0.000017428,0.0012571,0.00014705,2.3387,0.28821,57378.9304567363,0.0005375208
10954,10.1007/s11664-015-4303-6,5134,3(a),6470,x=0.7,Ca0.3Eu0.7Zn2Sb2,479,0.000017441,0.0012577,0.00014715,2.3371,0.28887,57336.1619173213,0.0005381456
10954,10.1007/s11664-015-4303-6,5134,3(a),6470,x=0.7,Ca0.3Eu0.7Zn2Sb2,479.5,0.000017454,0.0012584,0.00014724,2.3355,0.28954,57293.4570872006,0.000538814
10954,10.1007/s11664-015-4303-6,5134,3(a),6470,x=0.7,Ca0.3Eu0.7Zn2Sb2,480,0.000017467,0.0012591,0.00014734,2.3339,0.2902,57250.8158241255,0.0005394833
10954,10.1007/s11664-015-4303-6,5134,3(a),6470,x=0.7,Ca0.3Eu0.7Zn2Sb2,480.5,0.000017479,0.0012598,0.00014743,2.3323,0.29086,57211.5109560043,0.0005401535
10954,10.1007/s11664-015-4303-6,5134,3(a),6470,x=0.7,Ca0.3Eu0.7Zn2Sb2,481,0.000017492,0.0012605,0.00014753,2.3308,0.29153,57168.9915389892,0.0005408014
10954,10.1007/s11664-015-4303-6,5134,3(a),6470,x=0.7,Ca0.3Eu0.7Zn2Sb2,481.5,0.000017505,0.0012612,0.00014762,2.3292,0.29219,57126.5352756355,0.0005414735
10954,10.1007/s11664-015-4303-6,5134,3(a),6470,x=0.7,Ca0.3Eu0.7Zn2Sb2,482,0.000017518,0.0012618,0.00014772,2.3276,0.29285,57084.1420253454,0.0005421035
10954,10.1007/s11664-015-4303-6,5134,3(a),6470,x=0.7,Ca0.3Eu0.7Zn2Sb2,482.5,0.000017531,0.0012625,0.00014781,2.326,0.29352,57041.8116479379,0.0005427773
10954,10.1007/s11664-015-4303-6,5134,3(a),6470,x=0.7,Ca0.3Eu0.7Zn2Sb2,483,0.000017544,0.0012632,0.00014791,2.3244,0.29418,56999.544003648,0.0005434521
10954,10.1007/s11664-015-4303-6,5134,3(a),6470,x=0.7,Ca0.3Eu0.7Zn2Sb2,483.5,0.000017556,0.0012639,0.000148,2.3228,0.29485,56960.5832763728,0.0005441278
10954,10.1007/s11664-015-4303-6,5134,3(a),6470,x=0.7,Ca0.3Eu0.7Zn2Sb2,484,0.000017569,0.0012646,0.0001481,2.3212,0.29551,56918.435881382,0.0005448044
10954,10.1007/s11664-015-4303-6,5134,3(a),6470,x=0.7,Ca0.3Eu0.7Zn2Sb2,484.5,0.000017582,0.0012652,0.00014819,2.3196,0.29617,56876.3508133318,0.0005454389
10954,10.1007/s11664-015-4303-6,5134,3(a),6470,x=0.7,Ca0.3Eu0.7Zn2Sb2,485,0.000017595,0.0012659,0.00014828,2.3181,0.29684,56834.3279340722,0.0005460938
10954,10.1007/s11664-015-4303-6,5134,3(a),6470,x=0.7,Ca0.3Eu0.7Zn2Sb2,485.5,0.000017608,0.0012666,0.00014838,2.3165,0.2975,56792.367105861,0.0005467731
10954,10.1007/s11664-015-4303-6,5134,3(a),6470,x=0.7,Ca0.3Eu0.7Zn2Sb2,486,0.000017621,0.0012673,0.00014847,2.3149,0.29816,56750.4681913626,0.0005474535