sid,DOI,figureid,fignum,sampleid,samplename,composition,Temperature,Electrical resistivity,Power factor,Seebeck coefficient,Thermal conductivity,ZT,Electrical conductivity,Figure of merit Z
10954,10.1007/s11664-015-4303-6,5134,3(a),6470,x=0.7,Ca0.3Eu0.7Zn2Sb2,551.5,0.000019303,0.0013567,0.0001609,2.107,0.38512,51805.4188468114,0.0006439013
10954,10.1007/s11664-015-4303-6,5134,3(a),6470,x=0.7,Ca0.3Eu0.7Zn2Sb2,552,0.000019316,0.0013573,0.000161,2.1054,0.38578,51770.5529095051,0.0006446756
10954,10.1007/s11664-015-4303-6,5134,3(a),6470,x=0.7,Ca0.3Eu0.7Zn2Sb2,552.5,0.000019328,0.001358,0.00016109,2.1038,0.38644,51738.4105960265,0.0006454986
10954,10.1007/s11664-015-4303-6,5134,3(a),6470,x=0.7,Ca0.3Eu0.7Zn2Sb2,553,0.000019341,0.0013587,0.00016119,2.1022,0.38711,51703.634765524,0.0006463229
10954,10.1007/s11664-015-4303-6,5134,3(a),6470,x=0.7,Ca0.3Eu0.7Zn2Sb2,553.5,0.000019354,0.0013594,0.00016128,2.1006,0.38777,51668.9056525783,0.0006471484
10954,10.1007/s11664-015-4303-6,5134,3(a),6470,x=0.7,Ca0.3Eu0.7Zn2Sb2,554,0.000019367,0.0013601,0.00016138,2.099,0.38844,51634.2231631125,0.0006479752
10954,10.1007/s11664-015-4303-6,5134,3(a),6470,x=0.7,Ca0.3Eu0.7Zn2Sb2,554.5,0.00001938,0.0013608,0.00016147,2.0974,0.3891,51599.5872033024,0.0006488033
10954,10.1007/s11664-015-4303-6,5134,3(a),6470,x=0.7,Ca0.3Eu0.7Zn2Sb2,555,0.000019393,0.0013614,0.00016157,2.0959,0.38976,51564.9976795751,0.0006495539
10954,10.1007/s11664-015-4303-6,5134,3(a),6470,x=0.7,Ca0.3Eu0.7Zn2Sb2,555.5,0.000019406,0.0013621,0.00016166,2.0943,0.39043,51530.4544986087,0.0006503844
10954,10.1007/s11664-015-4303-6,5134,3(a),6470,x=0.7,Ca0.3Eu0.7Zn2Sb2,556,0.000019418,0.0013628,0.00016176,2.0927,0.39109,51498.6095375425,0.0006512161
10954,10.1007/s11664-015-4303-6,5134,3(a),6470,x=0.7,Ca0.3Eu0.7Zn2Sb2,556.5,0.000019431,0.0013635,0.00016185,2.0911,0.39175,51464.1552158921,0.0006520492
10954,10.1007/s11664-015-4303-6,5134,3(a),6470,x=0.7,Ca0.3Eu0.7Zn2Sb2,557,0.000019444,0.0013642,0.00016195,2.0895,0.39242,51429.7469656449,0.0006528835
10954,10.1007/s11664-015-4303-6,5134,3(a),6470,x=0.7,Ca0.3Eu0.7Zn2Sb2,557.5,0.000019457,0.0013649,0.00016204,2.0879,0.39308,51395.3846944544,0.000653719
10954,10.1007/s11664-015-4303-6,5134,3(a),6470,x=0.7,Ca0.3Eu0.7Zn2Sb2,558,0.00001947,0.0013655,0.00016214,2.0863,0.39375,51361.0683102208,0.000654508
10954,10.1007/s11664-015-4303-6,5134,3(a),6470,x=0.7,Ca0.3Eu0.7Zn2Sb2,558.5,0.000019483,0.0013662,0.00016223,2.0847,0.39441,51326.7977210902,0.0006553461
10954,10.1007/s11664-015-4303-6,5134,3(a),6470,x=0.7,Ca0.3Eu0.7Zn2Sb2,559,0.000019495,0.0013669,0.00016232,2.0832,0.39507,51295.2038984355,0.000656154
10954,10.1007/s11664-015-4303-6,5134,3(a),6470,x=0.7,Ca0.3Eu0.7Zn2Sb2,559.5,0.000019508,0.0013676,0.00016242,2.0816,0.39574,51261.0211195407,0.0006569946
10954,10.1007/s11664-015-4303-6,5134,3(a),6470,x=0.7,Ca0.3Eu0.7Zn2Sb2,560,0.000019521,0.0013683,0.00016251,2.08,0.3964,51226.8838686543,0.0006578365
10954,10.1007/s11664-015-4303-6,5134,3(a),6470,x=0.7,Ca0.3Eu0.7Zn2Sb2,560.5,0.000019534,0.0013689,0.00016261,2.0784,0.39706,51192.7920548787,0.0006586316
10954,10.1007/s11664-015-4303-6,5134,3(a),6470,x=0.7,Ca0.3Eu0.7Zn2Sb2,561,0.000019547,0.0013696,0.0001627,2.0768,0.39773,51158.7455875582,0.0006594761
10954,10.1007/s11664-015-4303-6,5134,3(a),6470,x=0.7,Ca0.3Eu0.7Zn2Sb2,561.5,0.00001956,0.0013703,0.0001628,2.0752,0.39839,51124.7443762781,0.0006603219
10954,10.1007/s11664-015-4303-6,5134,3(a),6470,x=0.7,Ca0.3Eu0.7Zn2Sb2,562,0.000019572,0.001371,0.00016289,2.0736,0.39906,51093.3987328837,0.000661169
10954,10.1007/s11664-015-4303-6,5134,3(a),6470,x=0.7,Ca0.3Eu0.7Zn2Sb2,562.5,0.000019585,0.0013717,0.00016299,2.0721,0.39972,51059.4842992086,0.0006619854
10954,10.1007/s11664-015-4303-6,5134,3(a),6470,x=0.7,Ca0.3Eu0.7Zn2Sb2,563,0.000019598,0.0013724,0.00016308,2.0705,0.40038,51025.614858659,0.0006628351
10954,10.1007/s11664-015-4303-6,5134,3(a),6470,x=0.7,Ca0.3Eu0.7Zn2Sb2,563.5,0.000019611,0.001373,0.00016318,2.0689,0.40105,50991.7903217582,0.0006636377
10954,10.1007/s11664-015-4303-6,5134,3(a),6470,x=0.7,Ca0.3Eu0.7Zn2Sb2,564,0.000019624,0.0013737,0.00016327,2.0673,0.40171,50958.0105992662,0.0006644899
10954,10.1007/s11664-015-4303-6,5134,3(a),6470,x=0.7,Ca0.3Eu0.7Zn2Sb2,564.5,0.000019637,0.0013744,0.00016337,2.0657,0.40237,50924.2756021796,0.0006653435
10954,10.1007/s11664-015-4303-6,5134,3(a),6470,x=0.7,Ca0.3Eu0.7Zn2Sb2,565,0.00001965,0.0013751,0.00016346,2.0641,0.40304,50890.5852417303,0.0006661983
10954,10.1007/s11664-015-4303-6,5134,3(a),6470,x=0.7,Ca0.3Eu0.7Zn2Sb2,565.5,0.000019662,0.0013758,0.00016356,2.0625,0.4037,50859.5259892178,0.0006670545
10954,10.1007/s11664-015-4303-6,5134,3(a),6470,x=0.7,Ca0.3Eu0.7Zn2Sb2,566,0.000019675,0.0013765,0.00016365,2.0609,0.40437,50825.9212198221,0.0006679121
10954,10.1007/s11664-015-4303-6,5134,3(a),6470,x=0.7,Ca0.3Eu0.7Zn2Sb2,566.5,0.000019688,0.0013771,0.00016375,2.0594,0.40503,50792.3608289313,0.0006686899
10954,10.1007/s11664-015-4303-6,5134,3(a),6470,x=0.7,Ca0.3Eu0.7Zn2Sb2,567,0.000019701,0.0013778,0.00016384,2.0578,0.40569,50758.844728694,0.00066955
10954,10.1007/s11664-015-4303-6,5134,3(a),6470,x=0.7,Ca0.3Eu0.7Zn2Sb2,567.5,0.000019714,0.0013785,0.00016394,2.0562,0.40636,50725.3728314903,0.0006704114
10954,10.1007/s11664-015-4303-6,5134,3(a),6470,x=0.7,Ca0.3Eu0.7Zn2Sb2,568,0.000019727,0.0013792,0.00016403,2.0546,0.40702,50691.9450499316,0.0006712742
10954,10.1007/s11664-015-4303-6,5134,3(a),6470,x=0.7,Ca0.3Eu0.7Zn2Sb2,568.5,0.000019739,0.0013799,0.00016413,2.053,0.40768,50661.127716703,0.0006721383
10954,10.1007/s11664-015-4303-6,5134,3(a),6470,x=0.7,Ca0.3Eu0.7Zn2Sb2,569,0.000019752,0.0013805,0.00016422,2.0514,0.40835,50627.7845281491,0.0006729551
10954,10.1007/s11664-015-4303-6,5134,3(a),6470,x=0.7,Ca0.3Eu0.7Zn2Sb2,569.5,0.000019765,0.0013812,0.00016432,2.0498,0.40901,50594.4852011131,0.0006738218
10954,10.1007/s11664-015-4303-6,5134,3(a),6470,x=0.7,Ca0.3Eu0.7Zn2Sb2,570,0.000019778,0.0013819,0.00016441,2.0482,0.40968,50561.2296491051,0.00067469
10954,10.1007/s11664-015-4303-6,5134,3(a),6470,x=0.7,Ca0.3Eu0.7Zn2Sb2,570.5,0.000019791,0.0013826,0.00016451,2.0467,0.41034,50528.0177858623,0.0006755265
10954,10.1007/s11664-015-4303-6,5134,3(a),6470,x=0.7,Ca0.3Eu0.7Zn2Sb2,571,0.000019804,0.0013833,0.0001646,2.0451,0.411,50494.8495253484,0.0006763972
10954,10.1007/s11664-015-4303-6,5134,3(a),6470,x=0.7,Ca0.3Eu0.7Zn2Sb2,571.5,0.000019816,0.001384,0.0001647,2.0435,0.41167,50464.2712959225,0.0006772694
10954,10.1007/s11664-015-4303-6,5134,3(a),6470,x=0.7,Ca0.3Eu0.7Zn2Sb2,572,0.000019829,0.0013846,0.00016479,2.0419,0.41233,50431.1866458218,0.0006780939
10954,10.1007/s11664-015-4303-6,5134,3(a),6470,x=0.7,Ca0.3Eu0.7Zn2Sb2,572.5,0.000019842,0.0013853,0.00016489,2.0403,0.41299,50398.1453482512,0.0006789688
10954,10.1007/s11664-015-4303-6,5134,3(a),6470,x=0.7,Ca0.3Eu0.7Zn2Sb2,573,0.000019855,0.001386,0.00016498,2.0387,0.41366,50365.1473180559,0.000679845
10954,10.1007/s11664-015-4303-6,5134,3(a),6470,x=0.7,Ca0.3Eu0.7Zn2Sb2,573.5,0.000019868,0.0013867,0.00016508,2.0371,0.41432,50332.192470304,0.0006807226
10954,10.1007/s11664-015-4303-6,5134,3(a),6470,x=0.7,Ca0.3Eu0.7Zn2Sb2,574,0.000019881,0.0013874,0.00016517,2.0355,0.41499,50299.2807202857,0.0006816016
10954,10.1007/s11664-015-4303-6,5134,3(a),6470,x=0.7,Ca0.3Eu0.7Zn2Sb2,574.5,0.000019894,0.0013881,0.00016527,2.034,0.41565,50266.4119835126,0.0006824484
10954,10.1007/s11664-015-4303-6,5134,3(a),6470,x=0.7,Ca0.3Eu0.7Zn2Sb2,575,0.000019906,0.0013887,0.00016536,2.0324,0.41631,50236.1097156636,0.0006832809
10954,10.1007/s11664-015-4303-6,5134,3(a),6470,x=0.7,Ca0.3Eu0.7Zn2Sb2,575.5,0.000019919,0.0013894,0.00016546,2.0308,0.41698,50203.3234600131,0.0006841639
10954,10.1007/s11664-015-4303-6,5134,3(a),6470,x=0.7,Ca0.3Eu0.7Zn2Sb2,576,0.000019932,0.0013901,0.00016555,2.0292,0.41764,50170.5799719045,0.0006850483
10954,10.1007/s11664-015-4303-6,5134,3(a),6470,x=0.7,Ca0.3Eu0.7Zn2Sb2,576.5,0.000019945,0.0013908,0.00016565,2.0276,0.4183,50137.8791677112,0.0006859341
10954,10.1007/s11664-015-4303-6,5134,3(a),6470,x=0.7,Ca0.3Eu0.7Zn2Sb2,577,0.000019958,0.0013915,0.00016574,2.026,0.41897,50105.2209640244,0.0006868213
10954,10.1007/s11664-015-4303-6,5134,3(a),6470,x=0.7,Ca0.3Eu0.7Zn2Sb2,577.5,0.000019971,0.0013921,0.00016583,2.0244,0.41963,50072.6052776526,0.0006876605
10954,10.1007/s11664-015-4303-6,5134,3(a),6470,x=0.7,Ca0.3Eu0.7Zn2Sb2,578,0.000019983,0.0013928,0.00016593,2.0229,0.4203,50042.5361557324,0.0006885165
10954,10.1007/s11664-015-4303-6,5134,3(a),6470,x=0.7,Ca0.3Eu0.7Zn2Sb2,578.5,0.000019996,0.0013935,0.00016602,2.0213,0.42096,50010.0020004001,0.0006894078
10954,10.1007/s11664-015-4303-6,5134,3(a),6470,x=0.7,Ca0.3Eu0.7Zn2Sb2,579,0.000020009,0.0013942,0.00016612,2.0197,0.42162,49977.5101204458,0.0006903005
10954,10.1007/s11664-015-4303-6,5134,3(a),6470,x=0.7,Ca0.3Eu0.7Zn2Sb2,579.5,0.000020022,0.0013949,0.00016621,2.0181,0.42229,49945.0604335231,0.0006911947
10954,10.1007/s11664-015-4303-6,5134,3(a),6470,x=0.7,Ca0.3Eu0.7Zn2Sb2,580,0.000020035,0.0013956,0.00016631,2.0165,0.42295,49912.6528574994,0.0006920903
10954,10.1007/s11664-015-4303-6,5134,3(a),6470,x=0.7,Ca0.3Eu0.7Zn2Sb2,580.5,0.000020048,0.0013962,0.0001664,2.0149,0.42361,49880.2873104549,0.0006929376
10954,10.1007/s11664-015-4303-6,5134,3(a),6470,x=0.7,Ca0.3Eu0.7Zn2Sb2,581,0.00002006,0.0013969,0.0001665,2.0133,0.42428,49850.4486540379,0.000693836
10954,10.1007/s11664-015-4303-6,5134,3(a),6470,x=0.7,Ca0.3Eu0.7Zn2Sb2,581.5,0.000020073,0.0013976,0.00016659,2.0117,0.42494,49818.1637024859,0.0006947358
10954,10.1007/s11664-015-4303-6,5134,3(a),6470,x=0.7,Ca0.3Eu0.7Zn2Sb2,582,0.000020086,0.0013983,0.00016669,2.0102,0.42561,49785.9205416708,0.0006956024
10954,10.1007/s11664-015-4303-6,5134,3(a),6470,x=0.7,Ca0.3Eu0.7Zn2Sb2,582.5,0.000020099,0.001399,0.00016678,2.0086,0.42627,49753.719090502,0.000696505
10954,10.1007/s11664-015-4303-6,5134,3(a),6470,x=0.7,Ca0.3Eu0.7Zn2Sb2,583,0.000020112,0.0013996,0.00016688,2.007,0.42693,49721.5592680986,0.0006973592
10954,10.1007/s11664-015-4303-6,5134,3(a),6470,x=0.7,Ca0.3Eu0.7Zn2Sb2,583.5,0.000020125,0.0014003,0.00016697,2.0054,0.4276,49689.4409937888,0.0006982647
10954,10.1007/s11664-015-4303-6,5134,3(a),6470,x=0.7,Ca0.3Eu0.7Zn2Sb2,584,0.000020137,0.001401,0.00016707,2.0038,0.42826,49659.8301633808,0.0006991716
10954,10.1007/s11664-015-4303-6,5134,3(a),6470,x=0.7,Ca0.3Eu0.7Zn2Sb2,584.5,0.00002015,0.0014017,0.00016716,2.0022,0.42892,49627.7915632754,0.0007000799
10954,10.1007/s11664-015-4303-6,5134,3(a),6470,x=0.7,Ca0.3Eu0.7Zn2Sb2,585,0.000020163,0.0014024,0.00016726,2.0006,0.42959,49595.7942766453,0.0007009897
10954,10.1007/s11664-015-4303-6,5134,3(a),6470,x=0.7,Ca0.3Eu0.7Zn2Sb2,585.5,0.000020176,0.0014031,0.00016735,1.999,0.43025,49563.838223632,0.000701901
10954,10.1007/s11664-015-4303-6,5134,3(a),6470,x=0.7,Ca0.3Eu0.7Zn2Sb2,586,0.000020189,0.0014037,0.00016745,1.9975,0.43092,49531.9233245827,0.0007027284
10954,10.1007/s11664-015-4303-6,5134,3(a),6470,x=0.7,Ca0.3Eu0.7Zn2Sb2,586.5,0.000020202,0.0014044,0.00016754,1.9959,0.43158,49500.0495000495,0.0007036425
10954,10.1007/s11664-015-4303-6,5134,3(a),6470,x=0.7,Ca0.3Eu0.7Zn2Sb2,587,0.000020215,0.0014051,0.00016764,1.9943,0.43224,49468.216670789,0.000704558
10954,10.1007/s11664-015-4303-6,5134,3(a),6470,x=0.7,Ca0.3Eu0.7Zn2Sb2,587.5,0.000020227,0.0014058,0.00016773,1.9927,0.43291,49438.868838681,0.000705475
10954,10.1007/s11664-015-4303-6,5134,3(a),6470,x=0.7,Ca0.3Eu0.7Zn2Sb2,588,0.00002024,0.0014065,0.00016783,1.9911,0.43357,49407.1146245059,0.0007063935
10954,10.1007/s11664-015-4303-6,5134,3(a),6470,x=0.7,Ca0.3Eu0.7Zn2Sb2,588.5,0.000020253,0.0014072,0.00016792,1.9895,0.43423,49375.4011751345,0.0007073134
10954,10.1007/s11664-015-4303-6,5134,3(a),6470,x=0.7,Ca0.3Eu0.7Zn2Sb2,589,0.000020266,0.0014078,0.00016802,1.9879,0.4349,49343.7284121188,0.0007081845
10954,10.1007/s11664-015-4303-6,5134,3(a),6470,x=0.7,Ca0.3Eu0.7Zn2Sb2,589.5,0.000020279,0.0014085,0.00016811,1.9863,0.43556,49312.0962572119,0.0007091074
10954,10.1007/s11664-015-4303-6,5134,3(a),6470,x=0.7,Ca0.3Eu0.7Zn2Sb2,590,0.000020292,0.0014092,0.00016821,1.9848,0.43623,49280.5046323674,0.000709996
10954,10.1007/s11664-015-4303-6,5134,3(a),6470,x=0.7,Ca0.3Eu0.7Zn2Sb2,590.5,0.000020304,0.0014099,0.0001683,1.9832,0.43689,49251.3790386131,0.0007109217
10954,10.1007/s11664-015-4303-6,5134,3(a),6470,x=0.7,Ca0.3Eu0.7Zn2Sb2,591,0.000020317,0.0014106,0.0001684,1.9816,0.43755,49219.8651375695,0.000711849
10954,10.1007/s11664-015-4303-6,5134,3(a),6470,x=0.7,Ca0.3Eu0.7Zn2Sb2,591.5,0.00002033,0.0014112,0.00016849,1.98,0.43822,49188.3915395967,0.0007127273
10954,10.1007/s11664-015-4303-6,5134,3(a),6470,x=0.7,Ca0.3Eu0.7Zn2Sb2,592,0.000020343,0.0014119,0.00016859,1.9784,0.43888,49156.9581674286,0.0007136575
10954,10.1007/s11664-015-4303-6,5134,3(a),6470,x=0.7,Ca0.3Eu0.7Zn2Sb2,592.5,0.000020356,0.0014126,0.00016868,1.9768,0.43954,49125.5649439969,0.0007145892
10954,10.1007/s11664-015-4303-6,5134,3(a),6470,x=0.7,Ca0.3Eu0.7Zn2Sb2,593,0.000020369,0.0014133,0.00016878,1.9752,0.44021,49094.2117924297,0.0007155225
10954,10.1007/s11664-015-4303-6,5134,3(a),6470,x=0.7,Ca0.3Eu0.7Zn2Sb2,593.5,0.000020381,0.001414,0.00016887,1.9737,0.44087,49065.3059221824,0.0007164209
10954,10.1007/s11664-015-4303-6,5134,3(a),6470,x=0.7,Ca0.3Eu0.7Zn2Sb2,594,0.000020394,0.0014147,0.00016897,1.9721,0.44154,49034.0296165539,0.0007173571
10954,10.1007/s11664-015-4303-6,5134,3(a),6470,x=0.7,Ca0.3Eu0.7Zn2Sb2,594.5,0.000020407,0.0014153,0.00016906,1.9705,0.4422,49002.7931592101,0.0007182441
10954,10.1007/s11664-015-4303-6,5134,3(a),6470,x=0.7,Ca0.3Eu0.7Zn2Sb2,595,0.00002042,0.001416,0.00016916,1.9689,0.44286,48971.5964740451,0.0007191833
10954,10.1007/s11664-015-4303-6,5134,3(a),6470,x=0.7,Ca0.3Eu0.7Zn2Sb2,595.5,0.000020433,0.0014167,0.00016925,1.9673,0.44353,48940.4394851466,0.000720124
10954,10.1007/s11664-015-4303-6,5134,3(a),6470,x=0.7,Ca0.3Eu0.7Zn2Sb2,596,0.000020446,0.0014174,0.00016934,1.9657,0.44419,48909.3221167955,0.0007210663
10954,10.1007/s11664-015-4303-6,5134,3(a),6470,x=0.7,Ca0.3Eu0.7Zn2Sb2,596.5,0.000020459,0.0014181,0.00016944,1.9641,0.44485,48878.244293465,0.0007220101
10954,10.1007/s11664-015-4303-6,5134,3(a),6470,x=0.7,Ca0.3Eu0.7Zn2Sb2,597,0.000020471,0.0014188,0.00016953,1.9625,0.44552,48849.5921059059,0.0007229554
10954,10.1007/s11664-015-4303-6,5134,3(a),6470,x=0.7,Ca0.3Eu0.7Zn2Sb2,597.5,0.000020484,0.0014194,0.00016963,1.961,0.44618,48818.5901191174,0.0007238144
10954,10.1007/s11664-015-4303-6,5134,3(a),6470,x=0.7,Ca0.3Eu0.7Zn2Sb2,598,0.000020497,0.0014201,0.00016972,1.9594,0.44685,48787.6274576767,0.0007247627
10954,10.1007/s11664-015-4303-6,5134,3(a),6470,x=0.7,Ca0.3Eu0.7Zn2Sb2,598.5,0.00002051,0.0014208,0.00016982,1.9578,0.44751,48756.7040468064,0.0007257125
10954,10.1007/s11664-015-4303-6,5134,3(a),6470,x=0.7,Ca0.3Eu0.7Zn2Sb2,599,0.000020523,0.0014215,0.00016991,1.9562,0.44817,48725.8198119183,0.0007266639
10954,10.1007/s11664-015-4303-6,5134,3(a),6470,x=0.7,Ca0.3Eu0.7Zn2Sb2,599.5,0.000020536,0.0014222,0.00017001,1.9546,0.44884,48694.9746786132,0.0007276169
10954,10.1007/s11664-015-4303-6,5134,3(a),6470,x=0.7,Ca0.3Eu0.7Zn2Sb2,600,0.000020548,0.0014228,0.0001701,1.953,0.4495,48666.536889235,0.0007285202
10954,10.1007/s11664-015-4303-6,5134,3(a),6470,x=0.7,Ca0.3Eu0.7Zn2Sb2,600.5,0.000020561,0.0014235,0.0001702,1.9514,0.45016,48635.7667428627,0.0007294763
10954,10.1007/s11664-015-4303-6,5134,3(a),6470,x=0.7,Ca0.3Eu0.7Zn2Sb2,601,0.000020574,0.0014242,0.00017029,1.9498,0.45083,48605.0354816759,0.0007304339
10954,10.1007/s11664-015-4303-6,5134,3(a),6470,x=0.7,Ca0.3Eu0.7Zn2Sb2,601.5,0.000020587,0.0014249,0.00017039,1.9483,0.45149,48574.3430320105,0.0007313555
10954,10.1007/s11664-015-4303-6,5134,3(a),6470,x=0.7,Ca0.3Eu0.7Zn2Sb2,602,0.0000206,0.0014256,0.00017048,1.9467,0.45216,48543.6893203884,0.0007323162
10954,10.1007/s11664-015-4303-6,5134,3(a),6470,x=0.7,Ca0.3Eu0.7Zn2Sb2,602.5,0.000020613,0.0014263,0.00017058,1.9451,0.45282,48513.0742735167,0.0007332785
10954,10.1007/s11664-015-4303-6,5134,3(a),6470,x=0.7,Ca0.3Eu0.7Zn2Sb2,603,0.000020625,0.0014269,0.00017067,1.9435,0.45348,48484.8484848485,0.0007341909
10954,10.1007/s11664-015-4303-6,5134,3(a),6470,x=0.7,Ca0.3Eu0.7Zn2Sb2,603.5,0.000020638,0.0014276,0.00017077,1.9419,0.45415,48454.3075879446,0.0007351563
10954,10.1007/s11664-015-4303-6,5134,3(a),6470,x=0.7,Ca0.3Eu0.7Zn2Sb2,604,0.000020651,0.0014283,0.00017086,1.9403,0.45481,48423.8051426081,0.0007361233
10954,10.1007/s11664-015-4303-6,5134,3(a),6470,x=0.7,Ca0.3Eu0.7Zn2Sb2,604.5,0.000020664,0.001429,0.00017096,1.9387,0.45548,48393.3410762679,0.0007370919
10954,10.1007/s11664-015-4303-6,5134,3(a),6470,x=0.7,Ca0.3Eu0.7Zn2Sb2,605,0.000020677,0.0014297,0.00017105,1.9371,0.45614,48362.9153165353,0.0007380621
10954,10.1007/s11664-015-4303-6,5134,3(a),6470,x=0.7,Ca0.3Eu0.7Zn2Sb2,605.5,0.00002069,0.0014304,0.00017115,1.9356,0.4568,48332.5277912035,0.0007389957
10954,10.1007/s11664-015-4303-6,5134,3(a),6470,x=0.7,Ca0.3Eu0.7Zn2Sb2,606,0.000020702,0.001431,0.00017124,1.934,0.45747,48304.5116413873,0.0007399173
10954,10.1007/s11664-015-4303-6,5134,3(a),6470,x=0.7,Ca0.3Eu0.7Zn2Sb2,606.5,0.000020715,0.0014317,0.00017134,1.9324,0.45813,48274.1974414675,0.0007408922
10954,10.1007/s11664-015-4303-6,5134,3(a),6470,x=0.7,Ca0.3Eu0.7Zn2Sb2,607,0.000020728,0.0014324,0.00017143,1.9308,0.45879,48243.9212659205,0.0007418687
10954,10.1007/s11664-015-4303-6,5134,3(a),6470,x=0.7,Ca0.3Eu0.7Zn2Sb2,607.5,0.000020741,0.0014331,0.00017153,1.9292,0.45946,48213.6830432477,0.0007428468
10954,10.1007/s11664-015-4303-6,5134,3(a),6470,x=0.7,Ca0.3Eu0.7Zn2Sb2,608,0.000020754,0.0014338,0.00017162,1.9276,0.46012,48183.4827021297,0.0007438265
10954,10.1007/s11664-015-4303-6,5134,3(a),6470,x=0.7,Ca0.3Eu0.7Zn2Sb2,608.5,0.000020767,0.0014344,0.00017172,1.926,0.46079,48153.3201714258,0.000744756
10954,10.1007/s11664-015-4303-6,5134,3(a),6470,x=0.7,Ca0.3Eu0.7Zn2Sb2,609,0.00002078,0.0014351,0.00017181,1.9245,0.46145,48123.1953801732,0.0007457002
10954,10.1007/s11664-015-4303-6,5134,3(a),6470,x=0.7,Ca0.3Eu0.7Zn2Sb2,609.5,0.000020792,0.0014358,0.00017191,1.9229,0.46211,48095.4213158907,0.0007466847
10954,10.1007/s11664-015-4303-6,5134,3(a),6470,x=0.7,Ca0.3Eu0.7Zn2Sb2,610,0.000020805,0.0014365,0.000172,1.9213,0.46278,48065.3689017063,0.0007476708
10954,10.1007/s11664-015-4303-6,5134,3(a),6470,x=0.7,Ca0.3Eu0.7Zn2Sb2,610.5,0.000020818,0.0014372,0.0001721,1.9197,0.46344,48035.3540205591,0.0007486586
10954,10.1007/s11664-015-4303-6,5134,3(a),6470,x=0.7,Ca0.3Eu0.7Zn2Sb2,611,0.000020831,0.0014379,0.00017219,1.9181,0.4641,48005.3766021794,0.0007496481
10954,10.1007/s11664-015-4303-6,5134,3(a),6470,x=0.7,Ca0.3Eu0.7Zn2Sb2,611.5,0.000020844,0.0014385,0.00017229,1.9165,0.46477,47975.4365764728,0.000750587
10954,10.1007/s11664-015-4303-6,5134,3(a),6470,x=0.7,Ca0.3Eu0.7Zn2Sb2,612,0.000020857,0.0014392,0.00017238,1.9149,0.46543,47945.5338735197,0.0007515797
10954,10.1007/s11664-015-4303-6,5134,3(a),6470,x=0.7,Ca0.3Eu0.7Zn2Sb2,612.5,0.000020869,0.0014399,0.00017248,1.9133,0.4661,47917.9644448704,0.0007525741
10954,10.1007/s11664-015-4303-6,5134,3(a),6470,x=0.7,Ca0.3Eu0.7Zn2Sb2,613,0.000020882,0.0014406,0.00017257,1.9118,0.46676,47888.1333205632,0.0007535307
10954,10.1007/s11664-015-4303-6,5134,3(a),6470,x=0.7,Ca0.3Eu0.7Zn2Sb2,613.5,0.000020895,0.0014413,0.00017267,1.9102,0.46742,47858.3393156258,0.0007545283
10954,10.1007/s11664-015-4303-6,5134,3(a),6470,x=0.7,Ca0.3Eu0.7Zn2Sb2,614,0.000020908,0.0014419,0.00017276,1.9086,0.46809,47828.5823608188,0.0007554752
10954,10.1007/s11664-015-4303-6,5134,3(a),6470,x=0.7,Ca0.3Eu0.7Zn2Sb2,614.5,0.000020921,0.0014426,0.00017285,1.907,0.46875,47798.8623870752,0.0007564761
10954,10.1007/s11664-015-4303-6,5134,3(a),6470,x=0.7,Ca0.3Eu0.7Zn2Sb2,615,0.000020934,0.0014433,0.00017295,1.9054,0.46941,47769.1793254992,0.0007574787
10954,10.1007/s11664-015-4303-6,5134,3(a),6470,x=0.7,Ca0.3Eu0.7Zn2Sb2,615.5,0.000020946,0.001444,0.00017304,1.9038,0.47008,47741.8122791941,0.000758483
10954,10.1007/s11664-015-4303-6,5134,3(a),6470,x=0.7,Ca0.3Eu0.7Zn2Sb2,616,0.000020959,0.0014447,0.00017314,1.9022,0.47074,47712.2000095424,0.000759489