sid,DOI,figureid,fignum,sampleid,samplename,composition,Temperature,Electrical resistivity,Power factor,Seebeck coefficient,Thermal conductivity,ZT,Electrical conductivity,Figure of merit Z
73,10.1016/j.actamat.2015.04.023,4591,3(a),5858,x=0.006,Mg2.994Na0.006Sb2,511.5,0.000077748,0.00040658,0.00016742,1.1566,0.24816,12862.067191439,0.0003515303
73,10.1016/j.actamat.2015.04.023,4591,3(a),5858,x=0.006,Mg2.994Na0.006Sb2,512,0.000077762,0.00040699,0.00016754,1.1557,0.2487,12859.7515496001,0.0003521589
73,10.1016/j.actamat.2015.04.023,4591,3(a),5858,x=0.006,Mg2.994Na0.006Sb2,512.5,0.000077777,0.0004074,0.00016766,1.1549,0.24923,12857.2714298572,0.0003527578
73,10.1016/j.actamat.2015.04.023,4591,3(a),5858,x=0.006,Mg2.994Na0.006Sb2,513,0.000077791,0.00040781,0.00016778,1.154,0.24977,12854.9575143654,0.0003533882
73,10.1016/j.actamat.2015.04.023,4591,3(a),5858,x=0.006,Mg2.994Na0.006Sb2,513.5,0.000077805,0.00040822,0.0001679,1.1532,0.2503,12852.6444315918,0.0003539889
73,10.1016/j.actamat.2015.04.023,4591,3(a),5858,x=0.006,Mg2.994Na0.006Sb2,514,0.00007782,0.00040863,0.00016802,1.1523,0.25084,12850.1670521717,0.0003546212
73,10.1016/j.actamat.2015.04.023,4591,3(a),5858,x=0.006,Mg2.994Na0.006Sb2,514.5,0.000077834,0.00040904,0.00016814,1.1515,0.25138,12847.8556928849,0.0003552236
73,10.1016/j.actamat.2015.04.023,4591,3(a),5858,x=0.006,Mg2.994Na0.006Sb2,515,0.000077848,0.00040945,0.00016826,1.1506,0.25191,12845.5451649368,0.0003558578
73,10.1016/j.actamat.2015.04.023,4591,3(a),5858,x=0.006,Mg2.994Na0.006Sb2,515.5,0.000077863,0.00040986,0.00016838,1.1498,0.25245,12843.0705213002,0.000356462
73,10.1016/j.actamat.2015.04.023,4591,3(a),5858,x=0.006,Mg2.994Na0.006Sb2,516,0.000077877,0.00041027,0.0001685,1.1489,0.25299,12840.7617139849,0.0003570981
73,10.1016/j.actamat.2015.04.023,4591,3(a),5858,x=0.006,Mg2.994Na0.006Sb2,516.5,0.000077891,0.00041068,0.00016862,1.1481,0.25352,12838.453736632,0.000357704
73,10.1016/j.actamat.2015.04.023,4591,3(a),5858,x=0.006,Mg2.994Na0.006Sb2,517,0.000077906,0.00041109,0.00016875,1.1472,0.25406,12835.9818242497,0.0003583421
73,10.1016/j.actamat.2015.04.023,4591,3(a),5858,x=0.006,Mg2.994Na0.006Sb2,517.5,0.00007792,0.0004115,0.00016887,1.1464,0.2546,12833.6755646817,0.0003589498
73,10.1016/j.actamat.2015.04.023,4591,3(a),5858,x=0.006,Mg2.994Na0.006Sb2,518,0.000077934,0.00041192,0.00016899,1.1455,0.25513,12831.3701337029,0.0003595984
73,10.1016/j.actamat.2015.04.023,4591,3(a),5858,x=0.006,Mg2.994Na0.006Sb2,518.5,0.000077948,0.00041233,0.00016911,1.1447,0.25567,12829.0655308667,0.0003602079
73,10.1016/j.actamat.2015.04.023,4591,3(a),5858,x=0.006,Mg2.994Na0.006Sb2,519,0.000077963,0.00041274,0.00016923,1.1439,0.25621,12826.5972320203,0.0003608183
73,10.1016/j.actamat.2015.04.023,4591,3(a),5858,x=0.006,Mg2.994Na0.006Sb2,519.5,0.000077977,0.00041315,0.00016935,1.143,0.25674,12824.2943432038,0.0003614611
73,10.1016/j.actamat.2015.04.023,4591,3(a),5858,x=0.006,Mg2.994Na0.006Sb2,520,0.000077991,0.00041356,0.00016947,1.1422,0.25728,12821.9922811606,0.0003620732
73,10.1016/j.actamat.2015.04.023,4591,3(a),5858,x=0.006,Mg2.994Na0.006Sb2,520.5,0.000078006,0.00041397,0.00016959,1.1413,0.25782,12819.5267030741,0.000362718
73,10.1016/j.actamat.2015.04.023,4591,3(a),5858,x=0.006,Mg2.994Na0.006Sb2,521,0.00007802,0.00041438,0.00016971,1.1405,0.25835,12817.2263522174,0.0003633319
73,10.1016/j.actamat.2015.04.023,4591,3(a),5858,x=0.006,Mg2.994Na0.006Sb2,521.5,0.000078034,0.00041479,0.00016983,1.1396,0.25889,12814.9268267678,0.0003639786
73,10.1016/j.actamat.2015.04.023,4591,3(a),5858,x=0.006,Mg2.994Na0.006Sb2,522,0.000078049,0.0004152,0.00016996,1.1388,0.25943,12812.4639649451,0.0003645943
73,10.1016/j.actamat.2015.04.023,4591,3(a),5858,x=0.006,Mg2.994Na0.006Sb2,522.5,0.000078063,0.00041561,0.00017008,1.1379,0.25996,12810.1661478549,0.000365243
73,10.1016/j.actamat.2015.04.023,4591,3(a),5858,x=0.006,Mg2.994Na0.006Sb2,523,0.000078077,0.00041602,0.0001702,1.1371,0.2605,12807.8691548087,0.0003658605
73,10.1016/j.actamat.2015.04.023,4591,3(a),5858,x=0.006,Mg2.994Na0.006Sb2,523.5,0.000078091,0.00041643,0.00017032,1.1362,0.26104,12805.5729853632,0.0003665112
73,10.1016/j.actamat.2015.04.023,4591,3(a),5858,x=0.006,Mg2.994Na0.006Sb2,524,0.000078106,0.00041684,0.00017044,1.1354,0.26157,12803.113717256,0.0003671305
73,10.1016/j.actamat.2015.04.023,4591,3(a),5858,x=0.006,Mg2.994Na0.006Sb2,524.5,0.00007812,0.00041725,0.00017056,1.1345,0.26211,12800.8192524322,0.0003677832
73,10.1016/j.actamat.2015.04.023,4591,3(a),5858,x=0.006,Mg2.994Na0.006Sb2,525,0.000078134,0.00041767,0.00017068,1.1337,0.26265,12798.5256098497,0.0003684132
73,10.1016/j.actamat.2015.04.023,4591,3(a),5858,x=0.006,Mg2.994Na0.006Sb2,525.5,0.000078149,0.00041808,0.0001708,1.1328,0.26318,12796.0690475886,0.0003690678
73,10.1016/j.actamat.2015.04.023,4591,3(a),5858,x=0.006,Mg2.994Na0.006Sb2,526,0.000078163,0.00041849,0.00017092,1.132,0.26372,12793.7771068152,0.0003696908
73,10.1016/j.actamat.2015.04.023,4591,3(a),5858,x=0.006,Mg2.994Na0.006Sb2,526.5,0.000078177,0.0004189,0.00017104,1.1312,0.26425,12791.4859869271,0.0003703147
73,10.1016/j.actamat.2015.04.023,4591,3(a),5858,x=0.006,Mg2.994Na0.006Sb2,527,0.000078192,0.00041931,0.00017116,1.1303,0.26479,12789.0321260487,0.0003709723
73,10.1016/j.actamat.2015.04.023,4591,3(a),5858,x=0.006,Mg2.994Na0.006Sb2,527.5,0.000078206,0.00041972,0.00017129,1.1295,0.26533,12786.7427051633,0.0003715981
73,10.1016/j.actamat.2015.04.023,4591,3(a),5858,x=0.006,Mg2.994Na0.006Sb2,528,0.00007822,0.00042013,0.00017141,1.1286,0.26586,12784.4541038098,0.0003722577
73,10.1016/j.actamat.2015.04.023,4591,3(a),5858,x=0.006,Mg2.994Na0.006Sb2,528.5,0.000078235,0.00042054,0.00017153,1.1278,0.2664,12782.0029398607,0.0003728853
73,10.1016/j.actamat.2015.04.023,4591,3(a),5858,x=0.006,Mg2.994Na0.006Sb2,529,0.000078249,0.00042095,0.00017165,1.1269,0.26694,12779.7160347097,0.0003735469
73,10.1016/j.actamat.2015.04.023,4591,3(a),5858,x=0.006,Mg2.994Na0.006Sb2,529.5,0.000078263,0.00042136,0.00017177,1.1261,0.26747,12777.4299477403,0.0003741764
73,10.1016/j.actamat.2015.04.023,4591,3(a),5858,x=0.006,Mg2.994Na0.006Sb2,530,0.000078277,0.00042177,0.00017189,1.1252,0.26801,12775.1446785135,0.00037484
73,10.1016/j.actamat.2015.04.023,4591,3(a),5858,x=0.006,Mg2.994Na0.006Sb2,530.5,0.000078292,0.00042218,0.00017201,1.1244,0.26855,12772.697082716,0.0003754714
73,10.1016/j.actamat.2015.04.023,4591,3(a),5858,x=0.006,Mg2.994Na0.006Sb2,531,0.000078306,0.00042259,0.00017213,1.1235,0.26908,12770.4135059893,0.0003761371
73,10.1016/j.actamat.2015.04.023,4591,3(a),5858,x=0.006,Mg2.994Na0.006Sb2,531.5,0.00007832,0.00042301,0.00017225,1.1227,0.26962,12768.1307456588,0.0003767792
73,10.1016/j.actamat.2015.04.023,4591,3(a),5858,x=0.006,Mg2.994Na0.006Sb2,532,0.000078335,0.00042342,0.00017237,1.1218,0.27016,12765.6858364716,0.000377447
73,10.1016/j.actamat.2015.04.023,4591,3(a),5858,x=0.006,Mg2.994Na0.006Sb2,532.5,0.000078349,0.00042383,0.00017249,1.121,0.27069,12763.4047658553,0.0003780821
73,10.1016/j.actamat.2015.04.023,4591,3(a),5858,x=0.006,Mg2.994Na0.006Sb2,533,0.000078363,0.00042424,0.00017262,1.1202,0.27123,12761.1245102918,0.0003787181
73,10.1016/j.actamat.2015.04.023,4591,3(a),5858,x=0.006,Mg2.994Na0.006Sb2,533.5,0.000078378,0.00042465,0.00017274,1.1193,0.27177,12758.6822832938,0.0003793889
73,10.1016/j.actamat.2015.04.023,4591,3(a),5858,x=0.006,Mg2.994Na0.006Sb2,534,0.000078392,0.00042506,0.00017286,1.1185,0.2723,12756.4037146648,0.0003800268
73,10.1016/j.actamat.2015.04.023,4591,3(a),5858,x=0.006,Mg2.994Na0.006Sb2,534.5,0.000078406,0.00042547,0.00017298,1.1176,0.27284,12754.125959748,0.0003806997
73,10.1016/j.actamat.2015.04.023,4591,3(a),5858,x=0.006,Mg2.994Na0.006Sb2,535,0.00007842,0.00042588,0.0001731,1.1168,0.27338,12751.8490181076,0.0003813395
73,10.1016/j.actamat.2015.04.023,4591,3(a),5858,x=0.006,Mg2.994Na0.006Sb2,535.5,0.000078435,0.00042629,0.00017322,1.1159,0.27391,12749.4103397718,0.0003820145
73,10.1016/j.actamat.2015.04.023,4591,3(a),5858,x=0.006,Mg2.994Na0.006Sb2,536,0.000078449,0.0004267,0.00017334,1.1151,0.27445,12747.1350813905,0.0003826563
73,10.1016/j.actamat.2015.04.023,4591,3(a),5858,x=0.006,Mg2.994Na0.006Sb2,536.5,0.000078463,0.00042711,0.00017346,1.1142,0.27499,12744.860634949,0.0003833333
73,10.1016/j.actamat.2015.04.023,4591,3(a),5858,x=0.006,Mg2.994Na0.006Sb2,537,0.000078478,0.00042752,0.00017358,1.1134,0.27552,12742.4246285583,0.000383977
73,10.1016/j.actamat.2015.04.023,4591,3(a),5858,x=0.006,Mg2.994Na0.006Sb2,537.5,0.000078492,0.00042793,0.0001737,1.1125,0.27606,12740.1518626102,0.0003846562
73,10.1016/j.actamat.2015.04.023,4591,3(a),5858,x=0.006,Mg2.994Na0.006Sb2,538,0.000078506,0.00042835,0.00017383,1.1117,0.2766,12737.8799072682,0.0003853108
73,10.1016/j.actamat.2015.04.023,4591,3(a),5858,x=0.006,Mg2.994Na0.006Sb2,538.5,0.000078521,0.00042876,0.00017395,1.1108,0.27713,12735.4465684339,0.0003859921
73,10.1016/j.actamat.2015.04.023,4591,3(a),5858,x=0.006,Mg2.994Na0.006Sb2,539,0.000078535,0.00042917,0.00017407,1.11,0.27767,12733.1762908257,0.0003866396
73,10.1016/j.actamat.2015.04.023,4591,3(a),5858,x=0.006,Mg2.994Na0.006Sb2,539.5,0.000078549,0.00042958,0.00017419,1.1091,0.2782,12730.906822493,0.0003873231
73,10.1016/j.actamat.2015.04.023,4591,3(a),5858,x=0.006,Mg2.994Na0.006Sb2,540,0.000078564,0.00042999,0.00017431,1.1083,0.27874,12728.4761468357,0.0003879726
73,10.1016/j.actamat.2015.04.023,4591,3(a),5858,x=0.006,Mg2.994Na0.006Sb2,540.5,0.000078578,0.0004304,0.00017443,1.1075,0.27928,12726.2083534832,0.000388623
73,10.1016/j.actamat.2015.04.023,4591,3(a),5858,x=0.006,Mg2.994Na0.006Sb2,541,0.000078592,0.00043081,0.00017455,1.1066,0.27981,12723.9413680782,0.0003893096
73,10.1016/j.actamat.2015.04.023,4591,3(a),5858,x=0.006,Mg2.994Na0.006Sb2,541.5,0.000078606,0.00043122,0.00017467,1.1058,0.28035,12721.675190189,0.000389962
73,10.1016/j.actamat.2015.04.023,4591,3(a),5858,x=0.006,Mg2.994Na0.006Sb2,542,0.000078621,0.00043163,0.00017479,1.1049,0.28089,12719.248038056,0.0003906507
73,10.1016/j.actamat.2015.04.023,4591,3(a),5858,x=0.006,Mg2.994Na0.006Sb2,542.5,0.000078635,0.00043204,0.00017491,1.1041,0.28142,12716.9835315063,0.0003913051
73,10.1016/j.actamat.2015.04.023,4591,3(a),5858,x=0.006,Mg2.994Na0.006Sb2,543,0.000078649,0.00043245,0.00017503,1.1032,0.28196,12714.7198311485,0.000391996
73,10.1016/j.actamat.2015.04.023,4591,3(a),5858,x=0.006,Mg2.994Na0.006Sb2,543.5,0.000078664,0.00043286,0.00017516,1.1024,0.2825,12712.2953320452,0.0003926524
73,10.1016/j.actamat.2015.04.023,4591,3(a),5858,x=0.006,Mg2.994Na0.006Sb2,544,0.000078678,0.00043327,0.00017528,1.1015,0.28303,12710.0333002872,0.0003933454
73,10.1016/j.actamat.2015.04.023,4591,3(a),5858,x=0.006,Mg2.994Na0.006Sb2,544.5,0.000078692,0.00043368,0.0001754,1.1007,0.28357,12707.7720734001,0.0003940038
73,10.1016/j.actamat.2015.04.023,4591,3(a),5858,x=0.006,Mg2.994Na0.006Sb2,545,0.000078707,0.0004341,0.00017552,1.0998,0.28411,12705.3502229789,0.0003947081
73,10.1016/j.actamat.2015.04.023,4591,3(a),5858,x=0.006,Mg2.994Na0.006Sb2,545.5,0.000078721,0.00043451,0.00017564,1.099,0.28464,12703.0906619581,0.0003953685
73,10.1016/j.actamat.2015.04.023,4591,3(a),5858,x=0.006,Mg2.994Na0.006Sb2,546,0.000078735,0.00043492,0.00017576,1.0981,0.28518,12700.8319044897,0.0003960659
73,10.1016/j.actamat.2015.04.023,4591,3(a),5858,x=0.006,Mg2.994Na0.006Sb2,546.5,0.000078749,0.00043533,0.00017588,1.0973,0.28572,12698.5739501454,0.0003967283
73,10.1016/j.actamat.2015.04.023,4591,3(a),5858,x=0.006,Mg2.994Na0.006Sb2,547,0.000078764,0.00043574,0.000176,1.0964,0.28625,12696.1556040831,0.0003974279
73,10.1016/j.actamat.2015.04.023,4591,3(a),5858,x=0.006,Mg2.994Na0.006Sb2,547.5,0.000078778,0.00043615,0.00017612,1.0956,0.28679,12693.8993119907,0.0003980924
73,10.1016/j.actamat.2015.04.023,4591,3(a),5858,x=0.006,Mg2.994Na0.006Sb2,548,0.000078792,0.00043656,0.00017624,1.0948,0.28733,12691.6438217078,0.0003987578
73,10.1016/j.actamat.2015.04.023,4591,3(a),5858,x=0.006,Mg2.994Na0.006Sb2,548.5,0.000078807,0.00043697,0.00017637,1.0939,0.28786,12689.2281142538,0.0003994606
73,10.1016/j.actamat.2015.04.023,4591,3(a),5858,x=0.006,Mg2.994Na0.006Sb2,549,0.000078821,0.00043738,0.00017649,1.0931,0.2884,12686.9742835031,0.0004001281
73,10.1016/j.actamat.2015.04.023,4591,3(a),5858,x=0.006,Mg2.994Na0.006Sb2,549.5,0.000078835,0.00043779,0.00017661,1.0922,0.28894,12684.7212532505,0.0004008332
73,10.1016/j.actamat.2015.04.023,4591,3(a),5858,x=0.006,Mg2.994Na0.006Sb2,550,0.00007885,0.0004382,0.00017673,1.0914,0.28947,12682.3081800888,0.0004015027
73,10.1016/j.actamat.2015.04.023,4591,3(a),5858,x=0.006,Mg2.994Na0.006Sb2,550.5,0.000078864,0.00043861,0.00017685,1.0905,0.29001,12680.0568066545,0.00040221
73,10.1016/j.actamat.2015.04.023,4591,3(a),5858,x=0.006,Mg2.994Na0.006Sb2,551,0.000078878,0.00043902,0.00017697,1.0897,0.29055,12677.8062324095,0.0004028815
73,10.1016/j.actamat.2015.04.023,4591,3(a),5858,x=0.006,Mg2.994Na0.006Sb2,551.5,0.000078893,0.00043944,0.00017709,1.0888,0.29108,12675.3957892335,0.0004036003
73,10.1016/j.actamat.2015.04.023,4591,3(a),5858,x=0.006,Mg2.994Na0.006Sb2,552,0.000078907,0.00043985,0.00017721,1.088,0.29162,12673.1468690991,0.0004042739
73,10.1016/j.actamat.2015.04.023,4591,3(a),5858,x=0.006,Mg2.994Na0.006Sb2,552.5,0.000078921,0.00044026,0.00017733,1.0871,0.29216,12670.8987468481,0.0004049857
73,10.1016/j.actamat.2015.04.023,4591,3(a),5858,x=0.006,Mg2.994Na0.006Sb2,553,0.000078935,0.00044067,0.00017745,1.0863,0.29269,12668.6514220561,0.0004056614
73,10.1016/j.actamat.2015.04.023,4591,3(a),5858,x=0.006,Mg2.994Na0.006Sb2,553.5,0.00007895,0.00044108,0.00017757,1.0854,0.29323,12666.2444585181,0.0004063755
73,10.1016/j.actamat.2015.04.023,4591,3(a),5858,x=0.006,Mg2.994Na0.006Sb2,554,0.000078964,0.00044149,0.0001777,1.0846,0.29376,12663.9987842561,0.0004070533
73,10.1016/j.actamat.2015.04.023,4591,3(a),5858,x=0.006,Mg2.994Na0.006Sb2,554.5,0.000078978,0.0004419,0.00017782,1.0838,0.2943,12661.7539061511,0.0004077321
73,10.1016/j.actamat.2015.04.023,4591,3(a),5858,x=0.006,Mg2.994Na0.006Sb2,555,0.000078993,0.00044231,0.00017794,1.0829,0.29484,12659.3495626195,0.0004084495
73,10.1016/j.actamat.2015.04.023,4591,3(a),5858,x=0.006,Mg2.994Na0.006Sb2,555.5,0.000079007,0.00044272,0.00017806,1.0821,0.29537,12657.1063323503,0.0004091304
73,10.1016/j.actamat.2015.04.023,4591,3(a),5858,x=0.006,Mg2.994Na0.006Sb2,556,0.000079021,0.00044313,0.00017818,1.0812,0.29591,12654.8638969388,0.0004098502
73,10.1016/j.actamat.2015.04.023,4591,3(a),5858,x=0.006,Mg2.994Na0.006Sb2,556.5,0.000079036,0.00044354,0.0001783,1.0804,0.29645,12652.4621691381,0.0004105331
73,10.1016/j.actamat.2015.04.023,4591,3(a),5858,x=0.006,Mg2.994Na0.006Sb2,557,0.00007905,0.00044395,0.00017842,1.0795,0.29698,12650.2213788741,0.0004112552
73,10.1016/j.actamat.2015.04.023,4591,3(a),5858,x=0.006,Mg2.994Na0.006Sb2,557.5,0.000079064,0.00044436,0.00017854,1.0787,0.29752,12647.9813821714,0.0004119403
73,10.1016/j.actamat.2015.04.023,4591,3(a),5858,x=0.006,Mg2.994Na0.006Sb2,558,0.000079079,0.00044478,0.00017866,1.0778,0.29806,12645.5822658354,0.000412674
73,10.1016/j.actamat.2015.04.023,4591,3(a),5858,x=0.006,Mg2.994Na0.006Sb2,558.5,0.000079093,0.00044519,0.00017878,1.077,0.29859,12643.3439115977,0.0004133612
73,10.1016/j.actamat.2015.04.023,4591,3(a),5858,x=0.006,Mg2.994Na0.006Sb2,559,0.000079107,0.0004456,0.0001789,1.0761,0.29913,12641.1063496277,0.0004140879
73,10.1016/j.actamat.2015.04.023,4591,3(a),5858,x=0.006,Mg2.994Na0.006Sb2,559.5,0.000079121,0.00044601,0.00017903,1.0753,0.29967,12638.8695795048,0.0004147773
73,10.1016/j.actamat.2015.04.023,4591,3(a),5858,x=0.006,Mg2.994Na0.006Sb2,560,0.000079136,0.00044642,0.00017915,1.0744,0.3002,12636.4739183178,0.0004155063
73,10.1016/j.actamat.2015.04.023,4591,3(a),5858,x=0.006,Mg2.994Na0.006Sb2,560.5,0.00007915,0.00044683,0.00017927,1.0736,0.30074,12634.2387871131,0.0004161978
73,10.1016/j.actamat.2015.04.023,4591,3(a),5858,x=0.006,Mg2.994Na0.006Sb2,561,0.000079164,0.00044724,0.00017939,1.0727,0.30128,12632.0044464656,0.0004169292
73,10.1016/j.actamat.2015.04.023,4591,3(a),5858,x=0.006,Mg2.994Na0.006Sb2,561.5,0.000079179,0.00044765,0.00017951,1.0719,0.30181,12629.6113868576,0.0004176229
73,10.1016/j.actamat.2015.04.023,4591,3(a),5858,x=0.006,Mg2.994Na0.006Sb2,562,0.000079193,0.00044806,0.00017963,1.0711,0.30235,12627.3786824593,0.0004183176
73,10.1016/j.actamat.2015.04.023,4591,3(a),5858,x=0.006,Mg2.994Na0.006Sb2,562.5,0.000079207,0.00044847,0.00017975,1.0702,0.30289,12625.1467673312,0.0004190525
73,10.1016/j.actamat.2015.04.023,4591,3(a),5858,x=0.006,Mg2.994Na0.006Sb2,563,0.000079222,0.00044888,0.00017987,1.0694,0.30342,12622.7563050668,0.0004197494
73,10.1016/j.actamat.2015.04.023,4591,3(a),5858,x=0.006,Mg2.994Na0.006Sb2,563.5,0.000079236,0.00044929,0.00017999,1.0685,0.30396,12620.5260235247,0.0004204867
73,10.1016/j.actamat.2015.04.023,4591,3(a),5858,x=0.006,Mg2.994Na0.006Sb2,564,0.00007925,0.0004497,0.00018011,1.0677,0.3045,12618.2965299685,0.0004211857
73,10.1016/j.actamat.2015.04.023,4591,3(a),5858,x=0.006,Mg2.994Na0.006Sb2,564.5,0.000079264,0.00045011,0.00018024,1.0668,0.30503,12616.0678239806,0.0004219254
73,10.1016/j.actamat.2015.04.023,4591,3(a),5858,x=0.006,Mg2.994Na0.006Sb2,565,0.000079279,0.00045053,0.00018036,1.066,0.30557,12613.6807981937,0.000422636
73,10.1016/j.actamat.2015.04.023,4591,3(a),5858,x=0.006,Mg2.994Na0.006Sb2,565.5,0.000079293,0.00045094,0.00018048,1.0651,0.30611,12611.4537222706,0.0004233781
73,10.1016/j.actamat.2015.04.023,4591,3(a),5858,x=0.006,Mg2.994Na0.006Sb2,566,0.000079307,0.00045135,0.0001806,1.0643,0.30664,12609.2274326352,0.0004240816
73,10.1016/j.actamat.2015.04.023,4591,3(a),5858,x=0.006,Mg2.994Na0.006Sb2,566.5,0.000079322,0.00045176,0.00018072,1.0634,0.30718,12606.8429943773,0.000424826
73,10.1016/j.actamat.2015.04.023,4591,3(a),5858,x=0.006,Mg2.994Na0.006Sb2,567,0.000079336,0.00045217,0.00018084,1.0626,0.30771,12604.6183321569,0.0004255317
73,10.1016/j.actamat.2015.04.023,4591,3(a),5858,x=0.006,Mg2.994Na0.006Sb2,567.5,0.00007935,0.00045258,0.00018096,1.0617,0.30825,12602.3944549464,0.0004262786
73,10.1016/j.actamat.2015.04.023,4591,3(a),5858,x=0.006,Mg2.994Na0.006Sb2,568,0.000079365,0.00045299,0.00018108,1.0609,0.30879,12600.0126000126,0.0004269865
73,10.1016/j.actamat.2015.04.023,4591,3(a),5858,x=0.006,Mg2.994Na0.006Sb2,568.5,0.000079379,0.0004534,0.0001812,1.06,0.30932,12597.790347573,0.0004277358
73,10.1016/j.actamat.2015.04.023,4591,3(a),5858,x=0.006,Mg2.994Na0.006Sb2,569,0.000079393,0.00045381,0.00018132,1.0592,0.30986,12595.5688788684,0.000428446
73,10.1016/j.actamat.2015.04.023,4591,3(a),5858,x=0.006,Mg2.994Na0.006Sb2,569.5,0.000079408,0.00045422,0.00018144,1.0584,0.3104,12593.1896030627,0.0004291572
73,10.1016/j.actamat.2015.04.023,4591,3(a),5858,x=0.006,Mg2.994Na0.006Sb2,570,0.000079422,0.00045463,0.00018157,1.0575,0.31093,12590.9697564906,0.0004299102
73,10.1016/j.actamat.2015.04.023,4591,3(a),5858,x=0.006,Mg2.994Na0.006Sb2,570.5,0.000079436,0.00045504,0.00018169,1.0567,0.31147,12588.7506923813,0.0004306236
73,10.1016/j.actamat.2015.04.023,4591,3(a),5858,x=0.006,Mg2.994Na0.006Sb2,571,0.00007945,0.00045545,0.00018181,1.0558,0.31201,12586.532410321,0.000431379
73,10.1016/j.actamat.2015.04.023,4591,3(a),5858,x=0.006,Mg2.994Na0.006Sb2,571.5,0.000079465,0.00045587,0.00018193,1.055,0.31254,12584.1565469074,0.0004321043
73,10.1016/j.actamat.2015.04.023,4591,3(a),5858,x=0.006,Mg2.994Na0.006Sb2,572,0.000079479,0.00045628,0.00018205,1.0541,0.31308,12581.9398834912,0.0004328622
73,10.1016/j.actamat.2015.04.023,4591,3(a),5858,x=0.006,Mg2.994Na0.006Sb2,572.5,0.000079493,0.00045669,0.00018217,1.0533,0.31362,12579.7240008554,0.0004335802
73,10.1016/j.actamat.2015.04.023,4591,3(a),5858,x=0.006,Mg2.994Na0.006Sb2,573,0.000079508,0.0004571,0.00018229,1.0524,0.31415,12577.3507068471,0.0004343406
73,10.1016/j.actamat.2015.04.023,4591,3(a),5858,x=0.006,Mg2.994Na0.006Sb2,573.5,0.000079522,0.00045751,0.00018241,1.0516,0.31469,12575.1364402304,0.0004350609
73,10.1016/j.actamat.2015.04.023,4591,3(a),5858,x=0.006,Mg2.994Na0.006Sb2,574,0.000079536,0.00045792,0.00018253,1.0507,0.31523,12572.9229531281,0.0004358237