sid,DOI,figureid,fignum,sampleid,samplename,composition,Temperature,Electrical resistivity,Power factor,Seebeck coefficient,Thermal conductivity,ZT,Electrical conductivity,Figure of merit Z
73,10.1016/j.actamat.2015.04.023,4591,3(a),5859,x=0.0125,Mg2.9875Na0.0125Sb2,718.5,0.000044803,0.0007343,0.00018057,0.95628,0.52188,22319.9339329956,0.0007678713
73,10.1016/j.actamat.2015.04.023,4591,3(a),5859,x=0.0125,Mg2.9875Na0.0125Sb2,719,0.00004481,0.00073491,0.00018068,0.95538,0.5225,22316.4472216023,0.0007692332
73,10.1016/j.actamat.2015.04.023,4591,3(a),5859,x=0.0125,Mg2.9875Na0.0125Sb2,719.5,0.000044816,0.00073551,0.00018079,0.95447,0.52312,22313.4594787576,0.0007705952
73,10.1016/j.actamat.2015.04.023,4591,3(a),5859,x=0.0125,Mg2.9875Na0.0125Sb2,720,0.000044823,0.00073612,0.0001809,0.95356,0.52375,22309.9747897285,0.0007719703
73,10.1016/j.actamat.2015.04.023,4591,3(a),5859,x=0.0125,Mg2.9875Na0.0125Sb2,720.5,0.000044829,0.00073673,0.00018101,0.95265,0.52437,22306.9887795846,0.000773348
73,10.1016/j.actamat.2015.04.023,4591,3(a),5859,x=0.0125,Mg2.9875Na0.0125Sb2,721,0.000044836,0.00073734,0.00018112,0.95175,0.52499,22303.5061111607,0.0007747203
73,10.1016/j.actamat.2015.04.023,4591,3(a),5859,x=0.0125,Mg2.9875Na0.0125Sb2,721.5,0.000044843,0.00073795,0.00018123,0.95084,0.52561,22300.024530027,0.0007761032
73,10.1016/j.actamat.2015.04.023,4591,3(a),5859,x=0.0125,Mg2.9875Na0.0125Sb2,722,0.000044849,0.00073855,0.00018135,0.94993,0.52623,22297.0411826351,0.0007774783
73,10.1016/j.actamat.2015.04.023,4591,3(a),5859,x=0.0125,Mg2.9875Na0.0125Sb2,722.5,0.000044856,0.00073916,0.00018146,0.94902,0.52686,22293.5616194043,0.0007788666
73,10.1016/j.actamat.2015.04.023,4591,3(a),5859,x=0.0125,Mg2.9875Na0.0125Sb2,723,0.000044862,0.00073977,0.00018157,0.94812,0.52748,22290.5800008916,0.0007802493
73,10.1016/j.actamat.2015.04.023,4591,3(a),5859,x=0.0125,Mg2.9875Na0.0125Sb2,723.5,0.000044869,0.00074038,0.00018168,0.94721,0.5281,22287.10245381,0.0007816429
73,10.1016/j.actamat.2015.04.023,4591,3(a),5859,x=0.0125,Mg2.9875Na0.0125Sb2,724,0.000044876,0.00074098,0.00018179,0.9463,0.52872,22283.6259916214,0.0007830286
73,10.1016/j.actamat.2015.04.023,4591,3(a),5859,x=0.0125,Mg2.9875Na0.0125Sb2,724.5,0.000044882,0.00074159,0.0001819,0.9454,0.52935,22280.6470299898,0.0007844193
73,10.1016/j.actamat.2015.04.023,4591,3(a),5859,x=0.0125,Mg2.9875Na0.0125Sb2,725,0.000044889,0.0007422,0.00018201,0.94449,0.52997,22277.172581256,0.0007858209
73,10.1016/j.actamat.2015.04.023,4591,3(a),5859,x=0.0125,Mg2.9875Na0.0125Sb2,725.5,0.000044895,0.00074281,0.00018212,0.94358,0.53059,22274.1953446932,0.0007872252
73,10.1016/j.actamat.2015.04.023,4591,3(a),5859,x=0.0125,Mg2.9875Na0.0125Sb2,726,0.000044902,0.00074341,0.00018223,0.94267,0.53121,22270.7229076656,0.0007886217
73,10.1016/j.actamat.2015.04.023,4591,3(a),5859,x=0.0125,Mg2.9875Na0.0125Sb2,726.5,0.000044909,0.00074402,0.00018235,0.94177,0.53184,22267.2515531408,0.000790023
73,10.1016/j.actamat.2015.04.023,4591,3(a),5859,x=0.0125,Mg2.9875Na0.0125Sb2,727,0.000044915,0.00074463,0.00018246,0.94086,0.53246,22264.2769676055,0.0007914355
73,10.1016/j.actamat.2015.04.023,4591,3(a),5859,x=0.0125,Mg2.9875Na0.0125Sb2,727.5,0.000044922,0.00074524,0.00018257,0.93995,0.53308,22260.8076221005,0.0007928507
73,10.1016/j.actamat.2015.04.023,4591,3(a),5859,x=0.0125,Mg2.9875Na0.0125Sb2,728,0.000044929,0.00074584,0.00018268,0.93904,0.5337,22257.3393576532,0.000794258
73,10.1016/j.actamat.2015.04.023,4591,3(a),5859,x=0.0125,Mg2.9875Na0.0125Sb2,728.5,0.000044935,0.00074645,0.00018279,0.93814,0.53433,22254.3674196061,0.0007956702
73,10.1016/j.actamat.2015.04.023,4591,3(a),5859,x=0.0125,Mg2.9875Na0.0125Sb2,729,0.000044942,0.00074706,0.0001829,0.93723,0.53495,22250.901161497,0.0007970936
73,10.1016/j.actamat.2015.04.023,4591,3(a),5859,x=0.0125,Mg2.9875Na0.0125Sb2,729.5,0.000044948,0.00074767,0.00018301,0.93632,0.53557,22247.9309424224,0.0007985197
73,10.1016/j.actamat.2015.04.023,4591,3(a),5859,x=0.0125,Mg2.9875Na0.0125Sb2,730,0.000044955,0.00074827,0.00018312,0.93541,0.53619,22244.4666889111,0.000799938
73,10.1016/j.actamat.2015.04.023,4591,3(a),5859,x=0.0125,Mg2.9875Na0.0125Sb2,730.5,0.000044962,0.00074888,0.00018324,0.93451,0.53681,22241.0035140786,0.0008013611
73,10.1016/j.actamat.2015.04.023,4591,3(a),5859,x=0.0125,Mg2.9875Na0.0125Sb2,731,0.000044968,0.00074949,0.00018335,0.9336,0.53744,22238.0359366661,0.0008027956
73,10.1016/j.actamat.2015.04.023,4591,3(a),5859,x=0.0125,Mg2.9875Na0.0125Sb2,731.5,0.000044975,0.0007501,0.00018346,0.93269,0.53806,22234.5747637576,0.0008042329
73,10.1016/j.actamat.2015.04.023,4591,3(a),5859,x=0.0125,Mg2.9875Na0.0125Sb2,732,0.000044981,0.0007507,0.00018357,0.93178,0.53868,22231.6089015362,0.0008056623
73,10.1016/j.actamat.2015.04.023,4591,3(a),5859,x=0.0125,Mg2.9875Na0.0125Sb2,732.5,0.000044988,0.00075131,0.00018368,0.93088,0.5393,22228.1497288166,0.0008070965
73,10.1016/j.actamat.2015.04.023,4591,3(a),5859,x=0.0125,Mg2.9875Na0.0125Sb2,733,0.000044995,0.00075192,0.00018379,0.92997,0.53993,22224.6916324036,0.0008085422
73,10.1016/j.actamat.2015.04.023,4591,3(a),5859,x=0.0125,Mg2.9875Na0.0125Sb2,733.5,0.000045001,0.00075253,0.0001839,0.92906,0.54055,22221.7284060354,0.0008099907
73,10.1016/j.actamat.2015.04.023,4591,3(a),5859,x=0.0125,Mg2.9875Na0.0125Sb2,734,0.000045008,0.00075313,0.00018401,0.92816,0.54117,22218.2723071454,0.0008114226
73,10.1016/j.actamat.2015.04.023,4591,3(a),5859,x=0.0125,Mg2.9875Na0.0125Sb2,734.5,0.000045014,0.00075374,0.00018412,0.92725,0.54179,22215.310792198,0.0008128768
73,10.1016/j.actamat.2015.04.023,4591,3(a),5859,x=0.0125,Mg2.9875Na0.0125Sb2,735,0.000045021,0.00075435,0.00018424,0.92634,0.54242,22211.8566891006,0.0008143338
73,10.1016/j.actamat.2015.04.023,4591,3(a),5859,x=0.0125,Mg2.9875Na0.0125Sb2,735.5,0.000045028,0.00075496,0.00018435,0.92543,0.54304,22208.4036599449,0.0008157937
73,10.1016/j.actamat.2015.04.023,4591,3(a),5859,x=0.0125,Mg2.9875Na0.0125Sb2,736,0.000045034,0.00075556,0.00018446,0.92453,0.54366,22205.4447750588,0.0008172369
73,10.1016/j.actamat.2015.04.023,4591,3(a),5859,x=0.0125,Mg2.9875Na0.0125Sb2,736.5,0.000045041,0.00075617,0.00018457,0.92362,0.54428,22201.9937390378,0.0008187025
73,10.1016/j.actamat.2015.04.023,4591,3(a),5859,x=0.0125,Mg2.9875Na0.0125Sb2,737,0.000045047,0.00075678,0.00018468,0.92271,0.54491,22199.0365618132,0.000820171
73,10.1016/j.actamat.2015.04.023,4591,3(a),5859,x=0.0125,Mg2.9875Na0.0125Sb2,737.5,0.000045054,0.00075739,0.00018479,0.9218,0.54553,22195.5875172016,0.0008216424
73,10.1016/j.actamat.2015.04.023,4591,3(a),5859,x=0.0125,Mg2.9875Na0.0125Sb2,738,0.000045061,0.00075799,0.0001849,0.9209,0.54615,22192.1395441735,0.000823097
73,10.1016/j.actamat.2015.04.023,4591,3(a),5859,x=0.0125,Mg2.9875Na0.0125Sb2,738.5,0.000045067,0.0007586,0.00018501,0.91999,0.54677,22189.1849912353,0.0008245742
73,10.1016/j.actamat.2015.04.023,4591,3(a),5859,x=0.0125,Mg2.9875Na0.0125Sb2,739,0.000045074,0.00075921,0.00018513,0.91908,0.54739,22185.7390069663,0.0008260543
73,10.1016/j.actamat.2015.04.023,4591,3(a),5859,x=0.0125,Mg2.9875Na0.0125Sb2,739.5,0.00004508,0.00075982,0.00018524,0.91817,0.54802,22182.7861579414,0.0008275374
73,10.1016/j.actamat.2015.04.023,4591,3(a),5859,x=0.0125,Mg2.9875Na0.0125Sb2,740,0.000045087,0.00076043,0.00018535,0.91727,0.54864,22179.3421607115,0.0008290144
73,10.1016/j.actamat.2015.04.023,4591,3(a),5859,x=0.0125,Mg2.9875Na0.0125Sb2,740.5,0.000045094,0.00076103,0.00018546,0.91636,0.54926,22175.8992327139,0.0008304924
73,10.1016/j.actamat.2015.04.023,4591,3(a),5859,x=0.0125,Mg2.9875Na0.0125Sb2,741,0.0000451,0.00076164,0.00018557,0.91545,0.54988,22172.9490022173,0.0008319843
73,10.1016/j.actamat.2015.04.023,4591,3(a),5859,x=0.0125,Mg2.9875Na0.0125Sb2,741.5,0.000045107,0.00076225,0.00018568,0.91455,0.55051,22169.5080586162,0.00083347
73,10.1016/j.actamat.2015.04.023,4591,3(a),5859,x=0.0125,Mg2.9875Na0.0125Sb2,742,0.000045113,0.00076286,0.00018579,0.91364,0.55113,22166.5595282956,0.0008349678
73,10.1016/j.actamat.2015.04.023,4591,3(a),5859,x=0.0125,Mg2.9875Na0.0125Sb2,742.5,0.00004512,0.00076346,0.0001859,0.91273,0.55175,22163.1205673759,0.0008364577
73,10.1016/j.actamat.2015.04.023,4591,3(a),5859,x=0.0125,Mg2.9875Na0.0125Sb2,743,0.000045127,0.00076407,0.00018602,0.91182,0.55237,22159.6826733441,0.0008379614
73,10.1016/j.actamat.2015.04.023,4591,3(a),5859,x=0.0125,Mg2.9875Na0.0125Sb2,743.5,0.000045133,0.00076468,0.00018613,0.91092,0.553,22156.7367558106,0.000839459
73,10.1016/j.actamat.2015.04.023,4591,3(a),5859,x=0.0125,Mg2.9875Na0.0125Sb2,744,0.00004514,0.00076529,0.00018624,0.91001,0.55362,22153.3008418254,0.0008409688
73,10.1016/j.actamat.2015.04.023,4591,3(a),5859,x=0.0125,Mg2.9875Na0.0125Sb2,744.5,0.000045147,0.00076589,0.00018635,0.9091,0.55424,22149.8659933107,0.0008424706
73,10.1016/j.actamat.2015.04.023,4591,3(a),5859,x=0.0125,Mg2.9875Na0.0125Sb2,745,0.000045153,0.0007665,0.00018646,0.90819,0.55486,22146.9226850929,0.0008439864
73,10.1016/j.actamat.2015.04.023,4591,3(a),5859,x=0.0125,Mg2.9875Na0.0125Sb2,745.5,0.00004516,0.00076711,0.00018657,0.90729,0.55549,22143.4898139947,0.0008454959
73,10.1016/j.actamat.2015.04.023,4591,3(a),5859,x=0.0125,Mg2.9875Na0.0125Sb2,746,0.000045166,0.00076772,0.00018668,0.90638,0.55611,22140.5481999734,0.0008470178
73,10.1016/j.actamat.2015.04.023,4591,3(a),5859,x=0.0125,Mg2.9875Na0.0125Sb2,746.5,0.000045173,0.00076832,0.00018679,0.90547,0.55673,22137.1173045846,0.0008485317
73,10.1016/j.actamat.2015.04.023,4591,3(a),5859,x=0.0125,Mg2.9875Na0.0125Sb2,747,0.00004518,0.00076893,0.0001869,0.90456,0.55735,22133.6874723329,0.0008500597
73,10.1016/j.actamat.2015.04.023,4591,3(a),5859,x=0.0125,Mg2.9875Na0.0125Sb2,747.5,0.000045186,0.00076954,0.00018702,0.90366,0.55797,22130.748461913,0.0008515813
73,10.1016/j.actamat.2015.04.023,4591,3(a),5859,x=0.0125,Mg2.9875Na0.0125Sb2,748,0.000045193,0.00077015,0.00018713,0.90275,0.5586,22127.3206027482,0.0008531155
73,10.1016/j.actamat.2015.04.023,4591,3(a),5859,x=0.0125,Mg2.9875Na0.0125Sb2,748.5,0.000045199,0.00077075,0.00018724,0.90184,0.55922,22124.383282816,0.0008546416
73,10.1016/j.actamat.2015.04.023,4591,3(a),5859,x=0.0125,Mg2.9875Na0.0125Sb2,749,0.000045206,0.00077136,0.00018735,0.90093,0.55984,22120.9573950361,0.0008561819
73,10.1016/j.actamat.2015.04.023,4591,3(a),5859,x=0.0125,Mg2.9875Na0.0125Sb2,749.5,0.000045213,0.00077197,0.00018746,0.90003,0.56046,22117.5325680667,0.0008577159
73,10.1016/j.actamat.2015.04.023,4591,3(a),5859,x=0.0125,Mg2.9875Na0.0125Sb2,750,0.000045219,0.00077258,0.00018757,0.89912,0.56109,22114.5978460382,0.0008592624
73,10.1016/j.actamat.2015.04.023,4591,3(a),5859,x=0.0125,Mg2.9875Na0.0125Sb2,750.5,0.000045226,0.00077318,0.00018768,0.89821,0.56171,22111.1749878389,0.0008608009
73,10.1016/j.actamat.2015.04.023,4591,3(a),5859,x=0.0125,Mg2.9875Na0.0125Sb2,751,0.000045232,0.00077379,0.00018779,0.89731,0.56233,22108.2419525999,0.0008623441
73,10.1016/j.actamat.2015.04.023,4591,3(a),5859,x=0.0125,Mg2.9875Na0.0125Sb2,751.5,0.000045239,0.0007744,0.00018791,0.8964,0.56295,22104.8210614735,0.0008639
73,10.1016/j.actamat.2015.04.023,4591,3(a),5859,x=0.0125,Mg2.9875Na0.0125Sb2,752,0.000045246,0.00077501,0.00018802,0.89549,0.56358,22101.4012288379,0.0008654591
73,10.1016/j.actamat.2015.04.023,4591,3(a),5859,x=0.0125,Mg2.9875Na0.0125Sb2,752.5,0.000045252,0.00077561,0.00018813,0.89458,0.5642,22098.4707858216,0.0008670102
73,10.1016/j.actamat.2015.04.023,4591,3(a),5859,x=0.0125,Mg2.9875Na0.0125Sb2,753,0.000045259,0.00077622,0.00018824,0.89368,0.56482,22095.0529176517,0.0008685659
73,10.1016/j.actamat.2015.04.023,4591,3(a),5859,x=0.0125,Mg2.9875Na0.0125Sb2,753.5,0.000045265,0.00077683,0.00018835,0.89277,0.56544,22092.1241577378,0.0008701345
73,10.1016/j.actamat.2015.04.023,4591,3(a),5859,x=0.0125,Mg2.9875Na0.0125Sb2,754,0.000045272,0.00077744,0.00018846,0.89186,0.56607,22088.7082523414,0.0008717063
73,10.1016/j.actamat.2015.04.023,4591,3(a),5859,x=0.0125,Mg2.9875Na0.0125Sb2,754.5,0.000045279,0.00077804,0.00018857,0.89095,0.56669,22085.2934031229,0.0008732701
73,10.1016/j.actamat.2015.04.023,4591,3(a),5859,x=0.0125,Mg2.9875Na0.0125Sb2,755,0.000045285,0.00077865,0.00018868,0.89005,0.56731,22082.367229767,0.0008748385
73,10.1016/j.actamat.2015.04.023,4591,3(a),5859,x=0.0125,Mg2.9875Na0.0125Sb2,755.5,0.000045292,0.00077926,0.0001888,0.88914,0.56793,22078.9543407224,0.0008764199
73,10.1016/j.actamat.2015.04.023,4591,3(a),5859,x=0.0125,Mg2.9875Na0.0125Sb2,756,0.000045298,0.00077987,0.00018891,0.88823,0.56855,22076.0298467924,0.0008780046
73,10.1016/j.actamat.2015.04.023,4591,3(a),5859,x=0.0125,Mg2.9875Na0.0125Sb2,756.5,0.000045305,0.00078047,0.00018902,0.88732,0.56918,22072.6189162344,0.0008795812
73,10.1016/j.actamat.2015.04.023,4591,3(a),5859,x=0.0125,Mg2.9875Na0.0125Sb2,757,0.000045312,0.00078108,0.00018913,0.88642,0.5698,22069.209039548,0.0008811624
73,10.1016/j.actamat.2015.04.023,4591,3(a),5859,x=0.0125,Mg2.9875Na0.0125Sb2,757.5,0.000045318,0.00078169,0.00018924,0.88551,0.57042,22066.2871265281,0.0008827568
73,10.1016/j.actamat.2015.04.023,4591,3(a),5859,x=0.0125,Mg2.9875Na0.0125Sb2,758,0.000045325,0.0007823,0.00018935,0.8846,0.57104,22062.8792057363,0.0008843545
73,10.1016/j.actamat.2015.04.023,4591,3(a),5859,x=0.0125,Mg2.9875Na0.0125Sb2,758.5,0.000045332,0.00078291,0.00018946,0.88369,0.57167,22059.4723374217,0.0008859555
73,10.1016/j.actamat.2015.04.023,4591,3(a),5859,x=0.0125,Mg2.9875Na0.0125Sb2,759,0.000045338,0.00078351,0.00018957,0.88279,0.57229,22056.5530018969,0.0008875384
73,10.1016/j.actamat.2015.04.023,4591,3(a),5859,x=0.0125,Mg2.9875Na0.0125Sb2,759.5,0.000045345,0.00078412,0.00018968,0.88188,0.57291,22053.1480868894,0.0008891459
73,10.1016/j.actamat.2015.04.023,4591,3(a),5859,x=0.0125,Mg2.9875Na0.0125Sb2,760,0.000045351,0.00078473,0.0001898,0.88097,0.57353,22050.2304249079,0.0008907568
73,10.1016/j.actamat.2015.04.023,4591,3(a),5859,x=0.0125,Mg2.9875Na0.0125Sb2,760.5,0.000045358,0.00078534,0.00018991,0.88007,0.57416,22046.8274615283,0.0008923608
73,10.1016/j.actamat.2015.04.023,4591,3(a),5859,x=0.0125,Mg2.9875Na0.0125Sb2,761,0.000045365,0.00078594,0.00019002,0.87916,0.57478,22043.4255483302,0.000893967
73,10.1016/j.actamat.2015.04.023,4591,3(a),5859,x=0.0125,Mg2.9875Na0.0125Sb2,761.5,0.000045371,0.00078655,0.00019013,0.87825,0.5754,22040.5104582222,0.0008955878
73,10.1016/j.actamat.2015.04.023,4591,3(a),5859,x=0.0125,Mg2.9875Na0.0125Sb2,762,0.000045378,0.00078716,0.00019024,0.87734,0.57602,22037.110494072,0.000897212
73,10.1016/j.actamat.2015.04.023,4591,3(a),5859,x=0.0125,Mg2.9875Na0.0125Sb2,762.5,0.000045384,0.00078777,0.00019035,0.87644,0.57664,22034.1970738586,0.0008988294
73,10.1016/j.actamat.2015.04.023,4591,3(a),5859,x=0.0125,Mg2.9875Na0.0125Sb2,763,0.000045391,0.00078837,0.00019046,0.87553,0.57727,22030.7990570818,0.0009004489
73,10.1016/j.actamat.2015.04.023,4591,3(a),5859,x=0.0125,Mg2.9875Na0.0125Sb2,763.5,0.000045398,0.00078898,0.00019057,0.87462,0.57789,22027.4020881977,0.0009020832
73,10.1016/j.actamat.2015.04.023,4591,3(a),5859,x=0.0125,Mg2.9875Na0.0125Sb2,764,0.000045404,0.00078959,0.00019069,0.87371,0.57851,22024.4912342525,0.0009037209
73,10.1016/j.actamat.2015.04.023,4591,3(a),5859,x=0.0125,Mg2.9875Na0.0125Sb2,764.5,0.000045411,0.0007902,0.0001908,0.87281,0.57913,22021.0962101693,0.0009053517
73,10.1016/j.actamat.2015.04.023,4591,3(a),5859,x=0.0125,Mg2.9875Na0.0125Sb2,765,0.000045417,0.0007908,0.00019091,0.8719,0.57976,22018.1870224806,0.0009069847
73,10.1016/j.actamat.2015.04.023,4591,3(a),5859,x=0.0125,Mg2.9875Na0.0125Sb2,765.5,0.000045424,0.00079141,0.00019102,0.87099,0.58038,22014.7939415287,0.0009086327
73,10.1016/j.actamat.2015.04.023,4591,3(a),5859,x=0.0125,Mg2.9875Na0.0125Sb2,766,0.000045431,0.00079202,0.00019113,0.87008,0.581,22011.4019061874,0.0009102841
73,10.1016/j.actamat.2015.04.023,4591,3(a),5859,x=0.0125,Mg2.9875Na0.0125Sb2,766.5,0.000045437,0.00079263,0.00019124,0.86918,0.58162,22008.4952791778,0.0009119285
73,10.1016/j.actamat.2015.04.023,4591,3(a),5859,x=0.0125,Mg2.9875Na0.0125Sb2,767,0.000045444,0.00079323,0.00019135,0.86827,0.58225,22005.1051844028,0.0009135753
73,10.1016/j.actamat.2015.04.023,4591,3(a),5859,x=0.0125,Mg2.9875Na0.0125Sb2,767.5,0.00004545,0.00079384,0.00019146,0.86736,0.58287,22002.200220022,0.000915237
73,10.1016/j.actamat.2015.04.023,4591,3(a),5859,x=0.0125,Mg2.9875Na0.0125Sb2,768,0.000045457,0.00079445,0.00019157,0.86646,0.58349,21998.8120641485,0.0009168917
73,10.1016/j.actamat.2015.04.023,4591,3(a),5859,x=0.0125,Mg2.9875Na0.0125Sb2,768.5,0.000045464,0.00079506,0.00019169,0.86555,0.58411,21995.4249516101,0.0009185605
73,10.1016/j.actamat.2015.04.023,4591,3(a),5859,x=0.0125,Mg2.9875Na0.0125Sb2,769,0.00004547,0.00079566,0.0001918,0.86464,0.58474,21992.5225423356,0.0009202211
73,10.1016/j.actamat.2015.04.023,4591,3(a),5859,x=0.0125,Mg2.9875Na0.0125Sb2,769.5,0.000045477,0.00079627,0.00019191,0.86373,0.58536,21989.1373661411,0.0009218969
73,10.1016/j.actamat.2015.04.023,4591,3(a),5859,x=0.0125,Mg2.9875Na0.0125Sb2,770,0.000045483,0.00079688,0.00019202,0.86283,0.58598,21986.2366158785,0.0009235655
73,10.1016/j.actamat.2015.04.023,4591,3(a),5859,x=0.0125,Mg2.9875Na0.0125Sb2,770.5,-0.015602,0.00079749,0.00019213,,0.5866,-64.0943468786,
73,10.1016/j.actamat.2015.04.023,4591,3(a),5859,x=0.0125,Mg2.9875Na0.0125Sb2,771,-0.015614,0.00079809,,,0.58722,-64.0450877418,
73,10.1016/j.actamat.2015.04.023,4591,3(a),5859,x=0.0125,Mg2.9875Na0.0125Sb2,771.5,-0.015626,0.0007987,,,0.58785,-63.9959042621,
73,10.1016/j.actamat.2015.04.023,4591,3(a),5859,x=0.0125,Mg2.9875Na0.0125Sb2,772,-0.015638,0.00079931,,,0.58847,-63.9467962655,
73,10.1016/j.actamat.2015.04.023,4591,3(a),5859,x=0.0125,Mg2.9875Na0.0125Sb2,772.5,-0.01565,0.00079992,,,0.58909,-63.8977635783,
73,10.1016/j.actamat.2015.04.023,4591,3(a),5859,x=0.0125,Mg2.9875Na0.0125Sb2,773,-0.015662,0.00080052,,,0.58971,-63.8488060273,
73,10.1016/j.actamat.2015.04.023,4591,3(a),5859,x=0.0125,Mg2.9875Na0.0125Sb2,773.5,-0.015674,0.00080113,,,0.59034,-63.7999234401,
73,10.1016/j.actamat.2015.04.023,4591,3(a),5859,x=0.0125,Mg2.9875Na0.0125Sb2,774,-0.015686,0.00080174,,,0.59096,-63.7511156445,
73,10.1016/j.actamat.2015.04.023,4591,3(a),5859,x=0.0125,Mg2.9875Na0.0125Sb2,774.5,-0.015698,0.00080235,,,0.59158,-63.7023824691,
73,10.1016/j.actamat.2015.04.023,4591,3(a),5859,x=0.0125,Mg2.9875Na0.0125Sb2,775,-0.01571,0.00080295,,,0.5922,-63.6537237428,
73,10.1016/j.actamat.2015.04.023,4591,3(a),5859,x=0.0125,Mg2.9875Na0.0125Sb2,775.5,-0.015722,0.00080356,,,0.59283,-63.6051392953,
73,10.1016/j.actamat.2015.04.023,4591,3(a),5859,x=0.0125,Mg2.9875Na0.0125Sb2,776,-0.015734,0.00080417,,,0.59345,-63.5566289564,
73,10.1016/j.actamat.2015.04.023,4591,3(a),5859,x=0.0125,Mg2.9875Na0.0125Sb2,776.5,-0.015745,0.00080478,,,,-63.5122261035,
73,10.1016/j.actamat.2015.04.023,4592,3(b),5859,x=0.0125,Mg2.9875Na0.0125Sb2,297,0.000039234,,,,-0.0027604,25488.0970586736,
73,10.1016/j.actamat.2015.04.023,4592,3(b),5859,x=0.0125,Mg2.9875Na0.0125Sb2,297.5,0.00003924,0.00019264,0.000086943,1.7203,-0.002138,25484.1997961264,0.0001119805
73,10.1016/j.actamat.2015.04.023,4592,3(b),5859,x=0.0125,Mg2.9875Na0.0125Sb2,298,0.000039247,0.00019309,0.000087054,1.7194,-0.0015157,25479.654495885,0.0001123008
73,10.1016/j.actamat.2015.04.023,4592,3(b),5859,x=0.0125,Mg2.9875Na0.0125Sb2,298.5,0.000039253,0.00019356,0.000087165,1.7185,-0.00089331,25475.7598145365,0.0001126331
73,10.1016/j.actamat.2015.04.023,4592,3(b),5859,x=0.0125,Mg2.9875Na0.0125Sb2,299,0.00003926,0.00019402,0.000087277,1.7176,-0.00027096,25471.2175241977,0.0001129599
73,10.1016/j.actamat.2015.04.023,4594,3(d),5859,x=0.0125,Mg2.9875Na0.0125Sb2,777,,0.00080539,,,,,
73,10.1016/j.actamat.2015.04.023,4594,3(d),5859,x=0.0125,Mg2.9875Na0.0125Sb2,777.5,,0.00080599,,,,,
73,10.1016/j.actamat.2015.04.023,4594,3(d),5859,x=0.0125,Mg2.9875Na0.0125Sb2,778,,0.0008066,,,,,
73,10.1016/j.actamat.2015.04.023,4594,3(d),5859,x=0.0125,Mg2.9875Na0.0125Sb2,778.5,,0.00080721,,,,,
73,10.1016/j.actamat.2015.04.023,4594,3(d),5859,x=0.0125,Mg2.9875Na0.0125Sb2,779,,0.00080782,,,,,