sid,DOI,figureid,fignum,sampleid,samplename,composition,Temperature,Electrical resistivity,Power factor,Seebeck coefficient,Thermal conductivity,ZT,Electrical conductivity,Figure of merit Z
10954,10.1007/s11664-015-4303-6,5134,3(a),6471,x=0.9,Ca0.1Eu0.9Zn2Sb2,456,0.000014872,0.0013667,0.00014352,2.2149,0.31244,67240.4518558365,0.0006170482
10954,10.1007/s11664-015-4303-6,5134,3(a),6471,x=0.9,Ca0.1Eu0.9Zn2Sb2,456.5,0.000014885,0.0013674,0.00014362,2.2133,0.31326,67181.7265703729,0.0006178105
10954,10.1007/s11664-015-4303-6,5134,3(a),6471,x=0.9,Ca0.1Eu0.9Zn2Sb2,457,0.000014898,0.0013681,0.00014372,2.2117,0.31409,67123.1037723184,0.0006185739
10954,10.1007/s11664-015-4303-6,5134,3(a),6471,x=0.9,Ca0.1Eu0.9Zn2Sb2,457.5,0.000014911,0.0013688,0.00014382,2.2102,0.31491,67064.5831936155,0.0006193105
10954,10.1007/s11664-015-4303-6,5134,3(a),6471,x=0.9,Ca0.1Eu0.9Zn2Sb2,458,0.000014924,0.0013695,0.00014392,2.2086,0.31573,67006.1645671402,0.0006200761
10954,10.1007/s11664-015-4303-6,5134,3(a),6471,x=0.9,Ca0.1Eu0.9Zn2Sb2,458.5,0.000014936,0.0013702,0.00014402,2.207,0.31656,66952.3299410819,0.0006208428
10954,10.1007/s11664-015-4303-6,5134,3(a),6471,x=0.9,Ca0.1Eu0.9Zn2Sb2,459,0.000014949,0.0013709,0.00014411,2.2054,0.31738,66894.106629206,0.0006216106
10954,10.1007/s11664-015-4303-6,5134,3(a),6471,x=0.9,Ca0.1Eu0.9Zn2Sb2,459.5,0.000014962,0.0013716,0.00014421,2.2039,0.31821,66835.9844940516,0.0006223513
10954,10.1007/s11664-015-4303-6,5134,3(a),6471,x=0.9,Ca0.1Eu0.9Zn2Sb2,460,0.000014975,0.0013723,0.00014431,2.2023,0.31903,66777.9632721202,0.0006231213
10954,10.1007/s11664-015-4303-6,5134,3(a),6471,x=0.9,Ca0.1Eu0.9Zn2Sb2,460.5,0.000014988,0.001373,0.00014441,2.2007,0.31986,66720.0427008273,0.0006238924
10954,10.1007/s11664-015-4303-6,5134,3(a),6471,x=0.9,Ca0.1Eu0.9Zn2Sb2,461,0.000015001,0.0013737,0.00014451,2.1991,0.32068,66662.2225184988,0.0006246646
10954,10.1007/s11664-015-4303-6,5134,3(a),6471,x=0.9,Ca0.1Eu0.9Zn2Sb2,461.5,0.000015013,0.0013745,0.00014461,2.1975,0.3215,66608.938919603,0.0006254835
10954,10.1007/s11664-015-4303-6,5134,3(a),6471,x=0.9,Ca0.1Eu0.9Zn2Sb2,462,0.000015026,0.0013752,0.00014471,2.196,0.32233,66551.3110608279,0.0006262295
10954,10.1007/s11664-015-4303-6,5134,3(a),6471,x=0.9,Ca0.1Eu0.9Zn2Sb2,462.5,0.000015039,0.0013759,0.00014481,2.1944,0.32315,66493.7828313053,0.0006270051
10954,10.1007/s11664-015-4303-6,5134,3(a),6471,x=0.9,Ca0.1Eu0.9Zn2Sb2,463,0.000015052,0.0013766,0.0001449,2.1928,0.32398,66436.353972894,0.0006277818
10954,10.1007/s11664-015-4303-6,5134,3(a),6471,x=0.9,Ca0.1Eu0.9Zn2Sb2,463.5,0.000015065,0.0013773,0.000145,2.1912,0.3248,66379.0242283438,0.0006285597
10954,10.1007/s11664-015-4303-6,5134,3(a),6471,x=0.9,Ca0.1Eu0.9Zn2Sb2,464,0.000015078,0.001378,0.0001451,2.1896,0.32562,66321.793341292,0.0006293387
10954,10.1007/s11664-015-4303-6,5134,3(a),6471,x=0.9,Ca0.1Eu0.9Zn2Sb2,464.5,0.000015091,0.0013787,0.0001452,2.1881,0.32645,66264.6610562587,0.00063009
10954,10.1007/s11664-015-4303-6,5134,3(a),6471,x=0.9,Ca0.1Eu0.9Zn2Sb2,465,0.000015104,0.0013794,0.0001453,2.1865,0.32727,66207.6271186441,0.0006308713
10954,10.1007/s11664-015-4303-6,5134,3(a),6471,x=0.9,Ca0.1Eu0.9Zn2Sb2,465.5,0.000015117,0.0013801,0.0001454,2.1849,0.3281,66150.6912747238,0.0006316536
10954,10.1007/s11664-015-4303-6,5134,3(a),6471,x=0.9,Ca0.1Eu0.9Zn2Sb2,466,0.000015129,0.0013808,0.0001455,2.1833,0.32892,66098.2219578293,0.0006324371
10954,10.1007/s11664-015-4303-6,5134,3(a),6471,x=0.9,Ca0.1Eu0.9Zn2Sb2,466.5,0.000015142,0.0013815,0.0001456,2.1817,0.32974,66041.4740457007,0.0006332218
10954,10.1007/s11664-015-4303-6,5134,3(a),6471,x=0.9,Ca0.1Eu0.9Zn2Sb2,467,0.000015155,0.0013822,0.00014569,2.1802,0.33057,65984.8234905972,0.0006339785
10954,10.1007/s11664-015-4303-6,5134,3(a),6471,x=0.9,Ca0.1Eu0.9Zn2Sb2,467.5,0.000015168,0.0013829,0.00014579,2.1786,0.33139,65928.2700421941,0.0006347654
10954,10.1007/s11664-015-4303-6,5134,3(a),6471,x=0.9,Ca0.1Eu0.9Zn2Sb2,468,0.000015181,0.0013836,0.00014589,2.177,0.33222,65871.8134510243,0.0006355535
10954,10.1007/s11664-015-4303-6,5134,3(a),6471,x=0.9,Ca0.1Eu0.9Zn2Sb2,468.5,0.000015194,0.0013843,0.00014599,2.1754,0.33304,65815.4534684744,0.0006363427
10954,10.1007/s11664-015-4303-6,5134,3(a),6471,x=0.9,Ca0.1Eu0.9Zn2Sb2,469,0.000015207,0.001385,0.00014609,2.1739,0.33386,65759.1898467811,0.0006371038
10954,10.1007/s11664-015-4303-6,5134,3(a),6471,x=0.9,Ca0.1Eu0.9Zn2Sb2,469.5,0.00001522,0.0013857,0.00014619,2.1723,0.33469,65703.0223390276,0.0006378953
10954,10.1007/s11664-015-4303-6,5134,3(a),6471,x=0.9,Ca0.1Eu0.9Zn2Sb2,470,0.000015233,0.0013865,0.00014629,2.1707,0.33551,65646.95069914,0.000638734
10954,10.1007/s11664-015-4303-6,5134,3(a),6471,x=0.9,Ca0.1Eu0.9Zn2Sb2,470.5,0.000015246,0.0013872,0.00014639,2.1691,0.33634,65590.9746818838,0.0006395279
10954,10.1007/s11664-015-4303-6,5134,3(a),6471,x=0.9,Ca0.1Eu0.9Zn2Sb2,471,0.000015259,0.0013879,0.00014648,2.1675,0.33716,65535.0940428599,0.000640323
10954,10.1007/s11664-015-4303-6,5134,3(a),6471,x=0.9,Ca0.1Eu0.9Zn2Sb2,471.5,0.000015272,0.0013886,0.00014658,2.166,0.33799,65479.3085385018,0.0006410896
10954,10.1007/s11664-015-4303-6,5134,3(a),6471,x=0.9,Ca0.1Eu0.9Zn2Sb2,472,0.000015285,0.0013893,0.00014668,2.1644,0.33881,65423.6179260713,0.0006418869
10954,10.1007/s11664-015-4303-6,5134,3(a),6471,x=0.9,Ca0.1Eu0.9Zn2Sb2,472.5,0.000015298,0.00139,0.00014678,2.1628,0.33963,65368.0219636554,0.0006426854
10954,10.1007/s11664-015-4303-6,5134,3(a),6471,x=0.9,Ca0.1Eu0.9Zn2Sb2,473,0.000015311,0.0013907,0.00014688,2.1612,0.34046,65312.5204101626,0.0006434851
10954,10.1007/s11664-015-4303-6,5134,3(a),6471,x=0.9,Ca0.1Eu0.9Zn2Sb2,473.5,0.000015324,0.0013914,0.00014698,2.1596,0.34128,65257.1130253198,0.000644286
10954,10.1007/s11664-015-4303-6,5134,3(a),6471,x=0.9,Ca0.1Eu0.9Zn2Sb2,474,0.000015337,0.0013921,0.00014708,2.1581,0.34211,65201.7995696681,0.0006450582
10954,10.1007/s11664-015-4303-6,5134,3(a),6471,x=0.9,Ca0.1Eu0.9Zn2Sb2,474.5,0.00001535,0.0013928,0.00014718,2.1565,0.34293,65146.5798045603,0.0006458613
10954,10.1007/s11664-015-4303-6,5134,3(a),6471,x=0.9,Ca0.1Eu0.9Zn2Sb2,475,0.000015364,0.0013935,0.00014727,2.1549,0.34375,65087.2168706066,0.0006466657
10954,10.1007/s11664-015-4303-6,5134,3(a),6471,x=0.9,Ca0.1Eu0.9Zn2Sb2,475.5,0.000015377,0.0013942,0.00014737,2.1533,0.34458,65032.1909345126,0.0006474713
10954,10.1007/s11664-015-4303-6,5134,3(a),6471,x=0.9,Ca0.1Eu0.9Zn2Sb2,476,0.00001539,0.0013949,0.00014747,2.1518,0.3454,64977.2579597141,0.000648248
10954,10.1007/s11664-015-4303-6,5134,3(a),6471,x=0.9,Ca0.1Eu0.9Zn2Sb2,476.5,0.000015403,0.0013956,0.00014757,2.1502,0.34623,64922.4177108355,0.0006490559
10954,10.1007/s11664-015-4303-6,5134,3(a),6471,x=0.9,Ca0.1Eu0.9Zn2Sb2,477,0.000015416,0.0013963,0.00014767,2.1486,0.34705,64867.6699532953,0.000649865
10954,10.1007/s11664-015-4303-6,5134,3(a),6471,x=0.9,Ca0.1Eu0.9Zn2Sb2,477.5,0.000015429,0.001397,0.00014777,2.147,0.34787,64813.0144533022,0.0006506754
10954,10.1007/s11664-015-4303-6,5134,3(a),6471,x=0.9,Ca0.1Eu0.9Zn2Sb2,478,0.000015442,0.0013977,0.00014787,2.1454,0.3487,64758.4509778526,0.0006514869
10954,10.1007/s11664-015-4303-6,5134,3(a),6471,x=0.9,Ca0.1Eu0.9Zn2Sb2,478.5,0.000015455,0.0013985,0.00014797,2.1439,0.34952,64703.9792947266,0.0006523159
10954,10.1007/s11664-015-4303-6,5134,3(a),6471,x=0.9,Ca0.1Eu0.9Zn2Sb2,479,0.000015468,0.0013992,0.00014806,2.1423,0.35035,64649.5991724851,0.0006531298
10954,10.1007/s11664-015-4303-6,5134,3(a),6471,x=0.9,Ca0.1Eu0.9Zn2Sb2,479.5,0.000015482,0.0013999,0.00014816,2.1407,0.35117,64591.1380958533,0.000653945
10954,10.1007/s11664-015-4303-6,5134,3(a),6471,x=0.9,Ca0.1Eu0.9Zn2Sb2,480,0.000015495,0.0014006,0.00014826,2.1391,0.35199,64536.9474023879,0.0006547613
10954,10.1007/s11664-015-4303-6,5134,3(a),6471,x=0.9,Ca0.1Eu0.9Zn2Sb2,480.5,0.000015508,0.0014013,0.00014836,2.1375,0.35282,64482.8475625484,0.0006555789
10954,10.1007/s11664-015-4303-6,5134,3(a),6471,x=0.9,Ca0.1Eu0.9Zn2Sb2,481,0.000015521,0.001402,0.00014846,2.136,0.35364,64428.8383480446,0.000656367
10954,10.1007/s11664-015-4303-6,5134,3(a),6471,x=0.9,Ca0.1Eu0.9Zn2Sb2,481.5,0.000015534,0.0014027,0.00014856,2.1344,0.35447,64374.9195313506,0.000657187
10954,10.1007/s11664-015-4303-6,5134,3(a),6471,x=0.9,Ca0.1Eu0.9Zn2Sb2,482,0.000015547,0.0014034,0.00014866,2.1328,0.35529,64321.0908857014,0.0006580083
10954,10.1007/s11664-015-4303-6,5134,3(a),6471,x=0.9,Ca0.1Eu0.9Zn2Sb2,482.5,0.000015561,0.0014041,0.00014876,2.1312,0.35612,64263.222157959,0.0006588307
10954,10.1007/s11664-015-4303-6,5134,3(a),6471,x=0.9,Ca0.1Eu0.9Zn2Sb2,483,0.000015574,0.0014048,0.00014885,2.1296,0.35694,64209.5800693463,0.0006596544
10954,10.1007/s11664-015-4303-6,5134,3(a),6471,x=0.9,Ca0.1Eu0.9Zn2Sb2,483.5,0.000015587,0.0014055,0.00014895,2.1281,0.35776,64156.0274587798,0.0006604483
10954,10.1007/s11664-015-4303-6,5134,3(a),6471,x=0.9,Ca0.1Eu0.9Zn2Sb2,484,0.0000156,0.0014062,0.00014905,2.1265,0.35859,64102.5641025641,0.0006612744
10954,10.1007/s11664-015-4303-6,5134,3(a),6471,x=0.9,Ca0.1Eu0.9Zn2Sb2,484.5,0.000015613,0.0014069,0.00014915,2.1249,0.35941,64049.1897777493,0.0006621017
10954,10.1007/s11664-015-4303-6,5134,3(a),6471,x=0.9,Ca0.1Eu0.9Zn2Sb2,485,0.000015627,0.0014076,0.00014925,2.1233,0.36024,63991.8090484418,0.0006629303
10954,10.1007/s11664-015-4303-6,5134,3(a),6471,x=0.9,Ca0.1Eu0.9Zn2Sb2,485.5,0.00001564,0.0014083,0.00014935,2.1218,0.36106,63938.6189258312,0.0006637289
10954,10.1007/s11664-015-4303-6,5134,3(a),6471,x=0.9,Ca0.1Eu0.9Zn2Sb2,486,0.000015653,0.001409,0.00014945,2.1202,0.36188,63885.5171532614,0.0006645599
10954,10.1007/s11664-015-4303-6,5134,3(a),6471,x=0.9,Ca0.1Eu0.9Zn2Sb2,486.5,0.000015666,0.0014097,0.00014955,2.1186,0.36271,63832.5035107877,0.0006653922
10954,10.1007/s11664-015-4303-6,5134,3(a),6471,x=0.9,Ca0.1Eu0.9Zn2Sb2,487,0.00001568,0.0014105,0.00014964,2.117,0.36353,63775.5102040816,0.000666273
10954,10.1007/s11664-015-4303-6,5134,3(a),6471,x=0.9,Ca0.1Eu0.9Zn2Sb2,487.5,0.000015693,0.0014112,0.00014974,2.1154,0.36436,63722.678901421,0.0006671079
10954,10.1007/s11664-015-4303-6,5134,3(a),6471,x=0.9,Ca0.1Eu0.9Zn2Sb2,488,0.000015706,0.0014119,0.00014984,2.1139,0.36518,63669.9350566662,0.0006679124
10954,10.1007/s11664-015-4303-6,5134,3(a),6471,x=0.9,Ca0.1Eu0.9Zn2Sb2,488.5,0.000015719,0.0014126,0.00014994,2.1123,0.366,63617.2784528278,0.0006687497
10954,10.1007/s11664-015-4303-6,5134,3(a),6471,x=0.9,Ca0.1Eu0.9Zn2Sb2,489,0.000015733,0.0014133,0.00015004,2.1107,0.36683,63560.6686582343,0.0006695883
10954,10.1007/s11664-015-4303-6,5134,3(a),6471,x=0.9,Ca0.1Eu0.9Zn2Sb2,489.5,0.000015746,0.001414,0.00015014,2.1091,0.36765,63508.1925568398,0.0006704281
10954,10.1007/s11664-015-4303-6,5134,3(a),6471,x=0.9,Ca0.1Eu0.9Zn2Sb2,490,0.000015759,0.0014147,0.00015024,2.1075,0.36848,63455.8030331874,0.0006712693
10954,10.1007/s11664-015-4303-6,5134,3(a),6471,x=0.9,Ca0.1Eu0.9Zn2Sb2,490.5,0.000015773,0.0014154,0.00015034,2.106,0.3693,63399.480124263,0.0006720798
10954,10.1007/s11664-015-4303-6,5134,3(a),6471,x=0.9,Ca0.1Eu0.9Zn2Sb2,491,0.000015786,0.0014161,0.00015043,2.1044,0.37012,63347.2697326745,0.0006729234
10954,10.1007/s11664-015-4303-6,5134,3(a),6471,x=0.9,Ca0.1Eu0.9Zn2Sb2,491.5,0.000015799,0.0014168,0.00015053,2.1028,0.37095,63295.1452623584,0.0006737683
10954,10.1007/s11664-015-4303-6,5134,3(a),6471,x=0.9,Ca0.1Eu0.9Zn2Sb2,492,0.000015813,0.0014175,0.00015063,2.1012,0.37177,63239.1070638083,0.0006746145
10954,10.1007/s11664-015-4303-6,5134,3(a),6471,x=0.9,Ca0.1Eu0.9Zn2Sb2,492.5,0.000015826,0.0014182,0.00015073,2.0997,0.3726,63187.160369013,0.0006754298
10954,10.1007/s11664-015-4303-6,5134,3(a),6471,x=0.9,Ca0.1Eu0.9Zn2Sb2,493,0.000015839,0.0014189,0.00015083,2.0981,0.37342,63135.2989456405,0.0006762785
10954,10.1007/s11664-015-4303-6,5134,3(a),6471,x=0.9,Ca0.1Eu0.9Zn2Sb2,493.5,0.000015853,0.0014196,0.00015093,2.0965,0.37425,63079.5433041065,0.0006771285
10954,10.1007/s11664-015-4303-6,5134,3(a),6471,x=0.9,Ca0.1Eu0.9Zn2Sb2,494,0.000015866,0.0014203,0.00015103,2.0949,0.37507,63027.8583133745,0.0006779799
10954,10.1007/s11664-015-4303-6,5134,3(a),6471,x=0.9,Ca0.1Eu0.9Zn2Sb2,494.5,0.000015879,0.001421,0.00015113,2.0933,0.37589,62976.2579507526,0.0006788325
10954,10.1007/s11664-015-4303-6,5134,3(a),6471,x=0.9,Ca0.1Eu0.9Zn2Sb2,495,0.000015893,0.0014217,0.00015122,2.0918,0.37672,62920.7827345372,0.0006796539
10954,10.1007/s11664-015-4303-6,5134,3(a),6471,x=0.9,Ca0.1Eu0.9Zn2Sb2,495.5,0.000015906,0.0014225,0.00015132,2.0902,0.37754,62869.3574751666,0.0006805569
10954,10.1007/s11664-015-4303-6,5134,3(a),6471,x=0.9,Ca0.1Eu0.9Zn2Sb2,496,0.00001592,0.0014232,0.00015142,2.0886,0.37837,62814.0703517588,0.0006814134
10954,10.1007/s11664-015-4303-6,5134,3(a),6471,x=0.9,Ca0.1Eu0.9Zn2Sb2,496.5,0.000015933,0.0014239,0.00015152,2.087,0.37919,62762.8193058432,0.0006822712
10954,10.1007/s11664-015-4303-6,5134,3(a),6471,x=0.9,Ca0.1Eu0.9Zn2Sb2,497,0.000015946,0.0014246,0.00015162,2.0854,0.38001,62711.6518249091,0.0006831303
10954,10.1007/s11664-015-4303-6,5134,3(a),6471,x=0.9,Ca0.1Eu0.9Zn2Sb2,497.5,0.00001596,0.0014253,0.00015172,2.0839,0.38084,62656.64160401,0.000683958
10954,10.1007/s11664-015-4303-6,5134,3(a),6471,x=0.9,Ca0.1Eu0.9Zn2Sb2,498,0.000015973,0.001426,0.00015182,2.0823,0.38166,62605.647029362,0.0006848197
10954,10.1007/s11664-015-4303-6,5134,3(a),6471,x=0.9,Ca0.1Eu0.9Zn2Sb2,498.5,0.000015987,0.0014267,0.00015192,2.0807,0.38249,62550.8225433164,0.0006856827
10954,10.1007/s11664-015-4303-6,5134,3(a),6471,x=0.9,Ca0.1Eu0.9Zn2Sb2,499,0.000016,0.0014274,0.00015201,2.0791,0.38331,62500,0.0006865471
10954,10.1007/s11664-015-4303-6,5134,3(a),6471,x=0.9,Ca0.1Eu0.9Zn2Sb2,499.5,0.000016014,0.0014281,0.00015211,2.0775,0.38413,62445.360309729,0.0006874128
10954,10.1007/s11664-015-4303-6,5134,3(a),6471,x=0.9,Ca0.1Eu0.9Zn2Sb2,500,0.000016027,0.0014288,0.00015221,2.076,0.38496,62394.7089286828,0.0006882466
10954,10.1007/s11664-015-4303-6,5134,3(a),6471,x=0.9,Ca0.1Eu0.9Zn2Sb2,500.5,0.000016041,0.0014295,0.00015231,2.0744,0.38578,62340.2531014276,0.0006891149
10954,10.1007/s11664-015-4303-6,5134,3(a),6471,x=0.9,Ca0.1Eu0.9Zn2Sb2,501,0.000016054,0.0014302,0.00015241,2.0728,0.38661,62289.7720194344,0.0006899846
10954,10.1007/s11664-015-4303-6,5134,3(a),6471,x=0.9,Ca0.1Eu0.9Zn2Sb2,501.5,0.000016068,0.0014309,0.00015251,2.0712,0.38743,62235.499128703,0.0006908555
10954,10.1007/s11664-015-4303-6,5134,3(a),6471,x=0.9,Ca0.1Eu0.9Zn2Sb2,502,0.000016081,0.0014316,0.00015261,2.0697,0.38825,62185.1874883403,0.0006916944
10954,10.1007/s11664-015-4303-6,5134,3(a),6471,x=0.9,Ca0.1Eu0.9Zn2Sb2,502.5,0.000016095,0.0014323,0.00015271,2.0681,0.38908,62131.0966138552,0.0006925681
10954,10.1007/s11664-015-4303-6,5134,3(a),6471,x=0.9,Ca0.1Eu0.9Zn2Sb2,503,0.000016108,0.001433,0.0001528,2.0665,0.3899,62080.9535634467,0.000693443
10954,10.1007/s11664-015-4303-6,5134,3(a),6471,x=0.9,Ca0.1Eu0.9Zn2Sb2,503.5,0.000016122,0.0014337,0.0001529,2.0649,0.39073,62027.0437910929,0.0006943193
10954,10.1007/s11664-015-4303-6,5134,3(a),6471,x=0.9,Ca0.1Eu0.9Zn2Sb2,504,0.000016135,0.0014345,0.000153,2.0633,0.39155,61977.0684846607,0.0006952455
10954,10.1007/s11664-015-4303-6,5134,3(a),6471,x=0.9,Ca0.1Eu0.9Zn2Sb2,504.5,0.000016149,0.0014352,0.0001531,2.0618,0.39238,61923.3389064338,0.0006960908
10954,10.1007/s11664-015-4303-6,5134,3(a),6471,x=0.9,Ca0.1Eu0.9Zn2Sb2,505,0.000016162,0.0014359,0.0001532,2.0602,0.3932,61873.5305036505,0.0006969712
10954,10.1007/s11664-015-4303-6,5134,3(a),6471,x=0.9,Ca0.1Eu0.9Zn2Sb2,505.5,0.000016176,0.0014366,0.0001533,2.0586,0.39402,61819.9802176063,0.0006978529
10954,10.1007/s11664-015-4303-6,5134,3(a),6471,x=0.9,Ca0.1Eu0.9Zn2Sb2,506,0.000016189,0.0014373,0.0001534,2.057,0.39485,61770.3378837482,0.000698736
10954,10.1007/s11664-015-4303-6,5134,3(a),6471,x=0.9,Ca0.1Eu0.9Zn2Sb2,506.5,0.000016203,0.001438,0.0001535,2.0554,0.39567,61716.9659939517,0.0006996205
10954,10.1007/s11664-015-4303-6,5134,3(a),6471,x=0.9,Ca0.1Eu0.9Zn2Sb2,507,0.000016216,0.0014387,0.00015359,2.0539,0.3965,61667.488899852,0.0007004723
10954,10.1007/s11664-015-4303-6,5134,3(a),6471,x=0.9,Ca0.1Eu0.9Zn2Sb2,507.5,0.00001623,0.0014394,0.00015369,2.0523,0.39732,61614.2945163278,0.0007013595
10954,10.1007/s11664-015-4303-6,5134,3(a),6471,x=0.9,Ca0.1Eu0.9Zn2Sb2,508,0.000016244,0.0014401,0.00015379,2.0507,0.39814,61561.1918246737,0.000702248
10954,10.1007/s11664-015-4303-6,5134,3(a),6471,x=0.9,Ca0.1Eu0.9Zn2Sb2,508.5,0.000016257,0.0014408,0.00015389,2.0491,0.39897,61511.964077013,0.000703138
10954,10.1007/s11664-015-4303-6,5134,3(a),6471,x=0.9,Ca0.1Eu0.9Zn2Sb2,509,0.000016271,0.0014415,0.00015399,2.0476,0.39979,61459.0375514719,0.0007039949
10954,10.1007/s11664-015-4303-6,5134,3(a),6471,x=0.9,Ca0.1Eu0.9Zn2Sb2,509.5,0.000016284,0.0014422,0.00015409,2.046,0.40062,61409.9729796119,0.0007048876
10954,10.1007/s11664-015-4303-6,5134,3(a),6471,x=0.9,Ca0.1Eu0.9Zn2Sb2,510,0.000016298,0.0014429,0.00015419,2.0444,0.40144,61357.2217449994,0.0007057816
10954,10.1007/s11664-015-4303-6,5134,3(a),6471,x=0.9,Ca0.1Eu0.9Zn2Sb2,510.5,0.000016312,0.0014436,0.00015429,2.0428,0.40226,61304.5610593428,0.0007066771
10954,10.1007/s11664-015-4303-6,5134,3(a),6471,x=0.9,Ca0.1Eu0.9Zn2Sb2,511,0.000016325,0.0014443,0.00015438,2.0412,0.40309,61255.7427258805,0.000707574
10954,10.1007/s11664-015-4303-6,5134,3(a),6471,x=0.9,Ca0.1Eu0.9Zn2Sb2,511.5,0.000016339,0.001445,0.00015448,2.0397,0.40391,61203.2560132199,0.0007084375
10954,10.1007/s11664-015-4303-6,5134,3(a),6471,x=0.9,Ca0.1Eu0.9Zn2Sb2,512,0.000016353,0.0014457,0.00015458,2.0381,0.40474,61150.8591695713,0.0007093371
10954,10.1007/s11664-015-4303-6,5134,3(a),6471,x=0.9,Ca0.1Eu0.9Zn2Sb2,512.5,0.000016366,0.0014465,0.00015468,2.0365,0.40556,61102.2852254674,0.0007102873
10954,10.1007/s11664-015-4303-6,5134,3(a),6471,x=0.9,Ca0.1Eu0.9Zn2Sb2,513,0.00001638,0.0014472,0.00015478,2.0349,0.40638,61050.0610500611,0.0007111897
10954,10.1007/s11664-015-4303-6,5134,3(a),6471,x=0.9,Ca0.1Eu0.9Zn2Sb2,513.5,0.000016394,0.0014479,0.00015488,2.0333,0.40721,60997.9260705136,0.0007120936
10954,10.1007/s11664-015-4303-6,5134,3(a),6471,x=0.9,Ca0.1Eu0.9Zn2Sb2,514,0.000016407,0.0014486,0.00015498,2.0318,0.40803,60949.5946851953,0.0007129639
10954,10.1007/s11664-015-4303-6,5134,3(a),6471,x=0.9,Ca0.1Eu0.9Zn2Sb2,514.5,0.000016421,0.0014493,0.00015508,2.0302,0.40886,60897.6310821509,0.0007138706
10954,10.1007/s11664-015-4303-6,5134,3(a),6471,x=0.9,Ca0.1Eu0.9Zn2Sb2,515,0.000016435,0.00145,0.00015517,2.0286,0.40968,60845.7560085184,0.0007147787
10954,10.1007/s11664-015-4303-6,5134,3(a),6471,x=0.9,Ca0.1Eu0.9Zn2Sb2,515.5,0.000016448,0.0014507,0.00015527,2.027,0.41051,60797.6653696498,0.0007156882
10954,10.1007/s11664-015-4303-6,5134,3(a),6471,x=0.9,Ca0.1Eu0.9Zn2Sb2,516,0.000016462,0.0014514,0.00015537,2.0254,0.41133,60745.9603936338,0.0007165992
10954,10.1007/s11664-015-4303-6,5134,3(a),6471,x=0.9,Ca0.1Eu0.9Zn2Sb2,516.5,0.000016476,0.0014521,0.00015547,2.0239,0.41215,60694.3432872056,0.0007174762
10954,10.1007/s11664-015-4303-6,5134,3(a),6471,x=0.9,Ca0.1Eu0.9Zn2Sb2,517,0.00001649,0.0014528,0.00015557,2.0223,0.41298,60642.8138265616,0.00071839
10954,10.1007/s11664-015-4303-6,5134,3(a),6471,x=0.9,Ca0.1Eu0.9Zn2Sb2,517.5,0.000016503,0.0014535,0.00015567,2.0207,0.4138,60595.043325456,0.0007193052
10954,10.1007/s11664-015-4303-6,5134,3(a),6471,x=0.9,Ca0.1Eu0.9Zn2Sb2,518,0.000016517,0.0014542,0.00015577,2.0191,0.41463,60543.6822667555,0.0007202219
10954,10.1007/s11664-015-4303-6,5134,3(a),6471,x=0.9,Ca0.1Eu0.9Zn2Sb2,518.5,0.000016531,0.0014549,0.00015587,2.0176,0.41545,60492.4082027705,0.0007211043
10954,10.1007/s11664-015-4303-6,5134,3(a),6471,x=0.9,Ca0.1Eu0.9Zn2Sb2,519,0.000016545,0.0014556,0.00015596,2.016,0.41627,60441.2209126624,0.0007220238
10954,10.1007/s11664-015-4303-6,5134,3(a),6471,x=0.9,Ca0.1Eu0.9Zn2Sb2,519.5,0.000016558,0.0014563,0.00015606,2.0144,0.4171,60393.7673632081,0.0007229448
10954,10.1007/s11664-015-4303-6,5134,3(a),6471,x=0.9,Ca0.1Eu0.9Zn2Sb2,520,0.000016572,0.001457,0.00015616,2.0128,0.41792,60342.7468018344,0.0007238672
10954,10.1007/s11664-015-4303-6,5134,3(a),6471,x=0.9,Ca0.1Eu0.9Zn2Sb2,520.5,0.000016586,0.0014577,0.00015626,2.0112,0.41875,60291.8123718799,0.0007247912