sid,DOI,figureid,fignum,sampleid,samplename,composition,Temperature,Electrical resistivity,Power factor,Seebeck coefficient,Thermal conductivity,ZT,Electrical conductivity,Figure of merit Z
10954,10.1007/s11664-015-4303-6,5134,3(a),6468,x=0.1,Ca0.9Eu0.1Zn2Sb2,357,0.000016594,0.00086483,0.00012048,2.9846,0.090483,60262.7455706882,0.0002897641
10954,10.1007/s11664-015-4303-6,5134,3(a),6468,x=0.1,Ca0.9Eu0.1Zn2Sb2,357.5,0.000016609,0.0008654,0.00012057,2.9826,0.091011,60208.3207899332,0.0002901495
10954,10.1007/s11664-015-4303-6,5134,3(a),6468,x=0.1,Ca0.9Eu0.1Zn2Sb2,358,0.000016624,0.00086597,0.00012066,2.9807,0.091538,60153.9942252166,0.0002905257
10954,10.1007/s11664-015-4303-6,5134,3(a),6468,x=0.1,Ca0.9Eu0.1Zn2Sb2,358.5,0.000016639,0.00086653,0.00012076,2.9787,0.092066,60099.7656109141,0.0002909088
10954,10.1007/s11664-015-4303-6,5134,3(a),6468,x=0.1,Ca0.9Eu0.1Zn2Sb2,359,0.000016654,0.0008671,0.00012085,2.9768,0.092594,60045.6346823586,0.0002912859
10954,10.1007/s11664-015-4303-6,5134,3(a),6468,x=0.1,Ca0.9Eu0.1Zn2Sb2,359.5,0.00001667,0.00086767,0.00012094,2.9748,0.093121,59988.0023995201,0.0002916734
10954,10.1007/s11664-015-4303-6,5134,3(a),6468,x=0.1,Ca0.9Eu0.1Zn2Sb2,360,0.000016685,0.00086824,0.00012103,2.9729,0.093649,59934.0725202277,0.0002920515
10954,10.1007/s11664-015-4303-6,5134,3(a),6468,x=0.1,Ca0.9Eu0.1Zn2Sb2,360.5,0.0000167,0.00086881,0.00012112,2.9709,0.094177,59880.2395209581,0.00029244
10954,10.1007/s11664-015-4303-6,5134,3(a),6468,x=0.1,Ca0.9Eu0.1Zn2Sb2,361,0.000016715,0.00086938,0.00012122,2.969,0.094704,59826.5031408914,0.0002928191
10954,10.1007/s11664-015-4303-6,5134,3(a),6468,x=0.1,Ca0.9Eu0.1Zn2Sb2,361.5,0.00001673,0.00086994,0.00012131,2.967,0.095232,59772.8631201435,0.0002932053
10954,10.1007/s11664-015-4303-6,5134,3(a),6468,x=0.1,Ca0.9Eu0.1Zn2Sb2,362,0.000016745,0.00087051,0.0001214,2.965,0.09576,59719.3191997611,0.0002935953
10954,10.1007/s11664-015-4303-6,5134,3(a),6468,x=0.1,Ca0.9Eu0.1Zn2Sb2,362.5,0.00001676,0.00087108,0.00012149,2.9631,0.096287,59665.8711217184,0.0002939759
10954,10.1007/s11664-015-4303-6,5134,3(a),6468,x=0.1,Ca0.9Eu0.1Zn2Sb2,363,0.000016775,0.00087165,0.00012158,2.9611,0.096815,59612.5186289121,0.000294367
10954,10.1007/s11664-015-4303-6,5134,3(a),6468,x=0.1,Ca0.9Eu0.1Zn2Sb2,363.5,0.00001679,0.00087222,0.00012167,2.9592,0.097343,59559.2614651578,0.0002947486
10954,10.1007/s11664-015-4303-6,5134,3(a),6468,x=0.1,Ca0.9Eu0.1Zn2Sb2,364,0.000016806,0.00087278,0.00012177,2.9572,0.09787,59502.5586100202,0.0002951373
10954,10.1007/s11664-015-4303-6,5134,3(a),6468,x=0.1,Ca0.9Eu0.1Zn2Sb2,364.5,0.000016821,0.00087335,0.00012186,2.9553,0.098398,59449.4976517448,0.0002955199
10954,10.1007/s11664-015-4303-6,5134,3(a),6468,x=0.1,Ca0.9Eu0.1Zn2Sb2,365,0.000016836,0.00087392,0.00012195,2.9533,0.098926,59396.5312425754,0.000295913
10954,10.1007/s11664-015-4303-6,5134,3(a),6468,x=0.1,Ca0.9Eu0.1Zn2Sb2,365.5,0.000016851,0.00087449,0.00012204,2.9514,0.099453,59343.659130022,0.0002962967
10954,10.1007/s11664-015-4303-6,5134,3(a),6468,x=0.1,Ca0.9Eu0.1Zn2Sb2,366,0.000016866,0.00087506,0.00012213,2.9494,0.099981,59290.8810624926,0.0002966909
10954,10.1007/s11664-015-4303-6,5134,3(a),6468,x=0.1,Ca0.9Eu0.1Zn2Sb2,366.5,0.000016881,0.00087562,0.00012223,2.9475,0.10051,59238.1967892897,0.0002970721
10954,10.1007/s11664-015-4303-6,5134,3(a),6468,x=0.1,Ca0.9Eu0.1Zn2Sb2,367,0.000016896,0.00087619,0.00012232,2.9455,0.10104,59185.6060606061,0.0002974673
10954,10.1007/s11664-015-4303-6,5134,3(a),6468,x=0.1,Ca0.9Eu0.1Zn2Sb2,367.5,0.000016911,0.00087676,0.00012241,2.9436,0.10156,59133.1086275205,0.000297853
10954,10.1007/s11664-015-4303-6,5134,3(a),6468,x=0.1,Ca0.9Eu0.1Zn2Sb2,368,0.000016927,0.00087733,0.0001225,2.9416,0.10209,59077.2139185916,0.0002982493
10954,10.1007/s11664-015-4303-6,5134,3(a),6468,x=0.1,Ca0.9Eu0.1Zn2Sb2,368.5,0.000016942,0.0008779,0.00012259,2.9397,0.10262,59024.9085113918,0.0002986359
10954,10.1007/s11664-015-4303-6,5134,3(a),6468,x=0.1,Ca0.9Eu0.1Zn2Sb2,369,0.000016957,0.00087846,0.00012269,2.9377,0.10315,58972.6956419178,0.0002990299
10954,10.1007/s11664-015-4303-6,5134,3(a),6468,x=0.1,Ca0.9Eu0.1Zn2Sb2,369.5,0.000016972,0.00087903,0.00012278,2.9358,0.10367,58920.5750648126,0.0002994175
10954,10.1007/s11664-015-4303-6,5134,3(a),6468,x=0.1,Ca0.9Eu0.1Zn2Sb2,370,0.000016987,0.0008796,0.00012287,2.9338,0.1042,58868.546535586,0.0002998159
10954,10.1007/s11664-015-4303-6,5134,3(a),6468,x=0.1,Ca0.9Eu0.1Zn2Sb2,370.5,0.000017002,0.00088017,0.00012296,2.9319,0.10473,58816.6098106105,0.0003002046
10954,10.1007/s11664-015-4303-6,5134,3(a),6468,x=0.1,Ca0.9Eu0.1Zn2Sb2,371,0.000017017,0.00088074,0.00012305,2.9299,0.10526,58764.7646471176,0.0003006041
10954,10.1007/s11664-015-4303-6,5134,3(a),6468,x=0.1,Ca0.9Eu0.1Zn2Sb2,371.5,0.000017032,0.0008813,0.00012315,2.9279,0.10579,58713.010803194,0.0003010007
10954,10.1007/s11664-015-4303-6,5134,3(a),6468,x=0.1,Ca0.9Eu0.1Zn2Sb2,372,0.000017047,0.00088187,0.00012324,2.926,0.10631,58661.3480377779,0.000301391
10954,10.1007/s11664-015-4303-6,5134,3(a),6468,x=0.1,Ca0.9Eu0.1Zn2Sb2,372.5,0.000017063,0.00088244,0.00012333,2.924,0.10684,58606.3412061185,0.0003017921
10954,10.1007/s11664-015-4303-6,5134,3(a),6468,x=0.1,Ca0.9Eu0.1Zn2Sb2,373,0.000017078,0.00088301,0.00012342,2.9221,0.10737,58554.8659093571,0.0003021834
10954,10.1007/s11664-015-4303-6,5134,3(a),6468,x=0.1,Ca0.9Eu0.1Zn2Sb2,373.5,0.000017093,0.00088358,0.00012351,2.9201,0.1079,58503.4809571169,0.0003025855
10954,10.1007/s11664-015-4303-6,5134,3(a),6468,x=0.1,Ca0.9Eu0.1Zn2Sb2,374,0.000017108,0.00088414,0.0001236,2.9182,0.10842,58452.1861117606,0.0003029744
10954,10.1007/s11664-015-4303-6,5134,3(a),6468,x=0.1,Ca0.9Eu0.1Zn2Sb2,374.5,0.000017123,0.00088471,0.0001237,2.9162,0.10895,58400.9811364831,0.0003033777
10954,10.1007/s11664-015-4303-6,5134,3(a),6468,x=0.1,Ca0.9Eu0.1Zn2Sb2,375,0.000017138,0.00088528,0.00012379,2.9143,0.10948,58349.8657953087,0.0003037711
10954,10.1007/s11664-015-4303-6,5134,3(a),6468,x=0.1,Ca0.9Eu0.1Zn2Sb2,375.5,0.000017153,0.00088585,0.00012388,2.9123,0.11001,58298.8398530869,0.0003041754
10954,10.1007/s11664-015-4303-6,5134,3(a),6468,x=0.1,Ca0.9Eu0.1Zn2Sb2,376,0.000017168,0.00088642,0.00012397,2.9104,0.11053,58247.9030754893,0.0003045698
10954,10.1007/s11664-015-4303-6,5134,3(a),6468,x=0.1,Ca0.9Eu0.1Zn2Sb2,376.5,0.000017184,0.00088698,0.00012406,2.9084,0.11106,58193.6685288641,0.0003049718
10954,10.1007/s11664-015-4303-6,5134,3(a),6468,x=0.1,Ca0.9Eu0.1Zn2Sb2,377,0.000017199,0.00088755,0.00012416,2.9065,0.11159,58142.9152857724,0.0003053673
10954,10.1007/s11664-015-4303-6,5134,3(a),6468,x=0.1,Ca0.9Eu0.1Zn2Sb2,377.5,0.000017214,0.00088812,0.00012425,2.9045,0.11212,58092.2504937841,0.0003057738
10954,10.1007/s11664-015-4303-6,5134,3(a),6468,x=0.1,Ca0.9Eu0.1Zn2Sb2,378,0.000017229,0.00088869,0.00012434,2.9026,0.11264,58041.6739218759,0.0003061703
10954,10.1007/s11664-015-4303-6,5134,3(a),6468,x=0.1,Ca0.9Eu0.1Zn2Sb2,378.5,0.000017244,0.00088926,0.00012443,2.9006,0.11317,57991.1853398283,0.0003065779
10954,10.1007/s11664-015-4303-6,5134,3(a),6468,x=0.1,Ca0.9Eu0.1Zn2Sb2,379,0.000017259,0.00088982,0.00012452,2.8987,0.1137,57940.7845182224,0.0003069721
10954,10.1007/s11664-015-4303-6,5134,3(a),6468,x=0.1,Ca0.9Eu0.1Zn2Sb2,379.5,0.000017274,0.00089039,0.00012462,2.8967,0.11423,57890.4712284358,0.0003073808
10954,10.1007/s11664-015-4303-6,5134,3(a),6468,x=0.1,Ca0.9Eu0.1Zn2Sb2,380,0.000017289,0.00089096,0.00012471,2.8948,0.11476,57840.2452426398,0.0003077795
10954,10.1007/s11664-015-4303-6,5134,3(a),6468,x=0.1,Ca0.9Eu0.1Zn2Sb2,380.5,0.000017304,0.00089153,0.0001248,2.8928,0.11528,57790.1063337957,0.0003081893
10954,10.1007/s11664-015-4303-6,5134,3(a),6468,x=0.1,Ca0.9Eu0.1Zn2Sb2,381,0.00001732,0.0008921,0.00012489,2.8909,0.11581,57736.7205542725,0.000308589
10954,10.1007/s11664-015-4303-6,5134,3(a),6468,x=0.1,Ca0.9Eu0.1Zn2Sb2,381.5,0.000017335,0.00089267,0.00012498,2.8889,0.11634,57686.7608883761,0.000309
10954,10.1007/s11664-015-4303-6,5134,3(a),6468,x=0.1,Ca0.9Eu0.1Zn2Sb2,382,0.00001735,0.00089323,0.00012508,2.8869,0.11687,57636.8876080692,0.000309408
10954,10.1007/s11664-015-4303-6,5134,3(a),6468,x=0.1,Ca0.9Eu0.1Zn2Sb2,382.5,0.000017365,0.0008938,0.00012517,2.885,0.11739,57587.1004894904,0.0003098094
10954,10.1007/s11664-015-4303-6,5134,3(a),6468,x=0.1,Ca0.9Eu0.1Zn2Sb2,383,0.00001738,0.00089437,0.00012526,2.883,0.11792,57537.3993095512,0.000310222
10954,10.1007/s11664-015-4303-6,5134,3(a),6468,x=0.1,Ca0.9Eu0.1Zn2Sb2,383.5,0.000017395,0.00089494,0.00012535,2.8811,0.11845,57487.7838459327,0.0003106244
10954,10.1007/s11664-015-4303-6,5134,3(a),6468,x=0.1,Ca0.9Eu0.1Zn2Sb2,384,0.00001741,0.00089551,0.00012544,2.8791,0.11898,57438.2538770821,0.0003110382
10954,10.1007/s11664-015-4303-6,5134,3(a),6468,x=0.1,Ca0.9Eu0.1Zn2Sb2,384.5,0.000017425,0.00089607,0.00012553,2.8772,0.1195,57388.8091822095,0.0003114382
10954,10.1007/s11664-015-4303-6,5134,3(a),6468,x=0.1,Ca0.9Eu0.1Zn2Sb2,385,0.000017441,0.00089664,0.00012563,2.8752,0.12003,57336.1619173213,0.0003118531
10954,10.1007/s11664-015-4303-6,5134,3(a),6468,x=0.1,Ca0.9Eu0.1Zn2Sb2,385.5,0.000017456,0.00089721,0.00012572,2.8733,0.12056,57286.8927589368,0.0003122577
10954,10.1007/s11664-015-4303-6,5134,3(a),6468,x=0.1,Ca0.9Eu0.1Zn2Sb2,386,0.000017471,0.00089778,0.00012581,2.8713,0.12109,57237.7082021636,0.0003126737
10954,10.1007/s11664-015-4303-6,5134,3(a),6468,x=0.1,Ca0.9Eu0.1Zn2Sb2,386.5,0.000017486,0.00089835,0.0001259,2.8694,0.12161,57188.6080292806,0.0003130794
10954,10.1007/s11664-015-4303-6,5134,3(a),6468,x=0.1,Ca0.9Eu0.1Zn2Sb2,387,0.000017501,0.00089891,0.00012599,2.8674,0.12214,57139.592023313,0.0003134931
10954,10.1007/s11664-015-4303-6,5134,3(a),6468,x=0.1,Ca0.9Eu0.1Zn2Sb2,387.5,0.000017516,0.00089948,0.00012609,2.8655,0.12267,57090.6599680292,0.0003138998
10954,10.1007/s11664-015-4303-6,5134,3(a),6468,x=0.1,Ca0.9Eu0.1Zn2Sb2,388,0.000017531,0.00090005,0.00012618,2.8635,0.1232,57041.8116479379,0.0003143181
10954,10.1007/s11664-015-4303-6,5134,3(a),6468,x=0.1,Ca0.9Eu0.1Zn2Sb2,388.5,0.000017546,0.00090062,0.00012627,2.8616,0.12373,56993.0468482845,0.000314726
10954,10.1007/s11664-015-4303-6,5134,3(a),6468,x=0.1,Ca0.9Eu0.1Zn2Sb2,389,0.000017562,0.00090119,0.00012636,2.8596,0.12425,56941.1228789432,0.0003151455
10954,10.1007/s11664-015-4303-6,5134,3(a),6468,x=0.1,Ca0.9Eu0.1Zn2Sb2,389.5,0.000017577,0.00090175,0.00012645,2.8577,0.12478,56892.5300108096,0.000315551
10954,10.1007/s11664-015-4303-6,5134,3(a),6468,x=0.1,Ca0.9Eu0.1Zn2Sb2,390,0.000017592,0.00090232,0.00012655,2.8557,0.12531,56844.020009095,0.0003159716
10954,10.1007/s11664-015-4303-6,5134,3(a),6468,x=0.1,Ca0.9Eu0.1Zn2Sb2,390.5,0.000017607,0.00090289,0.00012664,2.8538,0.12584,56795.5926620094,0.0003163817
10954,10.1007/s11664-015-4303-6,5134,3(a),6468,x=0.1,Ca0.9Eu0.1Zn2Sb2,391,0.000017622,0.00090346,0.00012673,2.8518,0.12636,56747.2477584837,0.0003168034
10954,10.1007/s11664-015-4303-6,5134,3(a),6468,x=0.1,Ca0.9Eu0.1Zn2Sb2,391.5,0.000017637,0.00090403,0.00012682,2.8499,0.12689,56698.9850881669,0.0003172146
10954,10.1007/s11664-015-4303-6,5134,3(a),6468,x=0.1,Ca0.9Eu0.1Zn2Sb2,392,0.000017652,0.00090459,0.00012691,2.8479,0.12742,56650.8044414231,0.000317634
10954,10.1007/s11664-015-4303-6,5134,3(a),6468,x=0.1,Ca0.9Eu0.1Zn2Sb2,392.5,0.000017667,0.00090516,0.00012701,2.8459,0.12795,56602.7056093281,0.0003180576
10954,10.1007/s11664-015-4303-6,5134,3(a),6468,x=0.1,Ca0.9Eu0.1Zn2Sb2,393,0.000017682,0.00090573,0.0001271,2.844,0.12847,56554.688383667,0.0003184705
10954,10.1007/s11664-015-4303-6,5134,3(a),6468,x=0.1,Ca0.9Eu0.1Zn2Sb2,393.5,0.000017698,0.0009063,0.00012719,2.842,0.129,56503.5597242626,0.0003188951
10954,10.1007/s11664-015-4303-6,5134,3(a),6468,x=0.1,Ca0.9Eu0.1Zn2Sb2,394,0.000017713,0.00090687,0.00012728,2.8401,0.12953,56455.7104951166,0.0003193092
10954,10.1007/s11664-015-4303-6,5134,3(a),6468,x=0.1,Ca0.9Eu0.1Zn2Sb2,394.5,0.000017728,0.00090743,0.00012737,2.8381,0.13006,56407.9422382671,0.0003197315
10954,10.1007/s11664-015-4303-6,5134,3(a),6468,x=0.1,Ca0.9Eu0.1Zn2Sb2,395,0.000017743,0.000908,0.00012746,2.8362,0.13058,56360.2547483515,0.0003201467
10954,10.1007/s11664-015-4303-6,5134,3(a),6468,x=0.1,Ca0.9Eu0.1Zn2Sb2,395.5,0.000017758,0.00090857,0.00012756,2.8342,0.13111,56312.6478207005,0.0003205737
10954,10.1007/s11664-015-4303-6,5134,3(a),6468,x=0.1,Ca0.9Eu0.1Zn2Sb2,396,0.000017773,0.00090914,0.00012765,2.8323,0.13164,56265.1212513363,0.00032099
10954,10.1007/s11664-015-4303-6,5134,3(a),6468,x=0.1,Ca0.9Eu0.1Zn2Sb2,396.5,0.000017788,0.00090971,0.00012774,2.8303,0.13217,56217.6748369687,0.0003214182
10954,10.1007/s11664-015-4303-6,5134,3(a),6468,x=0.1,Ca0.9Eu0.1Zn2Sb2,397,0.000017803,0.00091027,0.00012783,2.8284,0.1327,56170.308374993,0.0003218321
10954,10.1007/s11664-015-4303-6,5134,3(a),6468,x=0.1,Ca0.9Eu0.1Zn2Sb2,397.5,0.000017819,0.00091084,0.00012792,2.8264,0.13322,56119.8720466917,0.0003222615
10954,10.1007/s11664-015-4303-6,5134,3(a),6468,x=0.1,Ca0.9Eu0.1Zn2Sb2,398,0.000017834,0.00091141,0.00012802,2.8245,0.13375,56072.670180554,0.0003226801
10954,10.1007/s11664-015-4303-6,5134,3(a),6468,x=0.1,Ca0.9Eu0.1Zn2Sb2,398.5,0.000017849,0.00091198,0.00012811,2.8225,0.13428,56025.5476497283,0.0003231107
10954,10.1007/s11664-015-4303-6,5134,3(a),6468,x=0.1,Ca0.9Eu0.1Zn2Sb2,399,0.000017864,0.00091255,0.0001282,2.8206,0.13481,55978.5042543663,0.0003235305
10954,10.1007/s11664-015-4303-6,5134,3(a),6468,x=0.1,Ca0.9Eu0.1Zn2Sb2,399.5,0.000017879,0.00091312,0.00012829,2.8186,0.13533,55931.5397952906,0.0003239623
10954,10.1007/s11664-015-4303-6,5134,3(a),6468,x=0.1,Ca0.9Eu0.1Zn2Sb2,400,0.000017894,0.00091368,0.00012838,2.8167,0.13586,55884.6540739913,0.0003243796
10954,10.1007/s11664-015-4303-6,5134,3(a),6468,x=0.1,Ca0.9Eu0.1Zn2Sb2,400.5,0.000017909,0.00091425,0.00012848,2.8147,0.13639,55837.8468926238,0.0003248126
10954,10.1007/s11664-015-4303-6,5134,3(a),6468,x=0.1,Ca0.9Eu0.1Zn2Sb2,401,0.000017924,0.00091482,0.00012857,2.8128,0.13692,55791.1180540058,0.0003252346
10954,10.1007/s11664-015-4303-6,5134,3(a),6468,x=0.1,Ca0.9Eu0.1Zn2Sb2,401.5,0.000017939,0.00091539,0.00012866,2.8108,0.13744,55744.4673616144,0.0003256688
10954,10.1007/s11664-015-4303-6,5134,3(a),6468,x=0.1,Ca0.9Eu0.1Zn2Sb2,402,0.000017955,0.00091596,0.00012875,2.8088,0.13797,55694.7925368978,0.0003261037
10954,10.1007/s11664-015-4303-6,5134,3(a),6468,x=0.1,Ca0.9Eu0.1Zn2Sb2,402.5,0.00001797,0.00091652,0.00012884,2.8069,0.1385,55648.3027267668,0.0003265239
10954,10.1007/s11664-015-4303-6,5134,3(a),6468,x=0.1,Ca0.9Eu0.1Zn2Sb2,403,0.000017985,0.00091709,0.00012894,2.8049,0.13903,55601.8904642758,0.00032696
10954,10.1007/s11664-015-4303-6,5134,3(a),6468,x=0.1,Ca0.9Eu0.1Zn2Sb2,403.5,0.000018,0.00091766,0.00012903,2.803,0.13956,55555.5555555556,0.0003273849
10954,10.1007/s11664-015-4303-6,5134,3(a),6468,x=0.1,Ca0.9Eu0.1Zn2Sb2,404,0.000018015,0.00091823,0.00012912,2.801,0.14008,55509.2978073827,0.0003278222
10954,10.1007/s11664-015-4303-6,5134,3(a),6468,x=0.1,Ca0.9Eu0.1Zn2Sb2,404.5,0.00001803,0.0009188,0.00012921,2.7991,0.14061,55463.1170271769,0.0003282484
10954,10.1007/s11664-015-4303-6,5134,3(a),6468,x=0.1,Ca0.9Eu0.1Zn2Sb2,405,0.000018045,0.00091936,0.0001293,2.7971,0.14114,55417.0130229981,0.0003286833
10954,10.1007/s11664-015-4303-6,5134,3(a),6468,x=0.1,Ca0.9Eu0.1Zn2Sb2,405.5,0.00001806,0.00091993,0.00012939,2.7952,0.14167,55370.9856035437,0.0003291106
10954,10.1007/s11664-015-4303-6,5134,3(a),6468,x=0.1,Ca0.9Eu0.1Zn2Sb2,406,0.000018076,0.0009205,0.00012949,2.7932,0.14219,55321.9738880283,0.0003295503
10954,10.1007/s11664-015-4303-6,5134,3(a),6468,x=0.1,Ca0.9Eu0.1Zn2Sb2,406.5,0.000018091,0.00092107,0.00012958,2.7913,0.14272,55276.1041401802,0.0003299789
10954,10.1007/s11664-015-4303-6,5134,3(a),6468,x=0.1,Ca0.9Eu0.1Zn2Sb2,407,0.000018106,0.00092164,0.00012967,2.7893,0.14325,55230.3103943444,0.0003304198
10954,10.1007/s11664-015-4303-6,5134,3(a),6468,x=0.1,Ca0.9Eu0.1Zn2Sb2,407.5,0.000018121,0.0009222,0.00012976,2.7874,0.14378,55184.5924617847,0.0003308459
10954,10.1007/s11664-015-4303-6,5134,3(a),6468,x=0.1,Ca0.9Eu0.1Zn2Sb2,408,0.000018136,0.00092277,0.00012985,2.7854,0.1443,55138.9501543891,0.0003312881
10954,10.1007/s11664-015-4303-6,5134,3(a),6468,x=0.1,Ca0.9Eu0.1Zn2Sb2,408.5,0.000018151,0.00092334,0.00012995,2.7835,0.14483,55093.3832846675,0.0003317191
10954,10.1007/s11664-015-4303-6,5134,3(a),6468,x=0.1,Ca0.9Eu0.1Zn2Sb2,409,0.000018166,0.00092391,0.00013004,2.7815,0.14536,55047.8916657492,0.0003321625
10954,10.1007/s11664-015-4303-6,5134,3(a),6468,x=0.1,Ca0.9Eu0.1Zn2Sb2,409.5,0.000018181,0.00092448,0.00013013,2.7796,0.14589,55002.47511138,0.0003325946
10954,10.1007/s11664-015-4303-6,5134,3(a),6468,x=0.1,Ca0.9Eu0.1Zn2Sb2,410,0.000018197,0.00092504,0.00013022,2.7776,0.14641,54954.1133153817,0.0003330357
10954,10.1007/s11664-015-4303-6,5134,3(a),6468,x=0.1,Ca0.9Eu0.1Zn2Sb2,410.5,0.000018212,0.00092561,0.00013031,2.7757,0.14694,54908.8513068307,0.000333469
10954,10.1007/s11664-015-4303-6,5134,3(a),6468,x=0.1,Ca0.9Eu0.1Zn2Sb2,411,0.000018227,0.00092618,0.00013041,2.7737,0.14747,54863.6637954683,0.000333915
10954,10.1007/s11664-015-4303-6,5134,3(a),6468,x=0.1,Ca0.9Eu0.1Zn2Sb2,411.5,0.000018242,0.00092675,0.0001305,2.7718,0.148,54818.5505975222,0.0003343495
10954,10.1007/s11664-015-4303-6,5134,3(a),6468,x=0.1,Ca0.9Eu0.1Zn2Sb2,412,0.000018257,0.00092732,0.00013059,2.7698,0.14853,54773.5115298242,0.0003347967
10954,10.1007/s11664-015-4303-6,5134,3(a),6468,x=0.1,Ca0.9Eu0.1Zn2Sb2,412.5,0.000018272,0.00092788,0.00013068,2.7678,0.14905,54728.5464098074,0.000335241
10954,10.1007/s11664-015-4303-6,5134,3(a),6468,x=0.1,Ca0.9Eu0.1Zn2Sb2,413,0.000018287,0.00092845,0.00013077,2.7659,0.14958,54683.6550555039,0.0003356774
10954,10.1007/s11664-015-4303-6,5134,3(a),6468,x=0.1,Ca0.9Eu0.1Zn2Sb2,413.5,0.000018302,0.00092902,0.00013087,2.7639,0.15011,54638.8372855426,0.0003361265
10954,10.1007/s11664-015-4303-6,5134,3(a),6468,x=0.1,Ca0.9Eu0.1Zn2Sb2,414,0.000018317,0.00092959,0.00013096,2.762,0.15064,54594.0929191461,0.0003365641
10954,10.1007/s11664-015-4303-6,5134,3(a),6468,x=0.1,Ca0.9Eu0.1Zn2Sb2,414.5,0.000018333,0.00093016,0.00013105,2.76,0.15116,54546.4462990236,0.0003370145
10954,10.1007/s11664-015-4303-6,5134,3(a),6468,x=0.1,Ca0.9Eu0.1Zn2Sb2,415,0.000018348,0.00093072,0.00013114,2.7581,0.15169,54501.8530630041,0.0003374497
10954,10.1007/s11664-015-4303-6,5134,3(a),6468,x=0.1,Ca0.9Eu0.1Zn2Sb2,415.5,0.000018363,0.00093129,0.00013123,2.7561,0.15222,54457.3326798453,0.0003379014
10954,10.1007/s11664-015-4303-6,5134,3(a),6468,x=0.1,Ca0.9Eu0.1Zn2Sb2,416,0.000018378,0.00093186,0.00013132,2.7542,0.15275,54412.8849711612,0.0003383414
10954,10.1007/s11664-015-4303-6,5134,3(a),6468,x=0.1,Ca0.9Eu0.1Zn2Sb2,416.5,0.000018393,0.00093243,0.00013142,2.7522,0.15327,54368.5097591475,0.0003387944
10954,10.1007/s11664-015-4303-6,5134,3(a),6468,x=0.1,Ca0.9Eu0.1Zn2Sb2,417,0.000018408,0.000933,0.00013151,2.7503,0.1538,54324.2068665797,0.0003392357
10954,10.1007/s11664-015-4303-6,5134,3(a),6468,x=0.1,Ca0.9Eu0.1Zn2Sb2,417.5,0.000018423,0.00093356,0.0001316,2.7483,0.15433,54279.9761168105,0.0003396864
10954,10.1007/s11664-015-4303-6,5134,3(a),6468,x=0.1,Ca0.9Eu0.1Zn2Sb2,418,0.000018438,0.00093413,0.00013169,2.7464,0.15486,54235.8173337672,0.0003401289
10954,10.1007/s11664-015-4303-6,5134,3(a),6468,x=0.1,Ca0.9Eu0.1Zn2Sb2,418.5,0.000018454,0.0009347,0.00013178,2.7444,0.15538,54188.793757451,0.0003405845
10954,10.1007/s11664-015-4303-6,5134,3(a),6468,x=0.1,Ca0.9Eu0.1Zn2Sb2,419,0.000018469,0.00093527,0.00013188,2.7425,0.15591,54144.7831501435,0.0003410283
10954,10.1007/s11664-015-4303-6,5134,3(a),6468,x=0.1,Ca0.9Eu0.1Zn2Sb2,419.5,0.000018484,0.00093584,0.00013197,2.7405,0.15644,54100.843973166,0.0003414851
10954,10.1007/s11664-015-4303-6,5134,3(a),6468,x=0.1,Ca0.9Eu0.1Zn2Sb2,420,0.000018499,0.00093641,0.00013206,2.7386,0.15697,54056.9760527596,0.0003419302
10954,10.1007/s11664-015-4303-6,5134,3(a),6468,x=0.1,Ca0.9Eu0.1Zn2Sb2,420.5,0.000018514,0.00093697,0.00013215,2.7366,0.1575,54013.1792157286,0.0003423847
10954,10.1007/s11664-015-4303-6,5134,3(a),6468,x=0.1,Ca0.9Eu0.1Zn2Sb2,421,0.000018529,0.00093754,0.00013224,2.7347,0.15802,53969.4532894382,0.000342831