sid,DOI,figureid,fignum,sampleid,samplename,composition,Temperature,Electrical resistivity,Power factor,Seebeck coefficient,Thermal conductivity,ZT,Electrical conductivity,Figure of merit Z
73,10.1016/j.actamat.2015.04.023,4591,3(a),5860,x=0.025,Mg2.975Na0.025Sb2,420,0.000027133,0.00037296,0.000093786,1.7662,0.12539,36855.4896251797,0.0002111652
73,10.1016/j.actamat.2015.04.023,4591,3(a),5860,x=0.025,Mg2.975Na0.025Sb2,420.5,0.000027138,0.00037356,0.000093875,1.7652,0.12589,36848.6992409168,0.0002116247
73,10.1016/j.actamat.2015.04.023,4591,3(a),5860,x=0.025,Mg2.975Na0.025Sb2,421,0.000027144,0.00037415,0.000093965,1.7642,0.12639,36840.5540819334,0.0002120791
73,10.1016/j.actamat.2015.04.023,4591,3(a),5860,x=0.025,Mg2.975Na0.025Sb2,421.5,0.000027149,0.00037475,0.000094054,1.7632,0.12689,36833.7691996022,0.0002125397
73,10.1016/j.actamat.2015.04.023,4591,3(a),5860,x=0.025,Mg2.975Na0.025Sb2,422,0.000027154,0.00037535,0.000094143,1.7622,0.12738,36826.9868159387,0.0002130008
73,10.1016/j.actamat.2015.04.023,4591,3(a),5860,x=0.025,Mg2.975Na0.025Sb2,422.5,0.000027159,0.00037594,0.000094233,1.7612,0.12788,36820.2069295629,0.0002134567
73,10.1016/j.actamat.2015.04.023,4591,3(a),5860,x=0.025,Mg2.975Na0.025Sb2,423,0.000027164,0.00037654,0.000094322,1.7603,0.12838,36813.4295390959,0.0002139067
73,10.1016/j.actamat.2015.04.023,4591,3(a),5860,x=0.025,Mg2.975Na0.025Sb2,423.5,0.000027169,0.00037714,0.000094412,1.7593,0.12888,36806.6546431595,0.0002143694
73,10.1016/j.actamat.2015.04.023,4591,3(a),5860,x=0.025,Mg2.975Na0.025Sb2,424,0.000027174,0.00037773,0.000094501,1.7583,0.12937,36799.8822403768,0.0002148268
73,10.1016/j.actamat.2015.04.023,4591,3(a),5860,x=0.025,Mg2.975Na0.025Sb2,424.5,0.000027179,0.00037833,0.000094591,1.7573,0.12987,36793.1123293719,0.0002152905
73,10.1016/j.actamat.2015.04.023,4591,3(a),5860,x=0.025,Mg2.975Na0.025Sb2,425,0.000027185,0.00037892,0.00009468,1.7563,0.13037,36784.9917233769,0.000215749
73,10.1016/j.actamat.2015.04.023,4591,3(a),5860,x=0.025,Mg2.975Na0.025Sb2,425.5,0.00002719,0.00037952,0.00009477,1.7554,0.13087,36778.2272894447,0.0002162014
73,10.1016/j.actamat.2015.04.023,4591,3(a),5860,x=0.025,Mg2.975Na0.025Sb2,426,0.000027195,0.00038012,0.000094859,1.7544,0.13136,36771.4653428939,0.0002166667
73,10.1016/j.actamat.2015.04.023,4591,3(a),5860,x=0.025,Mg2.975Na0.025Sb2,426.5,0.0000272,0.00038071,0.000094949,1.7534,0.13186,36764.7058823529,0.0002171267
73,10.1016/j.actamat.2015.04.023,4591,3(a),5860,x=0.025,Mg2.975Na0.025Sb2,427,0.000027205,0.00038131,0.000095038,1.7524,0.13236,36757.948906451,0.000217593
73,10.1016/j.actamat.2015.04.023,4591,3(a),5860,x=0.025,Mg2.975Na0.025Sb2,427.5,0.00002721,0.00038191,0.000095128,1.7514,0.13286,36751.1944138184,0.0002180598
73,10.1016/j.actamat.2015.04.023,4591,3(a),5860,x=0.025,Mg2.975Na0.025Sb2,428,0.000027215,0.0003825,0.000095217,1.7505,0.13335,36744.4424030865,0.000218509
73,10.1016/j.actamat.2015.04.023,4591,3(a),5860,x=0.025,Mg2.975Na0.025Sb2,428.5,0.00002722,0.0003831,0.000095306,1.7495,0.13385,36737.6928728876,0.0002189769
73,10.1016/j.actamat.2015.04.023,4591,3(a),5860,x=0.025,Mg2.975Na0.025Sb2,429,0.000027226,0.0003837,0.000095396,1.7485,0.13435,36729.5967090281,0.0002194452
73,10.1016/j.actamat.2015.04.023,4591,3(a),5860,x=0.025,Mg2.975Na0.025Sb2,429.5,0.000027231,0.00038429,0.000095485,1.7475,0.13485,36722.8526311924,0.0002199084
73,10.1016/j.actamat.2015.04.023,4591,3(a),5860,x=0.025,Mg2.975Na0.025Sb2,430,0.000027236,0.00038489,0.000095575,1.7465,0.13534,36716.1110295198,0.0002203779
73,10.1016/j.actamat.2015.04.023,4591,3(a),5860,x=0.025,Mg2.975Na0.025Sb2,430.5,0.000027241,0.00038549,0.000095664,1.7455,0.13584,36709.3719026467,0.0002208479
73,10.1016/j.actamat.2015.04.023,4591,3(a),5860,x=0.025,Mg2.975Na0.025Sb2,431,0.000027246,0.00038608,0.000095754,1.7446,0.13634,36702.6352492109,0.0002213
73,10.1016/j.actamat.2015.04.023,4591,3(a),5860,x=0.025,Mg2.975Na0.025Sb2,431.5,0.000027251,0.00038668,0.000095843,1.7436,0.13684,36695.9010678507,0.000221771
73,10.1016/j.actamat.2015.04.023,4591,3(a),5860,x=0.025,Mg2.975Na0.025Sb2,432,0.000027256,0.00038728,0.000095933,1.7426,0.13733,36689.1693572057,0.0002222426
73,10.1016/j.actamat.2015.04.023,4591,3(a),5860,x=0.025,Mg2.975Na0.025Sb2,432.5,0.000027262,0.00038787,0.000096022,1.7416,0.13783,36681.0945638618,0.000222709
73,10.1016/j.actamat.2015.04.023,4591,3(a),5860,x=0.025,Mg2.975Na0.025Sb2,433,0.000027267,0.00038847,0.000096112,1.7406,0.13833,36674.3682840063,0.0002231817
73,10.1016/j.actamat.2015.04.023,4591,3(a),5860,x=0.025,Mg2.975Na0.025Sb2,433.5,0.000027272,0.00038907,0.000096201,1.7397,0.13883,36667.6444705192,0.000223642
73,10.1016/j.actamat.2015.04.023,4591,3(a),5860,x=0.025,Mg2.975Na0.025Sb2,434,0.000027277,0.00038966,0.000096291,1.7387,0.13932,36660.9231220442,0.00022411
73,10.1016/j.actamat.2015.04.023,4591,3(a),5860,x=0.025,Mg2.975Na0.025Sb2,434.5,0.000027282,0.00039026,0.00009638,1.7377,0.13982,36654.204237226,0.0002245842
73,10.1016/j.actamat.2015.04.023,4591,3(a),5860,x=0.025,Mg2.975Na0.025Sb2,435,0.000027287,0.00039086,0.000096469,1.7367,0.14032,36647.4878147103,0.000225059
73,10.1016/j.actamat.2015.04.023,4591,3(a),5860,x=0.025,Mg2.975Na0.025Sb2,435.5,0.000027292,0.00039145,0.000096559,1.7357,0.14082,36640.7738531438,0.0002255286
73,10.1016/j.actamat.2015.04.023,4591,3(a),5860,x=0.025,Mg2.975Na0.025Sb2,436,0.000027297,0.00039205,0.000096648,1.7347,0.14131,36634.0623511741,0.0002260045
73,10.1016/j.actamat.2015.04.023,4591,3(a),5860,x=0.025,Mg2.975Na0.025Sb2,436.5,0.000027303,0.00039265,0.000096738,1.7338,0.14181,36626.0117935758,0.0002264679
73,10.1016/j.actamat.2015.04.023,4591,3(a),5860,x=0.025,Mg2.975Na0.025Sb2,437,0.000027308,0.00039324,0.000096827,1.7328,0.14231,36619.305697964,0.0002269391
73,10.1016/j.actamat.2015.04.023,4591,3(a),5860,x=0.025,Mg2.975Na0.025Sb2,437.5,0.000027313,0.00039384,0.000096917,1.7318,0.14281,36612.6020576282,0.0002274166
73,10.1016/j.actamat.2015.04.023,4591,3(a),5860,x=0.025,Mg2.975Na0.025Sb2,438,0.000027318,0.00039443,0.000097006,1.7308,0.1433,36605.9008712204,0.0002278888
73,10.1016/j.actamat.2015.04.023,4591,3(a),5860,x=0.025,Mg2.975Na0.025Sb2,438.5,0.000027323,0.00039503,0.000097096,1.7298,0.1438,36599.2021373934,0.0002283674
73,10.1016/j.actamat.2015.04.023,4591,3(a),5860,x=0.025,Mg2.975Na0.025Sb2,439,0.000027328,0.00039563,0.000097185,1.7289,0.1443,36592.5058548009,0.0002288334
73,10.1016/j.actamat.2015.04.023,4591,3(a),5860,x=0.025,Mg2.975Na0.025Sb2,439.5,0.000027333,0.00039622,0.000097275,1.7279,0.1448,36585.8120220978,0.0002293073
73,10.1016/j.actamat.2015.04.023,4591,3(a),5860,x=0.025,Mg2.975Na0.025Sb2,440,0.000027338,0.00039682,0.000097364,1.7269,0.14529,36579.1206379399,0.0002297875
73,10.1016/j.actamat.2015.04.023,4591,3(a),5860,x=0.025,Mg2.975Na0.025Sb2,440.5,0.000027344,0.00039742,0.000097454,1.7259,0.14579,36571.0942071387,0.0002302683
73,10.1016/j.actamat.2015.04.023,4591,3(a),5860,x=0.025,Mg2.975Na0.025Sb2,441,0.000027349,0.00039801,0.000097543,1.7249,0.14629,36564.4082050532,0.0002307438
73,10.1016/j.actamat.2015.04.023,4591,3(a),5860,x=0.025,Mg2.975Na0.025Sb2,441.5,0.000027354,0.00039861,0.000097632,1.724,0.14679,36557.724647218,0.0002312123
73,10.1016/j.actamat.2015.04.023,4591,3(a),5860,x=0.025,Mg2.975Na0.025Sb2,442,0.000027359,0.00039921,0.000097722,1.723,0.14728,36551.0435322928,0.0002316947
73,10.1016/j.actamat.2015.04.023,4591,3(a),5860,x=0.025,Mg2.975Na0.025Sb2,442.5,0.000027364,0.0003998,0.000097811,1.722,0.14778,36544.3648589388,0.0002321719
73,10.1016/j.actamat.2015.04.023,4591,3(a),5860,x=0.025,Mg2.975Na0.025Sb2,443,0.000027369,0.0004004,0.000097901,1.721,0.14828,36537.6886258175,0.0002326554
73,10.1016/j.actamat.2015.04.023,4591,3(a),5860,x=0.025,Mg2.975Na0.025Sb2,443.5,0.000027374,0.000401,0.00009799,1.72,0.14878,36531.014831592,0.0002331395
73,10.1016/j.actamat.2015.04.023,4591,3(a),5860,x=0.025,Mg2.975Na0.025Sb2,444,0.000027379,0.00040159,0.00009808,1.719,0.14927,36524.343474926,0.0002336184
73,10.1016/j.actamat.2015.04.023,4591,3(a),5860,x=0.025,Mg2.975Na0.025Sb2,444.5,0.000027385,0.00040219,0.000098169,1.7181,0.14977,36516.3410626255,0.00023409
73,10.1016/j.actamat.2015.04.023,4591,3(a),5860,x=0.025,Mg2.975Na0.025Sb2,445,0.00002739,0.00040279,0.000098259,1.7171,0.15027,36509.6750638919,0.0002345757
73,10.1016/j.actamat.2015.04.023,4591,3(a),5860,x=0.025,Mg2.975Na0.025Sb2,445.5,0.000027395,0.00040338,0.000098348,1.7161,0.15077,36503.0114984486,0.0002350562
73,10.1016/j.actamat.2015.04.023,4591,3(a),5860,x=0.025,Mg2.975Na0.025Sb2,446,0.0000274,0.00040398,0.000098438,1.7151,0.15126,36496.3503649635,0.0002355431
73,10.1016/j.actamat.2015.04.023,4591,3(a),5860,x=0.025,Mg2.975Na0.025Sb2,446.5,0.000027405,0.00040458,0.000098527,1.7141,0.15176,36489.6916621055,0.0002360306
73,10.1016/j.actamat.2015.04.023,4591,3(a),5860,x=0.025,Mg2.975Na0.025Sb2,447,0.00002741,0.00040517,0.000098617,1.7132,0.15226,36483.0353885443,0.0002364989
73,10.1016/j.actamat.2015.04.023,4591,3(a),5860,x=0.025,Mg2.975Na0.025Sb2,447.5,0.000027415,0.00040577,0.000098706,1.7122,0.15276,36476.3815429509,0.0002369875
73,10.1016/j.actamat.2015.04.023,4591,3(a),5860,x=0.025,Mg2.975Na0.025Sb2,448,0.000027421,0.00040637,0.000098795,1.7112,0.15325,36468.4001312862,0.0002374766
73,10.1016/j.actamat.2015.04.023,4591,3(a),5860,x=0.025,Mg2.975Na0.025Sb2,448.5,0.000027426,0.00040696,0.000098885,1.7102,0.15375,36461.7516225479,0.0002379605
73,10.1016/j.actamat.2015.04.023,4591,3(a),5860,x=0.025,Mg2.975Na0.025Sb2,449,0.000027431,0.00040756,0.000098974,1.7092,0.15425,36455.1055375305,0.0002384507
73,10.1016/j.actamat.2015.04.023,4591,3(a),5860,x=0.025,Mg2.975Na0.025Sb2,449.5,0.000027436,0.00040816,0.000099064,1.7082,0.15475,36448.4618749089,0.0002389416
73,10.1016/j.actamat.2015.04.023,4591,3(a),5860,x=0.025,Mg2.975Na0.025Sb2,450,0.000027441,0.00040875,0.000099153,1.7073,0.15524,36441.8206333588,0.0002394131
73,10.1016/j.actamat.2015.04.023,4591,3(a),5860,x=0.025,Mg2.975Na0.025Sb2,450.5,0.000027446,0.00040935,0.000099243,1.7063,0.15574,36435.1818115572,0.0002399051
73,10.1016/j.actamat.2015.04.023,4591,3(a),5860,x=0.025,Mg2.975Na0.025Sb2,451,0.000027451,0.00040994,0.000099332,1.7053,0.15624,36428.5454081819,0.0002403917
73,10.1016/j.actamat.2015.04.023,4591,3(a),5860,x=0.025,Mg2.975Na0.025Sb2,451.5,0.000027456,0.00041054,0.000099422,1.7043,0.15674,36421.9114219114,0.0002408848
73,10.1016/j.actamat.2015.04.023,4591,3(a),5860,x=0.025,Mg2.975Na0.025Sb2,452,0.000027462,0.00041114,0.000099511,1.7033,0.15723,36413.9538271065,0.0002413785
73,10.1016/j.actamat.2015.04.023,4591,3(a),5860,x=0.025,Mg2.975Na0.025Sb2,452.5,0.000027467,0.00041173,0.000099601,1.7024,0.15773,36407.325153821,0.0002418527
73,10.1016/j.actamat.2015.04.023,4591,3(a),5860,x=0.025,Mg2.975Na0.025Sb2,453,0.000027472,0.00041233,0.00009969,1.7014,0.15823,36400.6988934188,0.0002423475
73,10.1016/j.actamat.2015.04.023,4591,3(a),5860,x=0.025,Mg2.975Na0.025Sb2,453.5,0.000027477,0.00041293,0.00009978,1.7004,0.15873,36394.0750445827,0.0002428429
73,10.1016/j.actamat.2015.04.023,4591,3(a),5860,x=0.025,Mg2.975Na0.025Sb2,454,0.000027482,0.00041352,0.000099869,1.6994,0.15922,36387.4536059967,0.0002433329
73,10.1016/j.actamat.2015.04.023,4591,3(a),5860,x=0.025,Mg2.975Na0.025Sb2,454.5,0.000027487,0.00041412,0.000099958,1.6984,0.15972,36380.8345763452,0.0002438295
73,10.1016/j.actamat.2015.04.023,4591,3(a),5860,x=0.025,Mg2.975Na0.025Sb2,455,0.000027492,0.00041472,0.00010005,1.6974,0.16022,36374.217954314,0.0002443266
73,10.1016/j.actamat.2015.04.023,4591,3(a),5860,x=0.025,Mg2.975Na0.025Sb2,455.5,0.000027497,0.00041531,0.00010014,1.6965,0.16072,36367.6037385897,0.000244804
73,10.1016/j.actamat.2015.04.023,4591,3(a),5860,x=0.025,Mg2.975Na0.025Sb2,456,0.000027503,0.00041591,0.00010023,1.6955,0.16121,36359.6698541977,0.0002453023
73,10.1016/j.actamat.2015.04.023,4591,3(a),5860,x=0.025,Mg2.975Na0.025Sb2,456.5,0.000027508,0.00041651,0.00010032,1.6945,0.16171,36353.0609277301,0.0002458011
73,10.1016/j.actamat.2015.04.023,4591,3(a),5860,x=0.025,Mg2.975Na0.025Sb2,457,0.000027513,0.0004171,0.00010041,1.6935,0.16221,36346.454403373,0.0002462947
73,10.1016/j.actamat.2015.04.023,4591,3(a),5860,x=0.025,Mg2.975Na0.025Sb2,457.5,0.000027518,0.0004177,0.0001005,1.6925,0.16271,36339.8502798168,0.0002467947
73,10.1016/j.actamat.2015.04.023,4591,3(a),5860,x=0.025,Mg2.975Na0.025Sb2,458,0.000027523,0.0004183,0.00010058,1.6916,0.1632,36333.2485557534,0.0002472807
73,10.1016/j.actamat.2015.04.023,4591,3(a),5860,x=0.025,Mg2.975Na0.025Sb2,458.5,0.000027528,0.00041889,0.00010067,1.6906,0.1637,36326.649229875,0.0002477759
73,10.1016/j.actamat.2015.04.023,4591,3(a),5860,x=0.025,Mg2.975Na0.025Sb2,459,0.000027533,0.00041949,0.00010076,1.6896,0.1642,36320.0523008753,0.0002482777
73,10.1016/j.actamat.2015.04.023,4591,3(a),5860,x=0.025,Mg2.975Na0.025Sb2,459.5,0.000027538,0.00042009,0.00010085,1.6886,0.16469,36313.4577674486,0.0002487801
73,10.1016/j.actamat.2015.04.023,4591,3(a),5860,x=0.025,Mg2.975Na0.025Sb2,460,0.000027544,0.00042068,0.00010094,1.6876,0.16519,36305.5474876561,0.0002492771
73,10.1016/j.actamat.2015.04.023,4591,3(a),5860,x=0.025,Mg2.975Na0.025Sb2,460.5,0.000027549,0.00042128,0.00010103,1.6867,0.16569,36298.9582198991,0.0002497658
73,10.1016/j.actamat.2015.04.023,4591,3(a),5860,x=0.025,Mg2.975Na0.025Sb2,461,0.000027554,0.00042188,0.00010112,1.6857,0.16619,36292.3713435436,0.0002502699
73,10.1016/j.actamat.2015.04.023,4591,3(a),5860,x=0.025,Mg2.975Na0.025Sb2,461.5,0.000027559,0.00042247,0.00010121,1.6847,0.16668,36285.786857288,0.0002507687
73,10.1016/j.actamat.2015.04.023,4591,3(a),5860,x=0.025,Mg2.975Na0.025Sb2,462,0.000027564,0.00042307,0.0001013,1.6837,0.16718,36279.2047598317,0.000251274
73,10.1016/j.actamat.2015.04.023,4591,3(a),5860,x=0.025,Mg2.975Na0.025Sb2,462.5,0.000027569,0.00042367,0.00010139,1.6827,0.16768,36272.6250498749,0.0002517799
73,10.1016/j.actamat.2015.04.023,4591,3(a),5860,x=0.025,Mg2.975Na0.025Sb2,463,0.000027574,0.00042426,0.00010148,1.6817,0.16818,36266.0477261188,0.0002522804
73,10.1016/j.actamat.2015.04.023,4591,3(a),5860,x=0.025,Mg2.975Na0.025Sb2,463.5,0.00002758,0.00042486,0.00010157,1.6808,0.16867,36258.1580855693,0.0002527725
73,10.1016/j.actamat.2015.04.023,4591,3(a),5860,x=0.025,Mg2.975Na0.025Sb2,464,0.000027585,0.00042545,0.00010166,1.6798,0.16917,36251.5860068878,0.0002532742
73,10.1016/j.actamat.2015.04.023,4591,3(a),5860,x=0.025,Mg2.975Na0.025Sb2,464.5,0.00002759,0.00042605,0.00010175,1.6788,0.16967,36245.0163102573,0.0002537825
73,10.1016/j.actamat.2015.04.023,4591,3(a),5860,x=0.025,Mg2.975Na0.025Sb2,465,0.000027595,0.00042665,0.00010184,1.6778,0.17017,36238.448994383,0.0002542913
73,10.1016/j.actamat.2015.04.023,4591,3(a),5860,x=0.025,Mg2.975Na0.025Sb2,465.5,0.0000276,0.00042724,0.00010193,1.6768,0.17066,36231.884057971,0.0002547948
73,10.1016/j.actamat.2015.04.023,4591,3(a),5860,x=0.025,Mg2.975Na0.025Sb2,466,0.000027605,0.00042784,0.00010202,1.6759,0.17116,36225.3214997283,0.0002552897
73,10.1016/j.actamat.2015.04.023,4591,3(a),5860,x=0.025,Mg2.975Na0.025Sb2,466.5,0.00002761,0.00042844,0.00010211,1.6749,0.17166,36218.7613183629,0.0002558003
73,10.1016/j.actamat.2015.04.023,4591,3(a),5860,x=0.025,Mg2.975Na0.025Sb2,467,0.000027615,0.00042903,0.0001022,1.6739,0.17216,36212.2035125837,0.0002563056
73,10.1016/j.actamat.2015.04.023,4591,3(a),5860,x=0.025,Mg2.975Na0.025Sb2,467.5,0.000027621,0.00042963,0.00010228,1.6729,0.17265,36204.3372796061,0.0002568175
73,10.1016/j.actamat.2015.04.023,4591,3(a),5860,x=0.025,Mg2.975Na0.025Sb2,468,0.000027626,0.00043023,0.00010237,1.6719,0.17315,36197.7846955766,0.00025733
73,10.1016/j.actamat.2015.04.023,4591,3(a),5860,x=0.025,Mg2.975Na0.025Sb2,468.5,0.000027631,0.00043082,0.00010246,1.6709,0.17365,36191.2344830082,0.0002578371
73,10.1016/j.actamat.2015.04.023,4591,3(a),5860,x=0.025,Mg2.975Na0.025Sb2,469,0.000027636,0.00043142,0.00010255,1.67,0.17415,36184.6866406137,0.0002583353
73,10.1016/j.actamat.2015.04.023,4591,3(a),5860,x=0.025,Mg2.975Na0.025Sb2,469.5,0.000027641,0.00043202,0.00010264,1.669,0.17464,36178.1411671068,0.0002588496
73,10.1016/j.actamat.2015.04.023,4591,3(a),5860,x=0.025,Mg2.975Na0.025Sb2,470,0.000027646,0.00043261,0.00010273,1.668,0.17514,36171.5980612023,0.0002593585
73,10.1016/j.actamat.2015.04.023,4591,3(a),5860,x=0.025,Mg2.975Na0.025Sb2,470.5,0.000027651,0.00043321,0.00010282,1.667,0.17564,36165.0573216159,0.000259874
73,10.1016/j.actamat.2015.04.023,4591,3(a),5860,x=0.025,Mg2.975Na0.025Sb2,471,0.000027656,0.00043381,0.00010291,1.666,0.17614,36158.5189470639,0.0002603902
73,10.1016/j.actamat.2015.04.023,4591,3(a),5860,x=0.025,Mg2.975Na0.025Sb2,471.5,0.000027662,0.0004344,0.000103,1.6651,0.17663,36150.6760176415,0.0002608852
73,10.1016/j.actamat.2015.04.023,4591,3(a),5860,x=0.025,Mg2.975Na0.025Sb2,472,0.000027667,0.000435,0.00010309,1.6641,0.17713,36144.1428416525,0.0002614026
73,10.1016/j.actamat.2015.04.023,4591,3(a),5860,x=0.025,Mg2.975Na0.025Sb2,472.5,0.000027672,0.0004356,0.00010318,1.6631,0.17763,36137.6120265973,0.0002619205
73,10.1016/j.actamat.2015.04.023,4591,3(a),5860,x=0.025,Mg2.975Na0.025Sb2,473,0.000027677,0.00043619,0.00010327,1.6621,0.17813,36131.0835711963,0.0002624331
73,10.1016/j.actamat.2015.04.023,4591,3(a),5860,x=0.025,Mg2.975Na0.025Sb2,473.5,0.000027682,0.00043679,0.00010336,1.6611,0.17862,36124.5574741709,0.0002629523
73,10.1016/j.actamat.2015.04.023,4591,3(a),5860,x=0.025,Mg2.975Na0.025Sb2,474,0.000027687,0.00043739,0.00010345,1.6602,0.17912,36118.0337342435,0.0002634562
73,10.1016/j.actamat.2015.04.023,4591,3(a),5860,x=0.025,Mg2.975Na0.025Sb2,474.5,0.000027692,0.00043798,0.00010354,1.6592,0.17962,36111.5123501372,0.0002639706
73,10.1016/j.actamat.2015.04.023,4591,3(a),5860,x=0.025,Mg2.975Na0.025Sb2,475,0.000027697,0.00043858,0.00010363,1.6582,0.18012,36104.9933205762,0.0002644916
73,10.1016/j.actamat.2015.04.023,4591,3(a),5860,x=0.025,Mg2.975Na0.025Sb2,475.5,0.000027703,0.00043918,0.00010372,1.6572,0.18061,36097.1735913078,0.0002650133
73,10.1016/j.actamat.2015.04.023,4591,3(a),5860,x=0.025,Mg2.975Na0.025Sb2,476,0.000027708,0.00043977,0.00010381,1.6562,0.18111,36090.65973726,0.0002655295
73,10.1016/j.actamat.2015.04.023,4591,3(a),5860,x=0.025,Mg2.975Na0.025Sb2,476.5,0.000027713,0.00044037,0.00010389,1.6552,0.18161,36084.1482336809,0.0002660524
73,10.1016/j.actamat.2015.04.023,4591,3(a),5860,x=0.025,Mg2.975Na0.025Sb2,477,0.000027718,0.00044096,0.00010398,1.6543,0.18211,36077.6390792986,0.0002665538
73,10.1016/j.actamat.2015.04.023,4591,3(a),5860,x=0.025,Mg2.975Na0.025Sb2,477.5,0.000027723,0.00044156,0.00010407,1.6533,0.1826,36071.132272842,0.000267078
73,10.1016/j.actamat.2015.04.023,4591,3(a),5860,x=0.025,Mg2.975Na0.025Sb2,478,0.000027728,0.00044216,0.00010416,1.6523,0.1831,36064.627813041,0.0002676027
73,10.1016/j.actamat.2015.04.023,4591,3(a),5860,x=0.025,Mg2.975Na0.025Sb2,478.5,0.000027733,0.00044275,0.00010425,1.6513,0.1836,36058.1256986262,0.0002681221
73,10.1016/j.actamat.2015.04.023,4591,3(a),5860,x=0.025,Mg2.975Na0.025Sb2,479,0.000027739,0.00044335,0.00010434,1.6503,0.1841,36050.3262554526,0.0002686481
73,10.1016/j.actamat.2015.04.023,4591,3(a),5860,x=0.025,Mg2.975Na0.025Sb2,479.5,0.000027744,0.00044395,0.00010443,1.6494,0.18459,36043.8292964245,0.0002691585
73,10.1016/j.actamat.2015.04.023,4591,3(a),5860,x=0.025,Mg2.975Na0.025Sb2,480,0.000027749,0.00044454,0.00010452,1.6484,0.18509,36037.3346787272,0.0002696797
73,10.1016/j.actamat.2015.04.023,4591,3(a),5860,x=0.025,Mg2.975Na0.025Sb2,480.5,0.000027754,0.00044514,0.00010461,1.6474,0.18559,36030.8424010953,0.0002702076
73,10.1016/j.actamat.2015.04.023,4591,3(a),5860,x=0.025,Mg2.975Na0.025Sb2,481,0.000027759,0.00044574,0.0001047,1.6464,0.18609,36024.3524622645,0.0002707362
73,10.1016/j.actamat.2015.04.023,4591,3(a),5860,x=0.025,Mg2.975Na0.025Sb2,481.5,0.000027764,0.00044633,0.00010479,1.6454,0.18658,36017.864860971,0.0002712593
73,10.1016/j.actamat.2015.04.023,4591,3(a),5860,x=0.025,Mg2.975Na0.025Sb2,482,0.000027769,0.00044693,0.00010488,1.6444,0.18708,36011.3795959523,0.0002717891