sid,DOI,figureid,fignum,sampleid,samplename,composition,Temperature,Electrical resistivity,Power factor,Seebeck coefficient,Thermal conductivity,ZT,Electrical conductivity,Figure of merit Z
73,10.1016/j.actamat.2015.04.023,4591,3(a),5857,x=0,Mg3Sb2,449,0.22978,0.000055751,0.00070919,1.0892,0.045002,4.3519888589,0.0000511853
73,10.1016/j.actamat.2015.04.023,4591,3(a),5857,x=0,Mg3Sb2,449.5,0.22914,0.000056076,0.0007085,1.0886,0.045306,4.3641441913,0.000051512
73,10.1016/j.actamat.2015.04.023,4591,3(a),5857,x=0,Mg3Sb2,450,0.2285,0.000056401,0.00070781,1.088,0.045609,4.3763676149,0.0000518392
73,10.1016/j.actamat.2015.04.023,4591,3(a),5857,x=0,Mg3Sb2,450.5,0.22786,0.000056725,0.00070712,1.0873,0.045913,4.3886597033,0.0000521705
73,10.1016/j.actamat.2015.04.023,4591,3(a),5857,x=0,Mg3Sb2,451,0.22722,0.00005705,0.00070643,1.0867,0.046216,4.4010210369,0.0000524984
73,10.1016/j.actamat.2015.04.023,4591,3(a),5857,x=0,Mg3Sb2,451.5,0.22658,0.000057375,0.00070574,1.0861,0.04652,4.4134522023,0.0000528266
73,10.1016/j.actamat.2015.04.023,4591,3(a),5857,x=0,Mg3Sb2,452,0.22594,0.0000577,0.00070505,1.0854,0.046823,4.425953793,0.0000531601
73,10.1016/j.actamat.2015.04.023,4591,3(a),5857,x=0,Mg3Sb2,452.5,0.2253,0.000058024,0.00070437,1.0848,0.047127,4.4385264092,0.0000534882
73,10.1016/j.actamat.2015.04.023,4591,3(a),5857,x=0,Mg3Sb2,453,0.22466,0.000058349,0.00070368,1.0842,0.04743,4.4511706579,0.0000538176
73,10.1016/j.actamat.2015.04.023,4591,3(a),5857,x=0,Mg3Sb2,453.5,0.22401,0.000058674,0.00070299,1.0835,0.047734,4.4640864247,0.0000541523
73,10.1016/j.actamat.2015.04.023,4591,3(a),5857,x=0,Mg3Sb2,454,0.22337,0.000058999,0.0007023,1.0829,0.048037,4.4768769307,0.0000544824
73,10.1016/j.actamat.2015.04.023,4591,3(a),5857,x=0,Mg3Sb2,454.5,0.22273,0.000059323,0.00070161,1.0823,0.048341,4.4897409419,0.000054812
73,10.1016/j.actamat.2015.04.023,4591,3(a),5857,x=0,Mg3Sb2,455,0.22209,0.000059648,0.00070092,1.0816,0.048644,4.5026790941,0.0000551479
73,10.1016/j.actamat.2015.04.023,4591,3(a),5857,x=0,Mg3Sb2,455.5,0.22145,0.000059973,0.00070023,1.081,0.048948,4.5156920298,0.0000554792
73,10.1016/j.actamat.2015.04.023,4591,3(a),5857,x=0,Mg3Sb2,456,0.22081,0.000060298,0.00069954,1.0804,0.049252,4.5287803994,0.0000558108
73,10.1016/j.actamat.2015.04.023,4591,3(a),5857,x=0,Mg3Sb2,456.5,0.22017,0.000060622,0.00069885,1.0797,0.049555,4.5419448608,0.0000561471
73,10.1016/j.actamat.2015.04.023,4591,3(a),5857,x=0,Mg3Sb2,457,0.21953,0.000060947,0.00069816,1.0791,0.049859,4.5551860794,0.0000564795
73,10.1016/j.actamat.2015.04.023,4591,3(a),5857,x=0,Mg3Sb2,457.5,0.21889,0.000061272,0.00069747,1.0785,0.050162,4.5685047284,0.0000568122
73,10.1016/j.actamat.2015.04.023,4591,3(a),5857,x=0,Mg3Sb2,458,0.21824,0.000061596,0.00069678,1.0778,0.050466,4.582111437,0.0000571497
73,10.1016/j.actamat.2015.04.023,4591,3(a),5857,x=0,Mg3Sb2,458.5,0.2176,0.000061921,0.00069609,1.0772,0.050769,4.5955882353,0.0000574833
73,10.1016/j.actamat.2015.04.023,4591,3(a),5857,x=0,Mg3Sb2,459,0.21696,0.000062246,0.0006954,1.0766,0.051073,4.6091445428,0.0000578172
73,10.1016/j.actamat.2015.04.023,4591,3(a),5857,x=0,Mg3Sb2,459.5,0.21632,0.000062571,0.00069471,1.0759,0.051376,4.6227810651,0.0000581569
73,10.1016/j.actamat.2015.04.023,4591,3(a),5857,x=0,Mg3Sb2,460,0.21568,0.000062895,0.00069402,1.0753,0.05168,4.6364985163,0.0000584907
73,10.1016/j.actamat.2015.04.023,4591,3(a),5857,x=0,Mg3Sb2,460.5,0.21504,0.00006322,0.00069333,1.0747,0.051983,4.650297619,0.0000588257
73,10.1016/j.actamat.2015.04.023,4591,3(a),5857,x=0,Mg3Sb2,461,0.2144,0.000063545,0.00069264,1.074,0.052287,4.6641791045,0.0000591667
73,10.1016/j.actamat.2015.04.023,4591,3(a),5857,x=0,Mg3Sb2,461.5,0.21376,0.00006387,0.00069195,1.0734,0.05259,4.6781437126,0.0000595025
73,10.1016/j.actamat.2015.04.023,4591,3(a),5857,x=0,Mg3Sb2,462,0.21312,0.000064194,0.00069126,1.0728,0.052894,4.6921921922,0.0000598378
73,10.1016/j.actamat.2015.04.023,4591,3(a),5857,x=0,Mg3Sb2,462.5,0.21248,0.000064519,0.00069057,1.0721,0.053197,4.7063253012,0.00006018
73,10.1016/j.actamat.2015.04.023,4591,3(a),5857,x=0,Mg3Sb2,463,0.21183,0.000064844,0.00068988,1.0715,0.053501,4.7207666525,0.000060517
73,10.1016/j.actamat.2015.04.023,4591,3(a),5857,x=0,Mg3Sb2,463.5,0.21119,0.000065169,0.00068919,1.0709,0.053805,4.7350726834,0.0000608544
73,10.1016/j.actamat.2015.04.023,4591,3(a),5857,x=0,Mg3Sb2,464,0.21055,0.000065493,0.0006885,1.0702,0.054108,4.7494656851,0.000061197
73,10.1016/j.actamat.2015.04.023,4591,3(a),5857,x=0,Mg3Sb2,464.5,0.20991,0.000065818,0.00068782,1.0696,0.054412,4.7639464532,0.0000615352
73,10.1016/j.actamat.2015.04.023,4591,3(a),5857,x=0,Mg3Sb2,465,0.20927,0.000066143,0.00068713,1.069,0.054715,4.778515793,0.0000618737
73,10.1016/j.actamat.2015.04.023,4591,3(a),5857,x=0,Mg3Sb2,465.5,0.20863,0.000066468,0.00068644,1.0683,0.055019,4.7931745195,0.0000622185
73,10.1016/j.actamat.2015.04.023,4591,3(a),5857,x=0,Mg3Sb2,466,0.20799,0.000066792,0.00068575,1.0677,0.055322,4.8079234579,0.0000625569
73,10.1016/j.actamat.2015.04.023,4591,3(a),5857,x=0,Mg3Sb2,466.5,0.20735,0.000067117,0.00068506,1.0671,0.055626,4.8227634435,0.0000628966
73,10.1016/j.actamat.2015.04.023,4591,3(a),5857,x=0,Mg3Sb2,467,0.20671,0.000067442,0.00068437,1.0665,0.055929,4.8376953219,0.0000632368
73,10.1016/j.actamat.2015.04.023,4591,3(a),5857,x=0,Mg3Sb2,467.5,0.20606,0.000067767,0.00068368,1.0658,0.056233,4.8529554499,0.0000635832
73,10.1016/j.actamat.2015.04.023,4591,3(a),5857,x=0,Mg3Sb2,468,0.20542,0.000068091,0.00068299,1.0652,0.056536,4.8680751631,0.0000639232
73,10.1016/j.actamat.2015.04.023,4591,3(a),5857,x=0,Mg3Sb2,468.5,0.20478,0.000068416,0.0006823,1.0646,0.05684,4.8832893837,0.0000642645
73,10.1016/j.actamat.2015.04.023,4591,3(a),5857,x=0,Mg3Sb2,469,0.20414,0.000068741,0.00068161,1.0639,0.057143,4.8985990007,0.0000646123
73,10.1016/j.actamat.2015.04.023,4591,3(a),5857,x=0,Mg3Sb2,469.5,0.2035,0.000069066,0.00068092,1.0633,0.057447,4.914004914,0.0000649544
73,10.1016/j.actamat.2015.04.023,4591,3(a),5857,x=0,Mg3Sb2,470,0.20286,0.00006939,0.00068023,1.0627,0.05775,4.9295080351,0.0000652959
73,10.1016/j.actamat.2015.04.023,4591,3(a),5857,x=0,Mg3Sb2,470.5,0.20222,0.000069715,0.00067954,1.062,0.058054,4.9451092869,0.000065645
73,10.1016/j.actamat.2015.04.023,4591,3(a),5857,x=0,Mg3Sb2,471,0.20158,0.00007004,0.00067885,1.0614,0.058358,4.9608096041,0.0000659883
73,10.1016/j.actamat.2015.04.023,4591,3(a),5857,x=0,Mg3Sb2,471.5,0.20094,0.000070365,0.00067816,1.0608,0.058661,4.9766099333,0.000066332
73,10.1016/j.actamat.2015.04.023,4591,3(a),5857,x=0,Mg3Sb2,472,0.2003,0.000070689,0.00067747,1.0601,0.058965,4.9925112332,0.0000666814
73,10.1016/j.actamat.2015.04.023,4591,3(a),5857,x=0,Mg3Sb2,472.5,0.19965,0.000071014,0.00067678,1.0595,0.059268,5.0087653393,0.000067026
73,10.1016/j.actamat.2015.04.023,4591,3(a),5857,x=0,Mg3Sb2,473,0.19901,0.000071339,0.00067609,1.0589,0.059572,5.024873122,0.0000673709
73,10.1016/j.actamat.2015.04.023,4591,3(a),5857,x=0,Mg3Sb2,473.5,0.19837,0.000071664,0.0006754,1.0582,0.059875,5.0410848415,0.0000677225
73,10.1016/j.actamat.2015.04.023,4591,3(a),5857,x=0,Mg3Sb2,474,0.19773,0.000071988,0.00067471,1.0576,0.060179,5.0574015071,0.0000680673
73,10.1016/j.actamat.2015.04.023,4591,3(a),5857,x=0,Mg3Sb2,474.5,0.19709,0.000072313,0.00067402,1.057,0.060482,5.0738241413,0.0000684134
73,10.1016/j.actamat.2015.04.023,4591,3(a),5857,x=0,Mg3Sb2,475,0.19645,0.000072638,0.00067333,1.0563,0.060786,5.0903537796,0.0000687664
73,10.1016/j.actamat.2015.04.023,4591,3(a),5857,x=0,Mg3Sb2,475.5,0.19581,0.000072963,0.00067264,1.0557,0.061089,5.1069914713,0.0000691134
73,10.1016/j.actamat.2015.04.023,4591,3(a),5857,x=0,Mg3Sb2,476,0.19517,0.000073287,0.00067195,1.0551,0.061393,5.1237382794,0.0000694598
73,10.1016/j.actamat.2015.04.023,4591,3(a),5857,x=0,Mg3Sb2,476.5,0.19453,0.000073612,0.00067127,1.0544,0.061696,5.1405952809,0.0000698141
73,10.1016/j.actamat.2015.04.023,4591,3(a),5857,x=0,Mg3Sb2,477,0.19388,0.000073937,0.00067058,1.0538,0.062,5.1578295853,0.0000701623
73,10.1016/j.actamat.2015.04.023,4591,3(a),5857,x=0,Mg3Sb2,477.5,0.19324,0.000074262,0.00066989,1.0532,0.062303,5.1749120265,0.0000705108
73,10.1016/j.actamat.2015.04.023,4591,3(a),5857,x=0,Mg3Sb2,478,0.1926,0.000074586,0.0006692,1.0525,0.062607,5.1921079958,0.0000708656
73,10.1016/j.actamat.2015.04.023,4591,3(a),5857,x=0,Mg3Sb2,478.5,0.19196,0.000074911,0.00066851,1.0519,0.062911,5.2094186289,0.0000712149
73,10.1016/j.actamat.2015.04.023,4591,3(a),5857,x=0,Mg3Sb2,479,0.19132,0.000075236,0.00066782,1.0513,0.063214,5.2268450763,0.0000715647
73,10.1016/j.actamat.2015.04.023,4591,3(a),5857,x=0,Mg3Sb2,479.5,0.19068,0.000075561,0.00066713,1.0506,0.063518,5.2443885043,0.0000719218
73,10.1016/j.actamat.2015.04.023,4591,3(a),5857,x=0,Mg3Sb2,480,0.19004,0.000075885,0.00066644,1.05,0.063821,5.2620500947,0.0000722714
73,10.1016/j.actamat.2015.04.023,4591,3(a),5857,x=0,Mg3Sb2,480.5,0.1894,0.00007621,0.00066575,1.0494,0.064125,5.2798310454,0.0000726225
73,10.1016/j.actamat.2015.04.023,4591,3(a),5857,x=0,Mg3Sb2,481,0.18876,0.000076535,0.00066506,1.0487,0.064428,5.2977325705,0.0000729808
73,10.1016/j.actamat.2015.04.023,4591,3(a),5857,x=0,Mg3Sb2,481.5,0.18812,0.00007686,0.00066437,1.0481,0.064732,5.3157559005,0.0000733327
73,10.1016/j.actamat.2015.04.023,4591,3(a),5857,x=0,Mg3Sb2,482,0.18747,0.000077184,0.00066368,1.0475,0.065035,5.3341868032,0.000073684
73,10.1016/j.actamat.2015.04.023,4591,3(a),5857,x=0,Mg3Sb2,482.5,0.18683,0.000077509,0.00066299,1.0468,0.065339,5.3524594551,0.0000740438
73,10.1016/j.actamat.2015.04.023,4591,3(a),5857,x=0,Mg3Sb2,483,0.18619,0.000077834,0.0006623,1.0462,0.065642,5.370857726,0.0000743969
73,10.1016/j.actamat.2015.04.023,4591,3(a),5857,x=0,Mg3Sb2,483.5,0.18555,0.000078159,0.00066161,1.0456,0.065946,5.3893829157,0.0000747504
73,10.1016/j.actamat.2015.04.023,4591,3(a),5857,x=0,Mg3Sb2,484,0.18491,0.000078483,0.00066092,1.0449,0.066249,5.408036342,0.0000751105
73,10.1016/j.actamat.2015.04.023,4591,3(a),5857,x=0,Mg3Sb2,484.5,0.18427,0.000078808,0.00066023,1.0443,0.066553,5.4268193412,0.0000754649
73,10.1016/j.actamat.2015.04.023,4591,3(a),5857,x=0,Mg3Sb2,485,0.18363,0.000079133,0.00065954,1.0437,0.066856,5.445733268,0.0000758197
73,10.1016/j.actamat.2015.04.023,4591,3(a),5857,x=0,Mg3Sb2,485.5,0.18299,0.000079458,0.00065885,1.043,0.06716,5.4647794961,0.0000761822
73,10.1016/j.actamat.2015.04.023,4591,3(a),5857,x=0,Mg3Sb2,486,0.18235,0.000079782,0.00065816,1.0424,0.067464,5.4839594187,0.0000765368
73,10.1016/j.actamat.2015.04.023,4591,3(a),5857,x=0,Mg3Sb2,486.5,0.1817,0.000080107,0.00065747,1.0418,0.067767,5.5035773253,0.0000768929
73,10.1016/j.actamat.2015.04.023,4591,3(a),5857,x=0,Mg3Sb2,487,0.18106,0.000080432,0.00065678,1.0411,0.068071,5.5230310394,0.0000772567
73,10.1016/j.actamat.2015.04.023,4591,3(a),5857,x=0,Mg3Sb2,487.5,0.18042,0.000080757,0.00065609,1.0405,0.068374,5.5426227691,0.0000776136
73,10.1016/j.actamat.2015.04.023,4591,3(a),5857,x=0,Mg3Sb2,488,0.17978,0.000081081,0.0006554,1.0399,0.068678,5.5623539882,0.00007797
73,10.1016/j.actamat.2015.04.023,4591,3(a),5857,x=0,Mg3Sb2,488.5,0.17914,0.000081406,0.00065472,1.0393,0.068981,5.5822261918,0.0000783277
73,10.1016/j.actamat.2015.04.023,4591,3(a),5857,x=0,Mg3Sb2,489,0.1785,0.000081731,0.00065403,1.0386,0.069285,5.6022408964,0.0000786934
73,10.1016/j.actamat.2015.04.023,4591,3(a),5857,x=0,Mg3Sb2,489.5,0.17786,0.000082056,0.00065334,1.038,0.069588,5.6223996402,0.000079052
73,10.1016/j.actamat.2015.04.023,4591,3(a),5857,x=0,Mg3Sb2,490,0.17722,0.00008238,0.00065265,1.0374,0.069892,5.6427039837,0.0000794101
73,10.1016/j.actamat.2015.04.023,4591,3(a),5857,x=0,Mg3Sb2,490.5,0.17658,0.000082705,0.00065196,1.0367,0.070195,5.6631555103,0.0000797772
73,10.1016/j.actamat.2015.04.023,4591,3(a),5857,x=0,Mg3Sb2,491,0.17594,0.00008303,0.00065127,1.0361,0.070499,5.6837558258,0.0000801371
73,10.1016/j.actamat.2015.04.023,4591,3(a),5857,x=0,Mg3Sb2,491.5,0.17529,0.000083355,0.00065058,1.0355,0.070802,5.7048319927,0.0000804973
73,10.1016/j.actamat.2015.04.023,4591,3(a),5857,x=0,Mg3Sb2,492,0.17465,0.000083679,0.00064989,1.0348,0.071106,5.7257371887,0.0000808649
73,10.1016/j.actamat.2015.04.023,4591,3(a),5857,x=0,Mg3Sb2,492.5,0.17401,0.000084004,0.0006492,1.0342,0.071409,5.7467961611,0.0000812261
73,10.1016/j.actamat.2015.04.023,4591,3(a),5857,x=0,Mg3Sb2,493,0.17337,0.000084329,0.00064851,1.0336,0.071713,5.7680106131,0.0000815877
73,10.1016/j.actamat.2015.04.023,4591,3(a),5857,x=0,Mg3Sb2,493.5,0.17273,0.000084654,0.00064782,1.0329,0.072017,5.7893822729,0.0000819576
73,10.1016/j.actamat.2015.04.023,4591,3(a),5857,x=0,Mg3Sb2,494,0.17209,0.000084978,0.00064713,1.0323,0.07232,5.8109128944,0.0000823191
73,10.1016/j.actamat.2015.04.023,4591,3(a),5857,x=0,Mg3Sb2,494.5,0.17145,0.000085303,0.00064644,1.0317,0.072624,5.8326042578,0.000082682
73,10.1016/j.actamat.2015.04.023,4591,3(a),5857,x=0,Mg3Sb2,495,0.17081,0.000085628,0.00064575,1.031,0.072927,5.8544581699,0.0000830533
73,10.1016/j.actamat.2015.04.023,4591,3(a),5857,x=0,Mg3Sb2,495.5,0.17017,0.000085953,0.00064506,1.0304,0.073231,5.8764764647,0.0000834171
73,10.1016/j.actamat.2015.04.023,4591,3(a),5857,x=0,Mg3Sb2,496,0.16952,0.000086277,0.00064437,1.0298,0.073534,5.8990089665,0.0000837803
73,10.1016/j.actamat.2015.04.023,4591,3(a),5857,x=0,Mg3Sb2,496.5,0.16888,0.000086602,0.00064368,1.0291,0.073838,5.9213642823,0.0000841531
73,10.1016/j.actamat.2015.04.023,4591,3(a),5857,x=0,Mg3Sb2,497,0.16824,0.000086927,0.00064299,1.0285,0.074141,5.9438896814,0.0000845182
73,10.1016/j.actamat.2015.04.023,4591,3(a),5857,x=0,Mg3Sb2,497.5,0.1676,0.000087252,0.0006423,1.0279,0.074445,5.9665871122,0.0000848837
73,10.1016/j.actamat.2015.04.023,4591,3(a),5857,x=0,Mg3Sb2,498,0.16696,0.000087576,0.00064161,1.0272,0.074748,5.9894585529,0.000085257
73,10.1016/j.actamat.2015.04.023,4591,3(a),5857,x=0,Mg3Sb2,498.5,0.16632,0.000087901,0.00064092,1.0266,0.075052,6.0125060125,0.0000856234
73,10.1016/j.actamat.2015.04.023,4591,3(a),5857,x=0,Mg3Sb2,499,0.16568,0.000088226,0.00064023,1.026,0.075355,6.0357315307,0.0000859903
73,10.1016/j.actamat.2015.04.023,4591,3(a),5857,x=0,Mg3Sb2,499.5,0.16504,0.000088551,0.00063954,1.0253,0.075659,6.0591371789,0.0000863659
73,10.1016/j.actamat.2015.04.023,4591,3(a),5857,x=0,Mg3Sb2,500,0.1644,0.000088875,0.00063885,1.0247,0.075962,6.0827250608,0.0000867327
73,10.1016/j.actamat.2015.04.023,4591,3(a),5857,x=0,Mg3Sb2,500.5,0.16376,0.0000892,0.00063817,1.0241,0.076266,6.1064973131,0.0000871009
73,10.1016/j.actamat.2015.04.023,4591,3(a),5857,x=0,Mg3Sb2,501,0.16311,0.000089525,0.00063748,1.0234,0.07657,6.1308319539,0.000087478
73,10.1016/j.actamat.2015.04.023,4591,3(a),5857,x=0,Mg3Sb2,501.5,0.16247,0.00008985,0.00063679,1.0228,0.076873,6.1549824583,0.0000878471
73,10.1016/j.actamat.2015.04.023,4591,3(a),5857,x=0,Mg3Sb2,502,0.16183,0.000090174,0.0006361,1.0222,0.077177,6.179323982,0.0000882156
73,10.1016/j.actamat.2015.04.023,4591,3(a),5857,x=0,Mg3Sb2,502.5,0.16119,0.000090499,0.00063541,1.0215,0.07748,6.2038588002,0.0000885942
73,10.1016/j.actamat.2015.04.023,4591,3(a),5857,x=0,Mg3Sb2,503,0.16055,0.000090824,0.00063472,1.0209,0.077784,6.2285892245,0.0000889646
73,10.1016/j.actamat.2015.04.023,4591,3(a),5857,x=0,Mg3Sb2,503.5,0.15991,0.000091149,0.00063403,1.0203,0.078087,6.2535176037,0.0000893355
73,10.1016/j.actamat.2015.04.023,4591,3(a),5857,x=0,Mg3Sb2,504,0.15927,0.000091473,0.00063334,1.0196,0.078391,6.2786463239,0.0000897146
73,10.1016/j.actamat.2015.04.023,4591,3(a),5857,x=0,Mg3Sb2,504.5,0.15863,0.000091798,0.00063265,1.019,0.078694,6.30397781,0.0000900864
73,10.1016/j.actamat.2015.04.023,4591,3(a),5857,x=0,Mg3Sb2,505,0.15799,0.000092123,0.00063196,1.0184,0.078998,6.3295145262,0.0000904586
73,10.1016/j.actamat.2015.04.023,4591,3(a),5857,x=0,Mg3Sb2,505.5,0.15734,0.000092448,0.00063127,1.0177,0.079301,6.3556628956,0.0000908401
73,10.1016/j.actamat.2015.04.023,4591,3(a),5857,x=0,Mg3Sb2,506,0.1567,0.000092772,0.00063058,1.0171,0.079605,6.3816209317,0.0000912123
73,10.1016/j.actamat.2015.04.023,4591,3(a),5857,x=0,Mg3Sb2,506.5,0.15606,0.000093097,0.00062989,1.0165,0.079908,6.4077918749,0.0000915858
73,10.1016/j.actamat.2015.04.023,4591,3(a),5857,x=0,Mg3Sb2,507,0.15542,0.000093422,0.0006292,1.0158,0.080212,6.4341783554,0.0000919689
73,10.1016/j.actamat.2015.04.023,4591,3(a),5857,x=0,Mg3Sb2,507.5,0.15478,0.000093747,0.00062851,1.0152,0.080515,6.4607830469,0.0000923434
73,10.1016/j.actamat.2015.04.023,4591,3(a),5857,x=0,Mg3Sb2,508,0.15414,0.000094071,0.00062782,1.0146,0.080819,6.4876086674,0.0000927173
73,10.1016/j.actamat.2015.04.023,4591,3(a),5857,x=0,Mg3Sb2,508.5,0.1535,0.000094396,0.00062713,1.0139,0.081123,6.5146579805,0.0000931019
73,10.1016/j.actamat.2015.04.023,4591,3(a),5857,x=0,Mg3Sb2,509,0.15286,0.000094721,0.00062644,1.0133,0.081426,6.5419337956,0.0000934777
73,10.1016/j.actamat.2015.04.023,4591,3(a),5857,x=0,Mg3Sb2,509.5,0.15222,0.000095046,0.00062575,1.0127,0.08173,6.5694389699,0.0000938541
73,10.1016/j.actamat.2015.04.023,4591,3(a),5857,x=0,Mg3Sb2,510,0.15157,0.00009537,0.00062506,1.0121,0.082033,6.5976116646,0.0000942298
73,10.1016/j.actamat.2015.04.023,4591,3(a),5857,x=0,Mg3Sb2,510.5,0.15093,0.000095695,0.00062437,1.0114,0.082337,6.6255880209,0.0000946164
73,10.1016/j.actamat.2015.04.023,4591,3(a),5857,x=0,Mg3Sb2,511,0.15029,0.00009602,0.00062368,1.0108,0.08264,6.6538026482,0.0000949941
73,10.1016/j.actamat.2015.04.023,4591,3(a),5857,x=0,Mg3Sb2,511.5,0.14965,0.000096345,0.00062299,1.0102,0.082944,6.6822586034,0.0000953722
73,10.1016/j.actamat.2015.04.023,4591,3(a),5857,x=0,Mg3Sb2,512,0.14901,0.000096669,0.0006223,1.0095,0.083247,6.710958996,0.0000957593
73,10.1016/j.actamat.2015.04.023,4591,3(a),5857,x=0,Mg3Sb2,512.5,0.14837,0.000096994,0.00062162,1.0089,0.083551,6.7399069893,0.0000961384
73,10.1016/j.actamat.2015.04.023,4591,3(a),5857,x=0,Mg3Sb2,513,0.14773,0.000097319,0.00062093,1.0083,0.083854,6.7691058011,0.0000965179
73,10.1016/j.actamat.2015.04.023,4591,3(a),5857,x=0,Mg3Sb2,513.5,0.14709,0.000097644,0.00062024,1.0076,0.084158,6.7985587056,0.0000969075
73,10.1016/j.actamat.2015.04.023,4591,3(a),5857,x=0,Mg3Sb2,514,0.14645,0.000097968,0.00061955,1.007,0.084461,6.8282690338,0.000097287
73,10.1016/j.actamat.2015.04.023,4591,3(a),5857,x=0,Mg3Sb2,514.5,0.14581,0.000098293,0.00061886,1.0064,0.084765,6.8582401756,0.0000976679
73,10.1016/j.actamat.2015.04.023,4591,3(a),5857,x=0,Mg3Sb2,515,0.14516,0.000098618,0.00061817,1.0057,0.085068,6.888950124,0.0000980591
73,10.1016/j.actamat.2015.04.023,4591,3(a),5857,x=0,Mg3Sb2,515.5,0.14452,0.000098942,0.00061748,1.0051,0.085372,6.9194575145,0.00009844
73,10.1016/j.actamat.2015.04.023,4591,3(a),5857,x=0,Mg3Sb2,516,0.14388,0.000099267,0.00061679,1.0045,0.085676,6.950236308,0.0000988223
73,10.1016/j.actamat.2015.04.023,4591,3(a),5857,x=0,Mg3Sb2,516.5,0.14324,0.000099592,0.0006161,1.0038,0.085979,6.9812901424,0.000099215
73,10.1016/j.actamat.2015.04.023,4591,3(a),5857,x=0,Mg3Sb2,517,0.1426,0.000099917,0.00061541,1.0032,0.086283,7.0126227209,0.0000995983
73,10.1016/j.actamat.2015.04.023,4591,3(a),5857,x=0,Mg3Sb2,517.5,0.14196,0.00010024,0.00061472,1.0026,0.086586,7.0442378135,0.0000999801
73,10.1016/j.actamat.2015.04.023,4591,3(a),5857,x=0,Mg3Sb2,518,0.14132,0.00010057,0.00061403,1.0019,0.08689,7.0761392584,0.0001003793
73,10.1016/j.actamat.2015.04.023,4591,3(a),5857,x=0,Mg3Sb2,518.5,0.14068,0.00010089,0.00061334,1.0013,0.087193,7.1083309639,0.000100759
73,10.1016/j.actamat.2015.04.023,4591,3(a),5857,x=0,Mg3Sb2,519,0.14004,0.00010122,0.00061265,1.0007,0.087497,7.1408169095,0.0001011492
73,10.1016/j.actamat.2015.04.023,4591,3(a),5857,x=0,Mg3Sb2,519.5,0.13939,0.00010154,0.00061196,1,0.0878,7.1741157902,0.00010154
73,10.1016/j.actamat.2015.04.023,4591,3(a),5857,x=0,Mg3Sb2,520,0.13875,0.00010187,0.00061127,0.9994,0.088104,7.2072072072,0.0001019312
73,10.1016/j.actamat.2015.04.023,4591,3(a),5857,x=0,Mg3Sb2,520.5,0.13811,0.00010219,0.00061058,0.99877,0.088407,7.2406053146,0.0001023158
73,10.1016/j.actamat.2015.04.023,4591,3(a),5857,x=0,Mg3Sb2,521,0.13747,0.00010251,0.00060989,0.99813,0.088711,7.2743143959,0.0001027021