sid,DOI,figureid,fignum,sampleid,samplename,composition,Temperature,Electrical resistivity,Power factor,Seebeck coefficient,Thermal conductivity,ZT,Electrical conductivity,Figure of merit Z
10954,10.1007/s11664-015-4303-6,5134,3(a),6469,x=0.3,Ca0.7Eu0.3Zn2Sb2,646,0.000023246,0.0013723,0.00017682,2.0419,0.40301,43018.1536608449,0.0006720701
10954,10.1007/s11664-015-4303-6,5134,3(a),6469,x=0.3,Ca0.7Eu0.3Zn2Sb2,646.5,0.00002326,0.001373,0.00017692,2.04,0.40354,42992.2613929493,0.0006730392
10954,10.1007/s11664-015-4303-6,5134,3(a),6469,x=0.3,Ca0.7Eu0.3Zn2Sb2,647,0.000023273,0.0013737,0.00017701,2.0381,0.40407,42968.2464658617,0.0006740101
10954,10.1007/s11664-015-4303-6,5134,3(a),6469,x=0.3,Ca0.7Eu0.3Zn2Sb2,647.5,0.000023286,0.0013744,0.0001771,2.0363,0.4046,42944.2583526582,0.0006749497
10954,10.1007/s11664-015-4303-6,5134,3(a),6469,x=0.3,Ca0.7Eu0.3Zn2Sb2,648,0.0000233,0.0013751,0.00017719,2.0344,0.40512,42918.4549356223,0.0006759241
10954,10.1007/s11664-015-4303-6,5134,3(a),6469,x=0.3,Ca0.7Eu0.3Zn2Sb2,648.5,0.000023313,0.0013757,0.00017728,2.0325,0.40565,42894.5223694934,0.0006768512
10954,10.1007/s11664-015-4303-6,5134,3(a),6469,x=0.3,Ca0.7Eu0.3Zn2Sb2,649,0.000023326,0.0013764,0.00017738,2.0306,0.40618,42870.616479465,0.0006778292
10954,10.1007/s11664-015-4303-6,5134,3(a),6469,x=0.3,Ca0.7Eu0.3Zn2Sb2,649.5,0.00002334,0.0013771,0.00017747,2.0287,0.40671,42844.9014567266,0.0006788091
10954,10.1007/s11664-015-4303-6,5134,3(a),6469,x=0.3,Ca0.7Eu0.3Zn2Sb2,650,0.000023353,0.0013778,0.00017756,2.0268,0.40724,42821.0508285873,0.0006797908
10954,10.1007/s11664-015-4303-6,5134,3(a),6469,x=0.3,Ca0.7Eu0.3Zn2Sb2,650.5,0.000023366,0.0013785,0.00017765,2.0249,0.40777,42797.2267397073,0.0006807744
10954,10.1007/s11664-015-4303-6,5134,3(a),6469,x=0.3,Ca0.7Eu0.3Zn2Sb2,651,0.00002338,0.0013791,0.00017775,2.023,0.4083,42771.5996578272,0.0006817103
10954,10.1007/s11664-015-4303-6,5134,3(a),6469,x=0.3,Ca0.7Eu0.3Zn2Sb2,651.5,0.000023393,0.0013798,0.00017784,2.0212,0.40883,42747.8305475997,0.0006826638
10954,10.1007/s11664-015-4303-6,5134,3(a),6469,x=0.3,Ca0.7Eu0.3Zn2Sb2,652,0.000023407,0.0013805,0.00017793,2.0193,0.40935,42722.2625710258,0.0006836528
10954,10.1007/s11664-015-4303-6,5134,3(a),6469,x=0.3,Ca0.7Eu0.3Zn2Sb2,652.5,0.00002342,0.0013812,0.00017802,2.0174,0.40988,42698.5482493595,0.0006846436
10954,10.1007/s11664-015-4303-6,5134,3(a),6469,x=0.3,Ca0.7Eu0.3Zn2Sb2,653,0.000023433,0.0013819,0.00017812,2.0155,0.41041,42674.8602398327,0.0006856363
10954,10.1007/s11664-015-4303-6,5134,3(a),6469,x=0.3,Ca0.7Eu0.3Zn2Sb2,653.5,0.000023447,0.0013825,0.00017821,2.0136,0.41094,42649.379451529,0.0006865812
10954,10.1007/s11664-015-4303-6,5134,3(a),6469,x=0.3,Ca0.7Eu0.3Zn2Sb2,654,0.00002346,0.0013832,0.0001783,2.0117,0.41147,42625.7459505541,0.0006875777
10954,10.1007/s11664-015-4303-6,5134,3(a),6469,x=0.3,Ca0.7Eu0.3Zn2Sb2,654.5,0.000023473,0.0013839,0.00017839,2.0098,0.412,42602.1386273591,0.000688576
10954,10.1007/s11664-015-4303-6,5134,3(a),6469,x=0.3,Ca0.7Eu0.3Zn2Sb2,655,0.000023487,0.0013846,0.00017848,2.0079,0.41253,42576.7445821092,0.0006895762
10954,10.1007/s11664-015-4303-6,5134,3(a),6469,x=0.3,Ca0.7Eu0.3Zn2Sb2,655.5,0.0000235,0.0013853,0.00017858,2.0061,0.41305,42553.1914893617,0.0006905438
10954,10.1007/s11664-015-4303-6,5134,3(a),6469,x=0.3,Ca0.7Eu0.3Zn2Sb2,656,0.000023513,0.0013859,0.00017867,2.0042,0.41358,42529.6644409476,0.0006914979
10954,10.1007/s11664-015-4303-6,5134,3(a),6469,x=0.3,Ca0.7Eu0.3Zn2Sb2,656.5,0.000023527,0.0013866,0.00017876,2.0023,0.41411,42504.3566965614,0.0006925036
10954,10.1007/s11664-015-4303-6,5134,3(a),6469,x=0.3,Ca0.7Eu0.3Zn2Sb2,657,0.00002354,0.0013873,0.00017885,2.0004,0.41464,42480.8836023789,0.0006935113
10954,10.1007/s11664-015-4303-6,5134,3(a),6469,x=0.3,Ca0.7Eu0.3Zn2Sb2,657.5,0.000023553,0.001388,0.00017895,1.9985,0.41517,42457.436419989,0.0006945209
10954,10.1007/s11664-015-4303-6,5134,3(a),6469,x=0.3,Ca0.7Eu0.3Zn2Sb2,658,0.000023567,0.0013887,0.00017904,1.9966,0.4157,42432.2145372767,0.0006955324
10954,10.1007/s11664-015-4303-6,5134,3(a),6469,x=0.3,Ca0.7Eu0.3Zn2Sb2,658.5,0.00002358,0.0013893,0.00017913,1.9947,0.41623,42408.8210347752,0.0006964957
10954,10.1007/s11664-015-4303-6,5134,3(a),6469,x=0.3,Ca0.7Eu0.3Zn2Sb2,659,0.000023593,0.00139,0.00017922,1.9928,0.41675,42385.4533124232,0.000697511
10954,10.1007/s11664-015-4303-6,5134,3(a),6469,x=0.3,Ca0.7Eu0.3Zn2Sb2,659.5,0.000023607,0.0013907,0.00017932,1.991,0.41728,42360.3168551701,0.0006984932
10954,10.1007/s11664-015-4303-6,5134,3(a),6469,x=0.3,Ca0.7Eu0.3Zn2Sb2,660,0.00002362,0.0013914,0.00017941,1.9891,0.41781,42337.0025402201,0.0006995123
10954,10.1007/s11664-015-4303-6,5134,3(a),6469,x=0.3,Ca0.7Eu0.3Zn2Sb2,660.5,0.000023633,0.0013921,0.0001795,1.9872,0.41834,42313.7138746668,0.0007005334
10954,10.1007/s11664-015-4303-6,5134,3(a),6469,x=0.3,Ca0.7Eu0.3Zn2Sb2,661,0.000023647,0.0013927,0.00017959,1.9853,0.41887,42288.662409608,0.0007015061
10954,10.1007/s11664-015-4303-6,5134,3(a),6469,x=0.3,Ca0.7Eu0.3Zn2Sb2,661.5,0.00002366,0.0013934,0.00017968,1.9834,0.4194,42265.4268808115,0.000702531
10954,10.1007/s11664-015-4303-6,5134,3(a),6469,x=0.3,Ca0.7Eu0.3Zn2Sb2,662,0.000023673,0.0013941,0.00017978,1.9815,0.41993,42242.2168715414,0.0007035579
10954,10.1007/s11664-015-4303-6,5134,3(a),6469,x=0.3,Ca0.7Eu0.3Zn2Sb2,662.5,0.000023687,0.0013948,0.00017987,1.9796,0.42045,42217.2499683371,0.0007045868
10954,10.1007/s11664-015-4303-6,5134,3(a),6469,x=0.3,Ca0.7Eu0.3Zn2Sb2,663,0.0000237,0.0013955,0.00017996,1.9777,0.42098,42194.0928270042,0.0007056176
10954,10.1007/s11664-015-4303-6,5134,3(a),6469,x=0.3,Ca0.7Eu0.3Zn2Sb2,663.5,0.000023713,0.0013961,0.00018005,1.9759,0.42151,42170.9610762029,0.0007065641
10954,10.1007/s11664-015-4303-6,5134,3(a),6469,x=0.3,Ca0.7Eu0.3Zn2Sb2,664,0.000023727,0.0013968,0.00018015,1.974,0.42204,42146.0783074135,0.0007075988
10954,10.1007/s11664-015-4303-6,5134,3(a),6469,x=0.3,Ca0.7Eu0.3Zn2Sb2,664.5,0.00002374,0.0013975,0.00018024,1.9721,0.42257,42122.99915754,0.0007086355
10954,10.1007/s11664-015-4303-6,5134,3(a),6469,x=0.3,Ca0.7Eu0.3Zn2Sb2,665,0.000023754,0.0013982,0.00018033,1.9702,0.4231,42098.1729392944,0.0007096741
10954,10.1007/s11664-015-4303-6,5134,3(a),6469,x=0.3,Ca0.7Eu0.3Zn2Sb2,665.5,0.000023767,0.0013989,0.00018042,1.9683,0.42363,42075.1462111331,0.0007107148
10954,10.1007/s11664-015-4303-6,5134,3(a),6469,x=0.3,Ca0.7Eu0.3Zn2Sb2,666,0.00002378,0.0013995,0.00018052,1.9664,0.42415,42052.1446593776,0.0007117067
10954,10.1007/s11664-015-4303-6,5134,3(a),6469,x=0.3,Ca0.7Eu0.3Zn2Sb2,666.5,0.000023794,0.0014002,0.00018061,1.9645,0.42468,42027.4018660166,0.0007127513
10954,10.1007/s11664-015-4303-6,5134,3(a),6469,x=0.3,Ca0.7Eu0.3Zn2Sb2,667,0.000023807,0.0014009,0.0001807,1.9626,0.42521,42004.452471962,0.000713798
10954,10.1007/s11664-015-4303-6,5134,3(a),6469,x=0.3,Ca0.7Eu0.3Zn2Sb2,667.5,0.00002382,0.0014016,0.00018079,1.9608,0.42574,41981.5281276238,0.0007148103
10954,10.1007/s11664-015-4303-6,5134,3(a),6469,x=0.3,Ca0.7Eu0.3Zn2Sb2,668,0.000023834,0.0014023,0.00018089,1.9589,0.42627,41956.8683393472,0.0007158609
10954,10.1007/s11664-015-4303-6,5134,3(a),6469,x=0.3,Ca0.7Eu0.3Zn2Sb2,668.5,0.000023847,0.001403,0.00018098,1.957,0.4268,41933.9958904684,0.0007169136
10954,10.1007/s11664-015-4303-6,5134,3(a),6469,x=0.3,Ca0.7Eu0.3Zn2Sb2,669,0.00002386,0.0014036,0.00018107,1.9551,0.42733,41911.1483654652,0.0007179172
10954,10.1007/s11664-015-4303-6,5134,3(a),6469,x=0.3,Ca0.7Eu0.3Zn2Sb2,669.5,0.000023874,0.0014043,0.00018116,1.9532,0.42785,41886.5711652844,0.000718974
10954,10.1007/s11664-015-4303-6,5134,3(a),6469,x=0.3,Ca0.7Eu0.3Zn2Sb2,670,0.000023887,0.001405,0.00018125,1.9513,0.42838,41863.7752752543,0.0007200328
10954,10.1007/s11664-015-4303-6,5134,3(a),6469,x=0.3,Ca0.7Eu0.3Zn2Sb2,670.5,0.0000239,0.0014057,0.00018135,1.9494,0.42891,41841.0041841004,0.0007210937
10954,10.1007/s11664-015-4303-6,5134,3(a),6469,x=0.3,Ca0.7Eu0.3Zn2Sb2,671,0.000023914,0.0014064,0.00018144,1.9475,0.42944,41816.5091578155,0.0007221566
10954,10.1007/s11664-015-4303-6,5134,3(a),6469,x=0.3,Ca0.7Eu0.3Zn2Sb2,671.5,0.000023927,0.001407,0.00018153,1.9457,0.42997,41793.7894428888,0.0007231331
10954,10.1007/s11664-015-4303-6,5134,3(a),6469,x=0.3,Ca0.7Eu0.3Zn2Sb2,672,0.00002394,0.0014077,0.00018162,1.9438,0.4305,41771.0944026733,0.0007242
10954,10.1007/s11664-015-4303-6,5134,3(a),6469,x=0.3,Ca0.7Eu0.3Zn2Sb2,672.5,0.000023954,0.0014084,0.00018172,1.9419,0.43103,41746.6811388495,0.0007252691
10954,10.1007/s11664-015-4303-6,5134,3(a),6469,x=0.3,Ca0.7Eu0.3Zn2Sb2,673,0.000023967,0.0014091,0.00018181,1.94,0.43156,41724.0372178412,0.0007263402
10954,10.1007/s11664-015-4303-6,5134,3(a),6469,x=0.3,Ca0.7Eu0.3Zn2Sb2,673.5,0.00002398,0.0014098,0.0001819,1.9381,0.43208,41701.4178482068,0.0007274134
10954,10.1007/s11664-015-4303-6,5134,3(a),6469,x=0.3,Ca0.7Eu0.3Zn2Sb2,674,0.000023994,0.0014104,0.00018199,1.9362,0.43261,41677.0859381512,0.0007284371
10954,10.1007/s11664-015-4303-6,5134,3(a),6469,x=0.3,Ca0.7Eu0.3Zn2Sb2,674.5,0.000024007,0.0014111,0.00018209,1.9343,0.43314,41654.5174324155,0.0007295146
10954,10.1007/s11664-015-4303-6,5134,3(a),6469,x=0.3,Ca0.7Eu0.3Zn2Sb2,675,0.00002402,0.0014118,0.00018218,1.9324,0.43367,41631.9733555371,0.0007305941
10954,10.1007/s11664-015-4303-6,5134,3(a),6469,x=0.3,Ca0.7Eu0.3Zn2Sb2,675.5,0.000024034,0.0014125,0.00018227,1.9306,0.4342,41607.7223932762,0.0007316378
10954,10.1007/s11664-015-4303-6,5134,3(a),6469,x=0.3,Ca0.7Eu0.3Zn2Sb2,676,0.000024047,0.0014132,0.00018236,1.9287,0.43473,41585.2289266852,0.0007327215
10954,10.1007/s11664-015-4303-6,5134,3(a),6469,x=0.3,Ca0.7Eu0.3Zn2Sb2,676.5,0.00002406,0.0014138,0.00018245,1.9268,0.43526,41562.7597672485,0.0007337554
10954,10.1007/s11664-015-4303-6,5134,3(a),6469,x=0.3,Ca0.7Eu0.3Zn2Sb2,677,0.000024074,0.0014145,0.00018255,1.9249,0.43578,41538.5893495057,0.0007348434
10954,10.1007/s11664-015-4303-6,5134,3(a),6469,x=0.3,Ca0.7Eu0.3Zn2Sb2,677.5,0.000024087,0.0014152,0.00018264,1.923,0.43631,41516.1705484286,0.0007359334
10954,10.1007/s11664-015-4303-6,5134,3(a),6469,x=0.3,Ca0.7Eu0.3Zn2Sb2,678,0.000024101,0.0014159,0.00018273,1.9211,0.43684,41492.054271607,0.0007370257
10954,10.1007/s11664-015-4303-6,5134,3(a),6469,x=0.3,Ca0.7Eu0.3Zn2Sb2,678.5,0.000024114,0.0014166,0.00018282,1.9192,0.43737,41469.6856597827,0.0007381201
10954,10.1007/s11664-015-4303-6,5134,3(a),6469,x=0.3,Ca0.7Eu0.3Zn2Sb2,679,0.000024127,0.0014172,0.00018292,1.9173,0.4379,41447.341153065,0.0007391645
10954,10.1007/s11664-015-4303-6,5134,3(a),6469,x=0.3,Ca0.7Eu0.3Zn2Sb2,679.5,0.000024141,0.0014179,0.00018301,1.9155,0.43843,41423.3047512531,0.0007402245
10954,10.1007/s11664-015-4303-6,5134,3(a),6469,x=0.3,Ca0.7Eu0.3Zn2Sb2,680,0.000024154,0.0014186,0.0001831,1.9136,0.43896,41401.0101846485,0.0007413253
10954,10.1007/s11664-015-4303-6,5134,3(a),6469,x=0.3,Ca0.7Eu0.3Zn2Sb2,680.5,0.000024167,0.0014193,0.00018319,1.9117,0.43948,41378.7396035917,0.0007424282
10954,10.1007/s11664-015-4303-6,5134,3(a),6469,x=0.3,Ca0.7Eu0.3Zn2Sb2,681,0.000024181,0.00142,0.00018329,1.9098,0.44001,41354.782680617,0.0007435334
10954,10.1007/s11664-015-4303-6,5134,3(a),6469,x=0.3,Ca0.7Eu0.3Zn2Sb2,681.5,0.000024194,0.0014206,0.00018338,1.9079,0.44054,41332.5617921799,0.0007445883
10954,10.1007/s11664-015-4303-6,5134,3(a),6469,x=0.3,Ca0.7Eu0.3Zn2Sb2,682,0.000024207,0.0014213,0.00018347,1.906,0.44107,41310.3647705209,0.0007456978
10954,10.1007/s11664-015-4303-6,5134,3(a),6469,x=0.3,Ca0.7Eu0.3Zn2Sb2,682.5,0.000024221,0.001422,0.00018356,1.9041,0.4416,41286.4869328269,0.0007468095
10954,10.1007/s11664-015-4303-6,5134,3(a),6469,x=0.3,Ca0.7Eu0.3Zn2Sb2,683,0.000024234,0.0014227,0.00018366,1.9022,0.44213,41264.3393579269,0.0007479235
10954,10.1007/s11664-015-4303-6,5134,3(a),6469,x=0.3,Ca0.7Eu0.3Zn2Sb2,683.5,0.000024247,0.0014234,0.00018375,1.9004,0.44266,41242.2155318184,0.0007490002
10954,10.1007/s11664-015-4303-6,5134,3(a),6469,x=0.3,Ca0.7Eu0.3Zn2Sb2,684,0.000024261,0.001424,0.00018384,1.8985,0.44318,41218.4163884424,0.0007500658
10954,10.1007/s11664-015-4303-6,5134,3(a),6469,x=0.3,Ca0.7Eu0.3Zn2Sb2,684.5,0.000024274,0.0014247,0.00018393,1.8966,0.44371,41196.3417648513,0.0007511863
10954,10.1007/s11664-015-4303-6,5134,3(a),6469,x=0.3,Ca0.7Eu0.3Zn2Sb2,685,0.000024287,0.0014254,0.00018402,1.8947,0.44424,41174.2907728414,0.0007523091
10954,10.1007/s11664-015-4303-6,5134,3(a),6469,x=0.3,Ca0.7Eu0.3Zn2Sb2,685.5,0.000024301,0.0014261,0.00018412,1.8928,0.44477,41150.5699353936,0.0007534341
10954,10.1007/s11664-015-4303-6,5134,3(a),6469,x=0.3,Ca0.7Eu0.3Zn2Sb2,686,0.000024314,0.0014268,0.00018421,1.8909,0.4453,41128.5679032656,0.0007545613
10954,10.1007/s11664-015-4303-6,5134,3(a),6469,x=0.3,Ca0.7Eu0.3Zn2Sb2,686.5,0.000024327,0.0014274,0.0001843,1.889,0.44583,41106.5893862786,0.0007556379
10954,10.1007/s11664-015-4303-6,5134,3(a),6469,x=0.3,Ca0.7Eu0.3Zn2Sb2,687,0.000024341,0.0014281,0.00018439,1.8871,0.44636,41082.9464689208,0.0007567696
10954,10.1007/s11664-015-4303-6,5134,3(a),6469,x=0.3,Ca0.7Eu0.3Zn2Sb2,687.5,0.000024354,0.0014288,0.00018449,1.8853,0.44688,41061.0166707728,0.0007578635
10954,10.1007/s11664-015-4303-6,5134,3(a),6469,x=0.3,Ca0.7Eu0.3Zn2Sb2,688,0.000024367,0.0014295,0.00018458,1.8834,0.44741,41039.1102720893,0.0007589997
10954,10.1007/s11664-015-4303-6,5134,3(a),6469,x=0.3,Ca0.7Eu0.3Zn2Sb2,688.5,0.000024381,0.0014302,0.00018467,1.8815,0.44794,41015.5448915139,0.0007601382
10954,10.1007/s11664-015-4303-6,5134,3(a),6469,x=0.3,Ca0.7Eu0.3Zn2Sb2,689,0.000024394,0.0014308,0.00018476,1.8796,0.44847,40993.6869722063,0.0007612258
10954,10.1007/s11664-015-4303-6,5134,3(a),6469,x=0.3,Ca0.7Eu0.3Zn2Sb2,689.5,0.000024407,0.0014315,0.00018486,1.8777,0.449,40971.8523374442,0.0007623689
10954,10.1007/s11664-015-4303-6,5134,3(a),6469,x=0.3,Ca0.7Eu0.3Zn2Sb2,690,0.000024421,0.0014322,0.00018495,1.8758,0.44953,40948.3641128537,0.0007635142
10954,10.1007/s11664-015-4303-6,5134,3(a),6469,x=0.3,Ca0.7Eu0.3Zn2Sb2,690.5,0.000024434,0.0014329,0.00018504,1.8739,0.45006,40926.5777195711,0.0007646619
10954,10.1007/s11664-015-4303-6,5134,3(a),6469,x=0.3,Ca0.7Eu0.3Zn2Sb2,691,0.000024448,0.0014336,0.00018513,1.872,0.45058,40903.1413612565,0.000765812
10954,10.1007/s11664-015-4303-6,5134,3(a),6469,x=0.3,Ca0.7Eu0.3Zn2Sb2,691.5,0.000024461,0.0014342,0.00018522,1.8702,0.45111,40881.4030497527,0.0007668699
10954,10.1007/s11664-015-4303-6,5134,3(a),6469,x=0.3,Ca0.7Eu0.3Zn2Sb2,692,0.000024474,0.0014349,0.00018532,1.8683,0.45164,40859.687831985,0.0007680244
10954,10.1007/s11664-015-4303-6,5134,3(a),6469,x=0.3,Ca0.7Eu0.3Zn2Sb2,692.5,0.000024488,0.0014356,0.00018541,1.8664,0.45217,40836.3279973865,0.0007691813
10954,10.1007/s11664-015-4303-6,5134,3(a),6469,x=0.3,Ca0.7Eu0.3Zn2Sb2,693,0.000024501,0.0014363,0.0001855,1.8645,0.4527,40814.6606260969,0.0007703406
10954,10.1007/s11664-015-4303-6,5134,3(a),6469,x=0.3,Ca0.7Eu0.3Zn2Sb2,693.5,0.000024514,0.001437,0.00018559,1.8626,0.45323,40793.0162356205,0.0007715022
10954,10.1007/s11664-015-4303-6,5134,3(a),6469,x=0.3,Ca0.7Eu0.3Zn2Sb2,694,0.000024528,0.0014376,0.00018569,1.8607,0.45376,40769.7325505545,0.0007726125
10954,10.1007/s11664-015-4303-6,5134,3(a),6469,x=0.3,Ca0.7Eu0.3Zn2Sb2,694.5,0.000024541,0.0014383,0.00018578,1.8588,0.45428,40748.1357727884,0.0007737788
10954,10.1007/s11664-015-4303-6,5134,3(a),6469,x=0.3,Ca0.7Eu0.3Zn2Sb2,695,0.000024554,0.001439,0.00018587,1.8569,0.45481,40726.5618636475,0.0007749475
10954,10.1007/s11664-015-4303-6,5134,3(a),6469,x=0.3,Ca0.7Eu0.3Zn2Sb2,695.5,0.000024568,0.0014397,0.00018596,1.8551,0.45534,40703.353956366,0.0007760768
10954,10.1007/s11664-015-4303-6,5134,3(a),6469,x=0.3,Ca0.7Eu0.3Zn2Sb2,696,0.000024581,0.0014404,0.00018606,1.8532,0.45587,40681.827427688,0.0007772502
10954,10.1007/s11664-015-4303-6,5134,3(a),6469,x=0.3,Ca0.7Eu0.3Zn2Sb2,696.5,0.000024594,0.001441,0.00018615,1.8513,0.4564,40660.3236561763,0.000778372
10954,10.1007/s11664-015-4303-6,5134,3(a),6469,x=0.3,Ca0.7Eu0.3Zn2Sb2,697,0.000024608,0.0014417,0.00018624,1.8494,0.45693,40637.1911573472,0.0007795501
10954,10.1007/s11664-015-4303-6,5134,3(a),6469,x=0.3,Ca0.7Eu0.3Zn2Sb2,697.5,0.000024621,0.0014424,0.00018633,1.8475,0.45746,40615.7345355591,0.0007807307
10954,10.1007/s11664-015-4303-6,5134,3(a),6469,x=0.3,Ca0.7Eu0.3Zn2Sb2,698,0.000024634,0.0014431,0.00018642,1.8456,0.45799,40594.3005602013,0.0007819137
10954,10.1007/s11664-015-4303-6,5134,3(a),6469,x=0.3,Ca0.7Eu0.3Zn2Sb2,698.5,0.000024648,0.0014438,0.00018652,1.8437,0.45851,40571.2431028887,0.0007830992
10954,10.1007/s11664-015-4303-6,5134,3(a),6469,x=0.3,Ca0.7Eu0.3Zn2Sb2,699,0.000024661,0.0014444,0.00018661,1.8418,0.45904,40549.856048011,0.0007842328
10954,10.1007/s11664-015-4303-6,5134,3(a),6469,x=0.3,Ca0.7Eu0.3Zn2Sb2,699.5,0.000024674,0.0014451,0.0001867,1.84,0.45957,40528.4915295453,0.0007853804
10954,10.1007/s11664-015-4303-6,5134,3(a),6469,x=0.3,Ca0.7Eu0.3Zn2Sb2,700,0.000024688,0.0014458,0.00018679,1.8381,0.4601,40505.5087491899,0.0007865731
10954,10.1007/s11664-015-4303-6,5134,3(a),6469,x=0.3,Ca0.7Eu0.3Zn2Sb2,700.5,0.000024701,0.0014465,0.00018689,1.8362,0.46063,40484.1909234444,0.0007877682
10954,10.1007/s11664-015-4303-6,5134,3(a),6469,x=0.3,Ca0.7Eu0.3Zn2Sb2,701,0.000024714,0.0014472,0.00018698,1.8343,0.46116,40462.8955248038,0.0007889658
10954,10.1007/s11664-015-4303-6,5134,3(a),6469,x=0.3,Ca0.7Eu0.3Zn2Sb2,701.5,0.000024728,0.0014478,0.00018707,1.8324,0.46169,40439.9870592041,0.0007901113
10954,10.1007/s11664-015-4303-6,5134,3(a),6469,x=0.3,Ca0.7Eu0.3Zn2Sb2,702,0.000024741,0.0014485,0.00018716,1.8305,0.46221,40418.7381269957,0.0007913138
10954,10.1007/s11664-015-4303-6,5134,3(a),6469,x=0.3,Ca0.7Eu0.3Zn2Sb2,702.5,0.000024754,0.0014492,0.00018726,1.8286,0.46274,40397.5115132908,0.0007925189
10954,10.1007/s11664-015-4303-6,5134,3(a),6469,x=0.3,Ca0.7Eu0.3Zn2Sb2,703,0.000024768,0.0014499,0.00018735,1.8267,0.46327,40374.677002584,0.0007937264
10954,10.1007/s11664-015-4303-6,5134,3(a),6469,x=0.3,Ca0.7Eu0.3Zn2Sb2,703.5,0.000024781,0.0014506,0.00018744,1.8249,0.4638,40353.496630483,0.0007948929
10954,10.1007/s11664-015-4303-6,5134,3(a),6469,x=0.3,Ca0.7Eu0.3Zn2Sb2,704,0.000024795,0.0014512,0.00018753,1.823,0.46433,40330.7118370639,0.0007960505
10954,10.1007/s11664-015-4303-6,5134,3(a),6469,x=0.3,Ca0.7Eu0.3Zn2Sb2,704.5,0.000024808,0.0014519,0.00018763,1.8211,0.46486,40309.5775556272,0.0007972654
10954,10.1007/s11664-015-4303-6,5134,3(a),6469,x=0.3,Ca0.7Eu0.3Zn2Sb2,705,0.000024821,0.0014526,0.00018772,1.8192,0.46539,40288.4654123524,0.0007984828
10954,10.1007/s11664-015-4303-6,5134,3(a),6469,x=0.3,Ca0.7Eu0.3Zn2Sb2,705.5,0.000024835,0.0014533,0.00018781,1.8173,0.46591,40265.7539762432,0.0007997029
10954,10.1007/s11664-015-4303-6,5134,3(a),6469,x=0.3,Ca0.7Eu0.3Zn2Sb2,706,0.000024848,0.001454,0.0001879,1.8154,0.46644,40244.6877012234,0.0008009254
10954,10.1007/s11664-015-4303-6,5134,3(a),6469,x=0.3,Ca0.7Eu0.3Zn2Sb2,706.5,0.000024861,0.0014546,0.00018799,1.8135,0.46697,40223.6434576244,0.0008020954
10954,10.1007/s11664-015-4303-6,5134,3(a),6469,x=0.3,Ca0.7Eu0.3Zn2Sb2,707,0.000024875,0.0014553,0.00018809,1.8116,0.4675,40201.0050251256,0.000803323
10954,10.1007/s11664-015-4303-6,5134,3(a),6469,x=0.3,Ca0.7Eu0.3Zn2Sb2,707.5,0.000024888,0.001456,0.00018818,1.8098,0.46803,40180.006428801,0.0008045088
10954,10.1007/s11664-015-4303-6,5134,3(a),6469,x=0.3,Ca0.7Eu0.3Zn2Sb2,708,0.000024901,0.0014567,0.00018827,1.8079,0.46856,40159.029757841,0.0008057415
10954,10.1007/s11664-015-4303-6,5134,3(a),6469,x=0.3,Ca0.7Eu0.3Zn2Sb2,708.5,0.000024915,0.0014574,0.00018836,1.806,0.46909,40136.4639775236,0.0008069767
10954,10.1007/s11664-015-4303-6,5134,3(a),6469,x=0.3,Ca0.7Eu0.3Zn2Sb2,709,0.000024928,0.001458,0.00018846,1.8041,0.46961,40115.5327342747,0.0008081592
10954,10.1007/s11664-015-4303-6,5134,3(a),6469,x=0.3,Ca0.7Eu0.3Zn2Sb2,709.5,0.000024941,0.0014587,0.00018855,1.8022,0.47014,40094.623311014,0.0008093996
10954,10.1007/s11664-015-4303-6,5134,3(a),6469,x=0.3,Ca0.7Eu0.3Zn2Sb2,710,0.000024955,0.0014594,0.00018864,1.8003,0.47067,40072.1298337007,0.0008106427
10954,10.1007/s11664-015-4303-6,5134,3(a),6469,x=0.3,Ca0.7Eu0.3Zn2Sb2,710.5,0.000024968,0.0014601,0.00018873,1.7984,0.4712,40051.2656199936,0.0008118883