sid,DOI,figureid,fignum,sampleid,samplename,composition,Temperature,Electrical resistivity,Power factor,Seebeck coefficient,Thermal conductivity,ZT,Electrical conductivity,Figure of merit Z
73,10.1016/j.actamat.2015.04.023,4591,3(a),5859,x=0.0125,Mg2.9875Na0.0125Sb2,411,0.00004074,0.00036065,0.00011218,1.5143,0.13913,24545.9008345606,0.0002381628
73,10.1016/j.actamat.2015.04.023,4591,3(a),5859,x=0.0125,Mg2.9875Na0.0125Sb2,411.5,0.000040747,0.00036125,0.00011229,1.5134,0.13976,24541.6840503595,0.0002387009
73,10.1016/j.actamat.2015.04.023,4591,3(a),5859,x=0.0125,Mg2.9875Na0.0125Sb2,412,0.000040753,0.00036186,0.00011241,1.5125,0.14038,24538.0708168724,0.0002392463
73,10.1016/j.actamat.2015.04.023,4591,3(a),5859,x=0.0125,Mg2.9875Na0.0125Sb2,412.5,0.00004076,0.00036247,0.00011252,1.5116,0.141,24533.8567222767,0.0002397923
73,10.1016/j.actamat.2015.04.023,4591,3(a),5859,x=0.0125,Mg2.9875Na0.0125Sb2,413,0.000040766,0.00036308,0.00011263,1.5107,0.14162,24530.2457930628,0.0002403389
73,10.1016/j.actamat.2015.04.023,4591,3(a),5859,x=0.0125,Mg2.9875Na0.0125Sb2,413.5,0.000040773,0.00036368,0.00011274,1.5098,0.14225,24526.0343855002,0.0002408796
73,10.1016/j.actamat.2015.04.023,4591,3(a),5859,x=0.0125,Mg2.9875Na0.0125Sb2,414,0.00004078,0.00036429,0.00011285,1.5089,0.14287,24521.8244237371,0.0002414275
73,10.1016/j.actamat.2015.04.023,4591,3(a),5859,x=0.0125,Mg2.9875Na0.0125Sb2,414.5,0.000040786,0.0003649,0.00011296,1.508,0.14349,24518.2170352572,0.0002419761
73,10.1016/j.actamat.2015.04.023,4591,3(a),5859,x=0.0125,Mg2.9875Na0.0125Sb2,415,0.000040793,0.00036551,0.00011307,1.5071,0.14411,24514.0097565759,0.0002425254
73,10.1016/j.actamat.2015.04.023,4591,3(a),5859,x=0.0125,Mg2.9875Na0.0125Sb2,415.5,0.000040799,0.00036611,0.00011318,1.5061,0.14474,24510.404666781,0.0002430848
73,10.1016/j.actamat.2015.04.023,4591,3(a),5859,x=0.0125,Mg2.9875Na0.0125Sb2,416,0.000040806,0.00036672,0.0001133,1.5052,0.14536,24506.2000686174,0.0002436354
73,10.1016/j.actamat.2015.04.023,4591,3(a),5859,x=0.0125,Mg2.9875Na0.0125Sb2,416.5,0.000040813,0.00036733,0.00011341,1.5043,0.14598,24501.9969127484,0.0002441867
73,10.1016/j.actamat.2015.04.023,4591,3(a),5859,x=0.0125,Mg2.9875Na0.0125Sb2,417,0.000040819,0.00036794,0.00011352,1.5034,0.1466,24498.3953551042,0.0002447386
73,10.1016/j.actamat.2015.04.023,4591,3(a),5859,x=0.0125,Mg2.9875Na0.0125Sb2,417.5,0.000040826,0.00036854,0.00011363,1.5025,0.14723,24494.1948758144,0.0002452845
73,10.1016/j.actamat.2015.04.023,4591,3(a),5859,x=0.0125,Mg2.9875Na0.0125Sb2,418,0.000040832,0.00036915,0.00011374,1.5016,0.14785,24490.5956112853,0.0002458378
73,10.1016/j.actamat.2015.04.023,4591,3(a),5859,x=0.0125,Mg2.9875Na0.0125Sb2,418.5,0.000040839,0.00036976,0.00011385,1.5007,0.14847,24486.3978060188,0.0002463917
73,10.1016/j.actamat.2015.04.023,4591,3(a),5859,x=0.0125,Mg2.9875Na0.0125Sb2,419,0.000040846,0.00037037,0.00011396,1.4998,0.14909,24482.2014395534,0.0002469463
73,10.1016/j.actamat.2015.04.023,4591,3(a),5859,x=0.0125,Mg2.9875Na0.0125Sb2,419.5,0.000040852,0.00037098,0.00011407,1.4989,0.14971,24478.6056986194,0.0002475015
73,10.1016/j.actamat.2015.04.023,4591,3(a),5859,x=0.0125,Mg2.9875Na0.0125Sb2,420,0.000040859,0.00037158,0.00011419,1.498,0.15034,24474.4120022516,0.0002480507
73,10.1016/j.actamat.2015.04.023,4591,3(a),5859,x=0.0125,Mg2.9875Na0.0125Sb2,420.5,0.000040865,0.00037219,0.0001143,1.4971,0.15096,24470.8185488805,0.0002486073
73,10.1016/j.actamat.2015.04.023,4591,3(a),5859,x=0.0125,Mg2.9875Na0.0125Sb2,421,0.000040872,0.0003728,0.00011441,1.4962,0.15158,24466.6275200626,0.0002491646
73,10.1016/j.actamat.2015.04.023,4591,3(a),5859,x=0.0125,Mg2.9875Na0.0125Sb2,421.5,0.000040879,0.00037341,0.00011452,1.4953,0.1522,24462.4379265638,0.0002497225
73,10.1016/j.actamat.2015.04.023,4591,3(a),5859,x=0.0125,Mg2.9875Na0.0125Sb2,422,0.000040885,0.00037401,0.00011463,1.4943,0.15283,24458.8479882598,0.0002502911
73,10.1016/j.actamat.2015.04.023,4591,3(a),5859,x=0.0125,Mg2.9875Na0.0125Sb2,422.5,0.000040892,0.00037462,0.00011474,1.4934,0.15345,24454.6610583977,0.0002508504
73,10.1016/j.actamat.2015.04.023,4591,3(a),5859,x=0.0125,Mg2.9875Na0.0125Sb2,423,0.000040899,0.00037523,0.00011485,1.4925,0.15407,24450.4755617497,0.0002514104
73,10.1016/j.actamat.2015.04.023,4591,3(a),5859,x=0.0125,Mg2.9875Na0.0125Sb2,423.5,0.000040905,0.00037584,0.00011496,1.4916,0.15469,24446.8891333578,0.000251971
73,10.1016/j.actamat.2015.04.023,4591,3(a),5859,x=0.0125,Mg2.9875Na0.0125Sb2,424,0.000040912,0.00037644,0.00011507,1.4907,0.15532,24442.7062964411,0.0002525257
73,10.1016/j.actamat.2015.04.023,4591,3(a),5859,x=0.0125,Mg2.9875Na0.0125Sb2,424.5,0.000040918,0.00037705,0.00011519,1.4898,0.15594,24439.1221467325,0.0002530877
73,10.1016/j.actamat.2015.04.023,4591,3(a),5859,x=0.0125,Mg2.9875Na0.0125Sb2,425,0.000040925,0.00037766,0.0001153,1.4889,0.15656,24434.9419670128,0.0002536503
73,10.1016/j.actamat.2015.04.023,4591,3(a),5859,x=0.0125,Mg2.9875Na0.0125Sb2,425.5,0.000040932,0.00037827,0.00011541,1.488,0.15718,24430.7632170429,0.0002542137
73,10.1016/j.actamat.2015.04.023,4591,3(a),5859,x=0.0125,Mg2.9875Na0.0125Sb2,426,0.000040938,0.00037887,0.00011552,1.4871,0.15781,24427.1825687625,0.000254771
73,10.1016/j.actamat.2015.04.023,4591,3(a),5859,x=0.0125,Mg2.9875Na0.0125Sb2,426.5,0.000040945,0.00037948,0.00011563,1.4862,0.15843,24423.0064720967,0.0002553358
73,10.1016/j.actamat.2015.04.023,4591,3(a),5859,x=0.0125,Mg2.9875Na0.0125Sb2,427,0.000040951,0.00038009,0.00011574,1.4853,0.15905,24419.428096994,0.0002559012
73,10.1016/j.actamat.2015.04.023,4591,3(a),5859,x=0.0125,Mg2.9875Na0.0125Sb2,427.5,0.000040958,0.0003807,0.00011585,1.4844,0.15967,24415.254651106,0.0002564673
73,10.1016/j.actamat.2015.04.023,4591,3(a),5859,x=0.0125,Mg2.9875Na0.0125Sb2,428,0.000040965,0.0003813,0.00011596,1.4835,0.16029,24411.0826315147,0.0002570273
73,10.1016/j.actamat.2015.04.023,4591,3(a),5859,x=0.0125,Mg2.9875Na0.0125Sb2,428.5,0.000040971,0.00038191,0.00011608,1.4826,0.16092,24407.5077493837,0.0002575948
73,10.1016/j.actamat.2015.04.023,4591,3(a),5859,x=0.0125,Mg2.9875Na0.0125Sb2,429,0.000040978,0.00038252,0.00011619,1.4816,0.16154,24403.3383766899,0.0002581803
73,10.1016/j.actamat.2015.04.023,4591,3(a),5859,x=0.0125,Mg2.9875Na0.0125Sb2,429.5,0.000040984,0.00038313,0.0001163,1.4807,0.16216,24399.7657622487,0.0002587492
73,10.1016/j.actamat.2015.04.023,4591,3(a),5859,x=0.0125,Mg2.9875Na0.0125Sb2,430,0.000040991,0.00038373,0.00011641,1.4798,0.16278,24395.5990339343,0.0002593121
73,10.1016/j.actamat.2015.04.023,4591,3(a),5859,x=0.0125,Mg2.9875Na0.0125Sb2,430.5,0.000040998,0.00038434,0.00011652,1.4789,0.16341,24391.4337284746,0.0002598823
73,10.1016/j.actamat.2015.04.023,4591,3(a),5859,x=0.0125,Mg2.9875Na0.0125Sb2,431,0.000041004,0.00038495,0.00011663,1.478,0.16403,24387.8645985757,0.0002604533
73,10.1016/j.actamat.2015.04.023,4591,3(a),5859,x=0.0125,Mg2.9875Na0.0125Sb2,431.5,0.000041011,0.00038556,0.00011674,1.4771,0.16465,24383.7019336276,0.000261025
73,10.1016/j.actamat.2015.04.023,4591,3(a),5859,x=0.0125,Mg2.9875Na0.0125Sb2,432,0.000041017,0.00038616,0.00011685,1.4762,0.16527,24380.1350659483,0.0002615906
73,10.1016/j.actamat.2015.04.023,4591,3(a),5859,x=0.0125,Mg2.9875Na0.0125Sb2,432.5,0.000041024,0.00038677,0.00011696,1.4753,0.1659,24375.9750390016,0.0002621636
73,10.1016/j.actamat.2015.04.023,4591,3(a),5859,x=0.0125,Mg2.9875Na0.0125Sb2,433,0.000041031,0.00038738,0.00011708,1.4744,0.16652,24371.8164314786,0.0002627374
73,10.1016/j.actamat.2015.04.023,4591,3(a),5859,x=0.0125,Mg2.9875Na0.0125Sb2,433.5,0.000041037,0.00038799,0.00011719,1.4735,0.16714,24368.2530399396,0.0002633118
73,10.1016/j.actamat.2015.04.023,4591,3(a),5859,x=0.0125,Mg2.9875Na0.0125Sb2,434,0.000041044,0.00038859,0.0001173,1.4726,0.16776,24364.0970665627,0.0002638802
73,10.1016/j.actamat.2015.04.023,4591,3(a),5859,x=0.0125,Mg2.9875Na0.0125Sb2,434.5,0.00004105,0.0003892,0.00011741,1.4717,0.16839,24360.5359317905,0.0002644561
73,10.1016/j.actamat.2015.04.023,4591,3(a),5859,x=0.0125,Mg2.9875Na0.0125Sb2,435,0.000041057,0.00038981,0.00011752,1.4708,0.16901,24356.3825900577,0.0002650326
73,10.1016/j.actamat.2015.04.023,4591,3(a),5859,x=0.0125,Mg2.9875Na0.0125Sb2,435.5,0.000041064,0.00039042,0.00011763,1.4698,0.16963,24352.2306643289,0.000265628
73,10.1016/j.actamat.2015.04.023,4591,3(a),5859,x=0.0125,Mg2.9875Na0.0125Sb2,436,0.00004107,0.00039102,0.00011774,1.4689,0.17025,24348.6729973216,0.0002661992
73,10.1016/j.actamat.2015.04.023,4591,3(a),5859,x=0.0125,Mg2.9875Na0.0125Sb2,436.5,0.000041077,0.00039163,0.00011785,1.468,0.17087,24344.5236993938,0.0002667779
73,10.1016/j.actamat.2015.04.023,4591,3(a),5859,x=0.0125,Mg2.9875Na0.0125Sb2,437,0.000041083,0.00039224,0.00011797,1.4671,0.1715,24340.9682837183,0.0002673574
73,10.1016/j.actamat.2015.04.023,4591,3(a),5859,x=0.0125,Mg2.9875Na0.0125Sb2,437.5,0.00004109,0.00039285,0.00011808,1.4662,0.17212,24336.8216110976,0.0002679375
73,10.1016/j.actamat.2015.04.023,4591,3(a),5859,x=0.0125,Mg2.9875Na0.0125Sb2,438,0.000041097,0.00039346,0.00011819,1.4653,0.17274,24332.6763510719,0.0002685184
73,10.1016/j.actamat.2015.04.023,4591,3(a),5859,x=0.0125,Mg2.9875Na0.0125Sb2,438.5,0.000041103,0.00039406,0.0001183,1.4644,0.17336,24329.124394813,0.0002690931
73,10.1016/j.actamat.2015.04.023,4591,3(a),5859,x=0.0125,Mg2.9875Na0.0125Sb2,439,0.00004111,0.00039467,0.00011841,1.4635,0.17399,24324.9817562637,0.0002696754
73,10.1016/j.actamat.2015.04.023,4591,3(a),5859,x=0.0125,Mg2.9875Na0.0125Sb2,439.5,0.000041117,0.00039528,0.00011852,1.4626,0.17461,24320.8405282487,0.0002702584
73,10.1016/j.actamat.2015.04.023,4591,3(a),5859,x=0.0125,Mg2.9875Na0.0125Sb2,440,0.000041123,0.00039589,0.00011863,1.4617,0.17523,24317.2920263599,0.0002708422
73,10.1016/j.actamat.2015.04.023,4591,3(a),5859,x=0.0125,Mg2.9875Na0.0125Sb2,440.5,0.00004113,0.00039649,0.00011874,1.4608,0.17585,24313.1534159981,0.0002714198
73,10.1016/j.actamat.2015.04.023,4591,3(a),5859,x=0.0125,Mg2.9875Na0.0125Sb2,441,0.000041136,0.0003971,0.00011886,1.4599,0.17648,24309.6071567483,0.0002720049
73,10.1016/j.actamat.2015.04.023,4591,3(a),5859,x=0.0125,Mg2.9875Na0.0125Sb2,441.5,0.000041143,0.00039771,0.00011897,1.459,0.1771,24305.4711615585,0.0002725908
73,10.1016/j.actamat.2015.04.023,4591,3(a),5859,x=0.0125,Mg2.9875Na0.0125Sb2,442,0.00004115,0.00039832,0.00011908,1.4581,0.17772,24301.3365735115,0.0002731774
73,10.1016/j.actamat.2015.04.023,4591,3(a),5859,x=0.0125,Mg2.9875Na0.0125Sb2,442.5,0.000041156,0.00039892,0.00011919,1.4571,0.17834,24297.7937603266,0.0002737767
73,10.1016/j.actamat.2015.04.023,4591,3(a),5859,x=0.0125,Mg2.9875Na0.0125Sb2,443,0.000041163,0.00039953,0.0001193,1.4562,0.17897,24293.6617836406,0.0002743648
73,10.1016/j.actamat.2015.04.023,4591,3(a),5859,x=0.0125,Mg2.9875Na0.0125Sb2,443.5,0.000041169,0.00040014,0.00011941,1.4553,0.17959,24290.1212077048,0.0002749536
73,10.1016/j.actamat.2015.04.023,4591,3(a),5859,x=0.0125,Mg2.9875Na0.0125Sb2,444,0.000041176,0.00040075,0.00011952,1.4544,0.18021,24285.9918399067,0.0002755432
73,10.1016/j.actamat.2015.04.023,4591,3(a),5859,x=0.0125,Mg2.9875Na0.0125Sb2,444.5,0.000041183,0.00040135,0.00011963,1.4535,0.18083,24281.8638758711,0.0002761266
73,10.1016/j.actamat.2015.04.023,4591,3(a),5859,x=0.0125,Mg2.9875Na0.0125Sb2,445,0.000041189,0.00040196,0.00011974,1.4526,0.18145,24278.3267377212,0.0002767176
73,10.1016/j.actamat.2015.04.023,4591,3(a),5859,x=0.0125,Mg2.9875Na0.0125Sb2,445.5,0.000041196,0.00040257,0.00011986,1.4517,0.18208,24274.2013787746,0.0002773094
73,10.1016/j.actamat.2015.04.023,4591,3(a),5859,x=0.0125,Mg2.9875Na0.0125Sb2,446,0.000041202,0.00040318,0.00011997,1.4508,0.1827,24270.6664725013,0.0002779018
73,10.1016/j.actamat.2015.04.023,4591,3(a),5859,x=0.0125,Mg2.9875Na0.0125Sb2,446.5,0.000041209,0.00040378,0.00012008,1.4499,0.18332,24266.5437161785,0.0002784882
73,10.1016/j.actamat.2015.04.023,4591,3(a),5859,x=0.0125,Mg2.9875Na0.0125Sb2,447,0.000041216,0.00040439,0.00012019,1.449,0.18394,24262.4223602484,0.0002790821
73,10.1016/j.actamat.2015.04.023,4591,3(a),5859,x=0.0125,Mg2.9875Na0.0125Sb2,447.5,0.000041222,0.000405,0.0001203,1.4481,0.18457,24258.8908835088,0.0002796768
73,10.1016/j.actamat.2015.04.023,4591,3(a),5859,x=0.0125,Mg2.9875Na0.0125Sb2,448,0.000041229,0.00040561,0.00012041,1.4472,0.18519,24254.7721264159,0.0002802722
73,10.1016/j.actamat.2015.04.023,4591,3(a),5859,x=0.0125,Mg2.9875Na0.0125Sb2,448.5,0.000041235,0.00040621,0.00012052,1.4463,0.18581,24251.2428761974,0.0002808615
73,10.1016/j.actamat.2015.04.023,4591,3(a),5859,x=0.0125,Mg2.9875Na0.0125Sb2,449,0.000041242,0.00040682,0.00012063,1.4453,0.18643,24247.1267154842,0.0002814779
73,10.1016/j.actamat.2015.04.023,4591,3(a),5859,x=0.0125,Mg2.9875Na0.0125Sb2,449.5,0.000041249,0.00040743,0.00012075,1.4444,0.18706,24243.0119518049,0.0002820756
73,10.1016/j.actamat.2015.04.023,4591,3(a),5859,x=0.0125,Mg2.9875Na0.0125Sb2,450,0.000041255,0.00040804,0.00012086,1.4435,0.18768,24239.4861228942,0.0002826741
73,10.1016/j.actamat.2015.04.023,4591,3(a),5859,x=0.0125,Mg2.9875Na0.0125Sb2,450.5,0.000041262,0.00040864,0.00012097,1.4426,0.1883,24235.3739518201,0.0002832663
73,10.1016/j.actamat.2015.04.023,4591,3(a),5859,x=0.0125,Mg2.9875Na0.0125Sb2,451,0.000041268,0.00040925,0.00012108,1.4417,0.18892,24231.8503440923,0.0002838663
73,10.1016/j.actamat.2015.04.023,4591,3(a),5859,x=0.0125,Mg2.9875Na0.0125Sb2,451.5,0.000041275,0.00040986,0.00012119,1.4408,0.18954,24227.7407631738,0.000284467
73,10.1016/j.actamat.2015.04.023,4591,3(a),5859,x=0.0125,Mg2.9875Na0.0125Sb2,452,0.000041282,0.00041047,0.0001213,1.4399,0.19017,24223.6325759411,0.0002850684
73,10.1016/j.actamat.2015.04.023,4591,3(a),5859,x=0.0125,Mg2.9875Na0.0125Sb2,452.5,0.000041288,0.00041107,0.00012141,1.439,0.19079,24220.1123813214,0.0002856637
73,10.1016/j.actamat.2015.04.023,4591,3(a),5859,x=0.0125,Mg2.9875Na0.0125Sb2,453,0.000041295,0.00041168,0.00012152,1.4381,0.19141,24216.0067804819,0.0002862666
73,10.1016/j.actamat.2015.04.023,4591,3(a),5859,x=0.0125,Mg2.9875Na0.0125Sb2,453.5,0.000041302,0.00041229,0.00012163,1.4372,0.19203,24211.9025713041,0.0002868703
73,10.1016/j.actamat.2015.04.023,4591,3(a),5859,x=0.0125,Mg2.9875Na0.0125Sb2,454,0.000041308,0.0004129,0.00012175,1.4363,0.19266,24208.3857848359,0.0002874748
73,10.1016/j.actamat.2015.04.023,4591,3(a),5859,x=0.0125,Mg2.9875Na0.0125Sb2,454.5,0.000041315,0.0004135,0.00012186,1.4354,0.19328,24204.284158296,0.000288073
73,10.1016/j.actamat.2015.04.023,4591,3(a),5859,x=0.0125,Mg2.9875Na0.0125Sb2,455,0.000041321,0.00041411,0.00012197,1.4345,0.1939,24200.7695844728,0.000288679
73,10.1016/j.actamat.2015.04.023,4591,3(a),5859,x=0.0125,Mg2.9875Na0.0125Sb2,455.5,0.000041328,0.00041472,0.00012208,1.4336,0.19452,24196.670538134,0.0002892857
73,10.1016/j.actamat.2015.04.023,4591,3(a),5859,x=0.0125,Mg2.9875Na0.0125Sb2,456,0.000041335,0.00041533,0.00012219,1.4326,0.19515,24192.5728801258,0.0002899134
73,10.1016/j.actamat.2015.04.023,4591,3(a),5859,x=0.0125,Mg2.9875Na0.0125Sb2,456.5,0.000041341,0.00041594,0.0001223,1.4317,0.19577,24189.0617062964,0.0002905218
73,10.1016/j.actamat.2015.04.023,4591,3(a),5859,x=0.0125,Mg2.9875Na0.0125Sb2,457,0.000041348,0.00041654,0.00012241,1.4308,0.19639,24184.9666247461,0.0002911238
73,10.1016/j.actamat.2015.04.023,4591,3(a),5859,x=0.0125,Mg2.9875Na0.0125Sb2,457.5,0.000041354,0.00041715,0.00012252,1.4299,0.19701,24181.4576582676,0.0002917337
73,10.1016/j.actamat.2015.04.023,4591,3(a),5859,x=0.0125,Mg2.9875Na0.0125Sb2,458,0.000041361,0.00041776,0.00012264,1.429,0.19764,24177.3651507459,0.0002923443
73,10.1016/j.actamat.2015.04.023,4591,3(a),5859,x=0.0125,Mg2.9875Na0.0125Sb2,458.5,0.000041368,0.00041837,0.00012275,1.4281,0.19826,24173.2740282344,0.0002929557
73,10.1016/j.actamat.2015.04.023,4591,3(a),5859,x=0.0125,Mg2.9875Na0.0125Sb2,459,0.000041374,0.00041897,0.00012286,1.4272,0.19888,24169.7684536182,0.0002935608
73,10.1016/j.actamat.2015.04.023,4591,3(a),5859,x=0.0125,Mg2.9875Na0.0125Sb2,459.5,0.000041381,0.00041958,0.00012297,1.4263,0.1995,24165.679901404,0.0002941737
73,10.1016/j.actamat.2015.04.023,4591,3(a),5859,x=0.0125,Mg2.9875Na0.0125Sb2,460,0.000041387,0.00042019,0.00012308,1.4254,0.20012,24162.1765288617,0.0002947874
73,10.1016/j.actamat.2015.04.023,4591,3(a),5859,x=0.0125,Mg2.9875Na0.0125Sb2,460.5,0.000041394,0.0004208,0.00012319,1.4245,0.20075,24158.0905445234,0.0002954019
73,10.1016/j.actamat.2015.04.023,4591,3(a),5859,x=0.0125,Mg2.9875Na0.0125Sb2,461,0.000041401,0.0004214,0.0001233,1.4236,0.20137,24154.0059418855,0.0002960101
73,10.1016/j.actamat.2015.04.023,4591,3(a),5859,x=0.0125,Mg2.9875Na0.0125Sb2,461.5,0.000041407,0.00042201,0.00012341,1.4227,0.20199,24150.5059530997,0.0002966261
73,10.1016/j.actamat.2015.04.023,4591,3(a),5859,x=0.0125,Mg2.9875Na0.0125Sb2,462,0.000041414,0.00042262,0.00012353,1.4218,0.20261,24146.4239146182,0.0002972429
73,10.1016/j.actamat.2015.04.023,4591,3(a),5859,x=0.0125,Mg2.9875Na0.0125Sb2,462.5,0.00004142,0.00042323,0.00012364,1.4209,0.20324,24142.9261226461,0.0002978605
73,10.1016/j.actamat.2015.04.023,4591,3(a),5859,x=0.0125,Mg2.9875Na0.0125Sb2,463,0.000041427,0.00042383,0.00012375,1.4199,0.20386,24138.8466459073,0.0002984929
73,10.1016/j.actamat.2015.04.023,4591,3(a),5859,x=0.0125,Mg2.9875Na0.0125Sb2,463.5,0.000041434,0.00042444,0.00012386,1.419,0.20448,24134.7685475696,0.0002991121
73,10.1016/j.actamat.2015.04.023,4591,3(a),5859,x=0.0125,Mg2.9875Na0.0125Sb2,464,0.00004144,0.00042505,0.00012397,1.4181,0.2051,24131.2741312741,0.000299732
73,10.1016/j.actamat.2015.04.023,4591,3(a),5859,x=0.0125,Mg2.9875Na0.0125Sb2,464.5,0.000041447,0.00042566,0.00012408,1.4172,0.20573,24127.1985909716,0.0003003528
73,10.1016/j.actamat.2015.04.023,4591,3(a),5859,x=0.0125,Mg2.9875Na0.0125Sb2,465,0.000041453,0.00042626,0.00012419,1.4163,0.20635,24123.7063662461,0.0003009673
73,10.1016/j.actamat.2015.04.023,4591,3(a),5859,x=0.0125,Mg2.9875Na0.0125Sb2,465.5,0.00004146,0.00042687,0.0001243,1.4154,0.20697,24119.6333815726,0.0003015897
73,10.1016/j.actamat.2015.04.023,4591,3(a),5859,x=0.0125,Mg2.9875Na0.0125Sb2,466,0.000041467,0.00042748,0.00012441,1.4145,0.20759,24115.5617720115,0.0003022128
73,10.1016/j.actamat.2015.04.023,4591,3(a),5859,x=0.0125,Mg2.9875Na0.0125Sb2,466.5,0.000041473,0.00042809,0.00012453,1.4136,0.20822,24112.0729149085,0.0003028367
73,10.1016/j.actamat.2015.04.023,4591,3(a),5859,x=0.0125,Mg2.9875Na0.0125Sb2,467,0.00004148,0.00042869,0.00012464,1.4127,0.20884,24108.0038572806,0.0003034544
73,10.1016/j.actamat.2015.04.023,4591,3(a),5859,x=0.0125,Mg2.9875Na0.0125Sb2,467.5,0.000041486,0.0004293,0.00012475,1.4118,0.20946,24104.5171865208,0.0003040799
73,10.1016/j.actamat.2015.04.023,4591,3(a),5859,x=0.0125,Mg2.9875Na0.0125Sb2,468,0.000041493,0.00042991,0.00012486,1.4109,0.21008,24100.4506784277,0.0003047062
73,10.1016/j.actamat.2015.04.023,4591,3(a),5859,x=0.0125,Mg2.9875Na0.0125Sb2,468.5,0.0000415,0.00043052,0.00012497,1.41,0.2107,24096.3855421687,0.0003053333
73,10.1016/j.actamat.2015.04.023,4591,3(a),5859,x=0.0125,Mg2.9875Na0.0125Sb2,469,0.000041506,0.00043112,0.00012508,1.4091,0.21133,24092.9022310027,0.0003059542
73,10.1016/j.actamat.2015.04.023,4591,3(a),5859,x=0.0125,Mg2.9875Na0.0125Sb2,469.5,0.000041513,0.00043173,0.00012519,1.4081,0.21195,24088.8396405945,0.0003066046
73,10.1016/j.actamat.2015.04.023,4591,3(a),5859,x=0.0125,Mg2.9875Na0.0125Sb2,470,0.00004152,0.00043234,0.0001253,1.4072,0.21257,24084.7784200385,0.0003072342
73,10.1016/j.actamat.2015.04.023,4591,3(a),5859,x=0.0125,Mg2.9875Na0.0125Sb2,470.5,0.000041526,0.00043295,0.00012542,1.4063,0.21319,24081.2984636132,0.0003078646
73,10.1016/j.actamat.2015.04.023,4591,3(a),5859,x=0.0125,Mg2.9875Na0.0125Sb2,471,0.000041533,0.00043355,0.00012553,1.4054,0.21382,24077.239785231,0.0003084887
73,10.1016/j.actamat.2015.04.023,4591,3(a),5859,x=0.0125,Mg2.9875Na0.0125Sb2,471.5,0.000041539,0.00043416,0.00012564,1.4045,0.21444,24073.7620067888,0.0003091207
73,10.1016/j.actamat.2015.04.023,4591,3(a),5859,x=0.0125,Mg2.9875Na0.0125Sb2,472,0.000041546,0.00043477,0.00012575,1.4036,0.21506,24069.7058681943,0.0003097535