sid,DOI,figureid,fignum,sampleid,samplename,composition,Temperature,Electrical resistivity,Power factor,Seebeck coefficient,Thermal conductivity,ZT,Electrical conductivity,Figure of merit Z
73,10.1016/j.actamat.2015.04.023,4591,3(a),5859,x=0.0125,Mg2.9875Na0.0125Sb2,534,0.000042365,0.00051011,0.00013954,1.2911,0.29223,23604.3904166175,0.0003950972
73,10.1016/j.actamat.2015.04.023,4591,3(a),5859,x=0.0125,Mg2.9875Na0.0125Sb2,534.5,0.000042372,0.00051072,0.00013965,1.2902,0.29285,23600.4908902105,0.0003958456
73,10.1016/j.actamat.2015.04.023,4591,3(a),5859,x=0.0125,Mg2.9875Na0.0125Sb2,535,0.000042378,0.00051132,0.00013976,1.2893,0.29348,23597.1494643447,0.0003965873
73,10.1016/j.actamat.2015.04.023,4591,3(a),5859,x=0.0125,Mg2.9875Na0.0125Sb2,535.5,0.000042385,0.00051193,0.00013987,1.2884,0.2941,23593.2523298337,0.0003973378
73,10.1016/j.actamat.2015.04.023,4591,3(a),5859,x=0.0125,Mg2.9875Na0.0125Sb2,536,0.000042392,0.00051254,0.00013998,1.2875,0.29472,23589.3564823552,0.0003980893
73,10.1016/j.actamat.2015.04.023,4591,3(a),5859,x=0.0125,Mg2.9875Na0.0125Sb2,536.5,0.000042398,0.00051315,0.00014009,1.2866,0.29534,23586.0182084061,0.0003988419
73,10.1016/j.actamat.2015.04.023,4591,3(a),5859,x=0.0125,Mg2.9875Na0.0125Sb2,537,0.000042405,0.00051375,0.0001402,1.2857,0.29597,23582.1247494399,0.0003995878
73,10.1016/j.actamat.2015.04.023,4591,3(a),5859,x=0.0125,Mg2.9875Na0.0125Sb2,537.5,0.000042411,0.00051436,0.00014032,1.2847,0.29659,23578.7885218457,0.0004003736
73,10.1016/j.actamat.2015.04.023,4591,3(a),5859,x=0.0125,Mg2.9875Na0.0125Sb2,538,0.000042418,0.00051497,0.00014043,1.2838,0.29721,23574.8974491961,0.0004011295
73,10.1016/j.actamat.2015.04.023,4591,3(a),5859,x=0.0125,Mg2.9875Na0.0125Sb2,538.5,0.000042425,0.00051558,0.00014054,1.2829,0.29783,23571.0076605775,0.0004018864
73,10.1016/j.actamat.2015.04.023,4591,3(a),5859,x=0.0125,Mg2.9875Na0.0125Sb2,539,0.000042431,0.00051618,0.00014065,1.282,0.29846,23567.6745775494,0.0004026365
73,10.1016/j.actamat.2015.04.023,4591,3(a),5859,x=0.0125,Mg2.9875Na0.0125Sb2,539.5,0.000042438,0.00051679,0.00014076,1.2811,0.29908,23563.7871718743,0.0004033955
73,10.1016/j.actamat.2015.04.023,4591,3(a),5859,x=0.0125,Mg2.9875Na0.0125Sb2,540,0.000042444,0.0005174,0.00014087,1.2802,0.2997,23560.4561304307,0.0004041556
73,10.1016/j.actamat.2015.04.023,4591,3(a),5859,x=0.0125,Mg2.9875Na0.0125Sb2,540.5,0.000042451,0.00051801,0.00014098,1.2793,0.30032,23556.5711055099,0.0004049168
73,10.1016/j.actamat.2015.04.023,4591,3(a),5859,x=0.0125,Mg2.9875Na0.0125Sb2,541,0.000042458,0.00051861,0.00014109,1.2784,0.30095,23552.687361628,0.0004056712
73,10.1016/j.actamat.2015.04.023,4591,3(a),5859,x=0.0125,Mg2.9875Na0.0125Sb2,541.5,0.000042464,0.00051922,0.0001412,1.2775,0.30157,23549.3594574228,0.0004064344
73,10.1016/j.actamat.2015.04.023,4591,3(a),5859,x=0.0125,Mg2.9875Na0.0125Sb2,542,0.000042471,0.00051983,0.00014132,1.2766,0.30219,23545.4780909326,0.0004071988
73,10.1016/j.actamat.2015.04.023,4591,3(a),5859,x=0.0125,Mg2.9875Na0.0125Sb2,542.5,0.000042477,0.00052044,0.00014143,1.2757,0.30281,23542.1522235563,0.0004079643
73,10.1016/j.actamat.2015.04.023,4591,3(a),5859,x=0.0125,Mg2.9875Na0.0125Sb2,543,0.000042484,0.00052104,0.00014154,1.2748,0.30343,23538.2732322757,0.0004087229
73,10.1016/j.actamat.2015.04.023,4591,3(a),5859,x=0.0125,Mg2.9875Na0.0125Sb2,543.5,0.000042491,0.00052165,0.00014165,1.2739,0.30406,23534.3955190511,0.0004094905
73,10.1016/j.actamat.2015.04.023,4591,3(a),5859,x=0.0125,Mg2.9875Na0.0125Sb2,544,0.000042497,0.00052226,0.00014176,1.273,0.30468,23531.0727816081,0.0004102592
73,10.1016/j.actamat.2015.04.023,4591,3(a),5859,x=0.0125,Mg2.9875Na0.0125Sb2,544.5,0.000042504,0.00052287,0.00014187,1.272,0.3053,23527.1974402409,0.0004110613
73,10.1016/j.actamat.2015.04.023,4591,3(a),5859,x=0.0125,Mg2.9875Na0.0125Sb2,545,0.000042511,0.00052347,0.00014198,1.2711,0.30592,23523.3233751264,0.0004118244
73,10.1016/j.actamat.2015.04.023,4591,3(a),5859,x=0.0125,Mg2.9875Na0.0125Sb2,545.5,0.000042517,0.00052408,0.00014209,1.2702,0.30655,23520.0037632006,0.0004125964
73,10.1016/j.actamat.2015.04.023,4591,3(a),5859,x=0.0125,Mg2.9875Na0.0125Sb2,546,0.000042524,0.00052469,0.00014221,1.2693,0.30717,23516.1320665977,0.0004133696
73,10.1016/j.actamat.2015.04.023,4591,3(a),5859,x=0.0125,Mg2.9875Na0.0125Sb2,546.5,0.00004253,0.0005253,0.00014232,1.2684,0.30779,23512.8144838937,0.0004141438
73,10.1016/j.actamat.2015.04.023,4591,3(a),5859,x=0.0125,Mg2.9875Na0.0125Sb2,547,0.000042537,0.0005259,0.00014243,1.2675,0.30841,23508.945153631,0.0004149112
73,10.1016/j.actamat.2015.04.023,4591,3(a),5859,x=0.0125,Mg2.9875Na0.0125Sb2,547.5,0.000042544,0.00052651,0.00014254,1.2666,0.30904,23505.0770966529,0.0004156877
73,10.1016/j.actamat.2015.04.023,4591,3(a),5859,x=0.0125,Mg2.9875Na0.0125Sb2,548,0.00004255,0.00052712,0.00014265,1.2657,0.30966,23501.7626321974,0.0004164652
73,10.1016/j.actamat.2015.04.023,4591,3(a),5859,x=0.0125,Mg2.9875Na0.0125Sb2,548.5,0.000042557,0.00052773,0.00014276,1.2648,0.31028,23497.896938224,0.0004172438
73,10.1016/j.actamat.2015.04.023,4591,3(a),5859,x=0.0125,Mg2.9875Na0.0125Sb2,549,0.000042563,0.00052833,0.00014287,1.2639,0.3109,23494.5844982731,0.0004180157
73,10.1016/j.actamat.2015.04.023,4591,3(a),5859,x=0.0125,Mg2.9875Na0.0125Sb2,549.5,0.00004257,0.00052894,0.00014298,1.263,0.31153,23490.7211651398,0.0004187965
73,10.1016/j.actamat.2015.04.023,4591,3(a),5859,x=0.0125,Mg2.9875Na0.0125Sb2,550,0.000042577,0.00052955,0.0001431,1.2621,0.31215,23486.8591023322,0.0004195785
73,10.1016/j.actamat.2015.04.023,4591,3(a),5859,x=0.0125,Mg2.9875Na0.0125Sb2,550.5,0.000042583,0.00053016,0.00014321,1.2612,0.31277,23483.5497733837,0.0004203616
73,10.1016/j.actamat.2015.04.023,4591,3(a),5859,x=0.0125,Mg2.9875Na0.0125Sb2,551,0.00004259,0.00053077,0.00014332,1.2602,0.31339,23479.6900680911,0.0004211792
73,10.1016/j.actamat.2015.04.023,4591,3(a),5859,x=0.0125,Mg2.9875Na0.0125Sb2,551.5,0.000042596,0.00053137,0.00014343,1.2593,0.31401,23476.3827589445,0.0004219566
73,10.1016/j.actamat.2015.04.023,4591,3(a),5859,x=0.0125,Mg2.9875Na0.0125Sb2,552,0.000042603,0.00053198,0.00014354,1.2584,0.31464,23472.5254090088,0.0004227432
73,10.1016/j.actamat.2015.04.023,4591,3(a),5859,x=0.0125,Mg2.9875Na0.0125Sb2,552.5,0.00004261,0.00053259,0.00014365,1.2575,0.31526,23468.6693264492,0.0004235308
73,10.1016/j.actamat.2015.04.023,4591,3(a),5859,x=0.0125,Mg2.9875Na0.0125Sb2,553,0.000042616,0.0005332,0.00014376,1.2566,0.31588,23465.3651210813,0.0004243196
73,10.1016/j.actamat.2015.04.023,4591,3(a),5859,x=0.0125,Mg2.9875Na0.0125Sb2,553.5,0.000042623,0.0005338,0.00014387,1.2557,0.3165,23461.5113905638,0.0004251015
73,10.1016/j.actamat.2015.04.023,4591,3(a),5859,x=0.0125,Mg2.9875Na0.0125Sb2,554,0.000042629,0.00053441,0.00014398,1.2548,0.31713,23458.2092003096,0.0004258926
73,10.1016/j.actamat.2015.04.023,4591,3(a),5859,x=0.0125,Mg2.9875Na0.0125Sb2,554.5,0.000042636,0.00053502,0.0001441,1.2539,0.31775,23454.3578196829,0.0004266847
73,10.1016/j.actamat.2015.04.023,4591,3(a),5859,x=0.0125,Mg2.9875Na0.0125Sb2,555,0.000042643,0.00053563,0.00014421,1.253,0.31837,23450.5077034918,0.0004274781
73,10.1016/j.actamat.2015.04.023,4591,3(a),5859,x=0.0125,Mg2.9875Na0.0125Sb2,555.5,0.000042649,0.00053623,0.00014432,1.2521,0.31899,23447.208609815,0.0004282645
73,10.1016/j.actamat.2015.04.023,4591,3(a),5859,x=0.0125,Mg2.9875Na0.0125Sb2,556,0.000042656,0.00053684,0.00014443,1.2512,0.31962,23443.3608402101,0.0004290601
73,10.1016/j.actamat.2015.04.023,4591,3(a),5859,x=0.0125,Mg2.9875Na0.0125Sb2,556.5,0.000042662,0.00053745,0.00014454,1.2503,0.32024,23440.0637569734,0.0004298568
73,10.1016/j.actamat.2015.04.023,4591,3(a),5859,x=0.0125,Mg2.9875Na0.0125Sb2,557,0.000042669,0.00053806,0.00014465,1.2494,0.32086,23436.21833181,0.0004306547
73,10.1016/j.actamat.2015.04.023,4591,3(a),5859,x=0.0125,Mg2.9875Na0.0125Sb2,557.5,0.000042676,0.00053866,0.00014476,1.2485,0.32148,23432.3741681507,0.0004314457
73,10.1016/j.actamat.2015.04.023,4591,3(a),5859,x=0.0125,Mg2.9875Na0.0125Sb2,558,0.000042682,0.00053927,0.00014487,1.2475,0.3221,23429.0801743124,0.0004322806
73,10.1016/j.actamat.2015.04.023,4591,3(a),5859,x=0.0125,Mg2.9875Na0.0125Sb2,558.5,0.000042689,0.00053988,0.00014499,1.2466,0.32273,23425.2383518002,0.000433082
73,10.1016/j.actamat.2015.04.023,4591,3(a),5859,x=0.0125,Mg2.9875Na0.0125Sb2,559,0.000042695,0.00054049,0.0001451,1.2457,0.32335,23421.9463637428,0.0004338846
73,10.1016/j.actamat.2015.04.023,4591,3(a),5859,x=0.0125,Mg2.9875Na0.0125Sb2,559.5,0.000042702,0.00054109,0.00014521,1.2448,0.32397,23418.1068802398,0.0004346803
73,10.1016/j.actamat.2015.04.023,4591,3(a),5859,x=0.0125,Mg2.9875Na0.0125Sb2,560,0.000042709,0.0005417,0.00014532,1.2439,0.32459,23414.2686553186,0.0004354852
73,10.1016/j.actamat.2015.04.023,4591,3(a),5859,x=0.0125,Mg2.9875Na0.0125Sb2,560.5,0.000042715,0.00054231,0.00014543,1.243,0.32522,23410.9797495025,0.0004362912
73,10.1016/j.actamat.2015.04.023,4591,3(a),5859,x=0.0125,Mg2.9875Na0.0125Sb2,561,0.000042722,0.00054292,0.00014554,1.2421,0.32584,23407.1438603062,0.0004370985
73,10.1016/j.actamat.2015.04.023,4591,3(a),5859,x=0.0125,Mg2.9875Na0.0125Sb2,561.5,0.000042729,0.00054352,0.00014565,1.2412,0.32646,23403.3092279248,0.0004378988
73,10.1016/j.actamat.2015.04.023,4591,3(a),5859,x=0.0125,Mg2.9875Na0.0125Sb2,562,0.000042735,0.00054413,0.00014576,1.2403,0.32708,23400.0234000234,0.0004387084
73,10.1016/j.actamat.2015.04.023,4591,3(a),5859,x=0.0125,Mg2.9875Na0.0125Sb2,562.5,0.000042742,0.00054474,0.00014587,1.2394,0.32771,23396.1911000889,0.0004395191
73,10.1016/j.actamat.2015.04.023,4591,3(a),5859,x=0.0125,Mg2.9875Na0.0125Sb2,563,0.000042748,0.00054535,0.00014599,1.2385,0.32833,23392.9072705156,0.000440331
73,10.1016/j.actamat.2015.04.023,4591,3(a),5859,x=0.0125,Mg2.9875Na0.0125Sb2,563.5,0.000042755,0.00054595,0.0001461,1.2376,0.32895,23389.0773009005,0.0004411361
73,10.1016/j.actamat.2015.04.023,4591,3(a),5859,x=0.0125,Mg2.9875Na0.0125Sb2,564,0.000042762,0.00054656,0.00014621,1.2367,0.32957,23385.2485851925,0.0004419504
73,10.1016/j.actamat.2015.04.023,4591,3(a),5859,x=0.0125,Mg2.9875Na0.0125Sb2,564.5,0.000042768,0.00054717,0.00014632,1.2358,0.3302,23381.9678264123,0.0004427658
73,10.1016/j.actamat.2015.04.023,4591,3(a),5859,x=0.0125,Mg2.9875Na0.0125Sb2,565,0.000042775,0.00054778,0.00014643,1.2348,0.33082,23378.1414377557,0.0004436184
73,10.1016/j.actamat.2015.04.023,4591,3(a),5859,x=0.0125,Mg2.9875Na0.0125Sb2,565.5,0.000042781,0.00054838,0.00014654,1.2339,0.33144,23374.8626726818,0.0004444282
73,10.1016/j.actamat.2015.04.023,4591,3(a),5859,x=0.0125,Mg2.9875Na0.0125Sb2,566,0.000042788,0.00054899,0.00014665,1.233,0.33206,23371.0386089558,0.0004452474
73,10.1016/j.actamat.2015.04.023,4591,3(a),5859,x=0.0125,Mg2.9875Na0.0125Sb2,566.5,0.000042795,0.0005496,0.00014676,1.2321,0.33268,23367.2157962379,0.0004460677
73,10.1016/j.actamat.2015.04.023,4591,3(a),5859,x=0.0125,Mg2.9875Na0.0125Sb2,567,0.000042801,0.00055021,0.00014688,1.2312,0.33331,23363.9400948576,0.0004468892
73,10.1016/j.actamat.2015.04.023,4591,3(a),5859,x=0.0125,Mg2.9875Na0.0125Sb2,567.5,0.000042808,0.00055081,0.00014699,1.2303,0.33393,23360.1196038124,0.0004477038
73,10.1016/j.actamat.2015.04.023,4591,3(a),5859,x=0.0125,Mg2.9875Na0.0125Sb2,568,0.000042814,0.00055142,0.0001471,1.2294,0.33455,23356.8458915308,0.0004485277
73,10.1016/j.actamat.2015.04.023,4591,3(a),5859,x=0.0125,Mg2.9875Na0.0125Sb2,568.5,0.000042821,0.00055203,0.00014721,1.2285,0.33517,23353.0277200439,0.0004493529
73,10.1016/j.actamat.2015.04.023,4591,3(a),5859,x=0.0125,Mg2.9875Na0.0125Sb2,569,0.000042828,0.00055264,0.00014732,1.2276,0.3358,23349.2107966751,0.0004501792
73,10.1016/j.actamat.2015.04.023,4591,3(a),5859,x=0.0125,Mg2.9875Na0.0125Sb2,569.5,0.000042834,0.00055325,0.00014743,1.2267,0.33642,23345.9401410095,0.0004510068
73,10.1016/j.actamat.2015.04.023,4591,3(a),5859,x=0.0125,Mg2.9875Na0.0125Sb2,570,0.000042841,0.00055385,0.00014754,1.2258,0.33704,23342.1255339511,0.0004518274
73,10.1016/j.actamat.2015.04.023,4591,3(a),5859,x=0.0125,Mg2.9875Na0.0125Sb2,570.5,0.000042847,0.00055446,0.00014765,1.2249,0.33766,23338.8568627909,0.0004526574
73,10.1016/j.actamat.2015.04.023,4591,3(a),5859,x=0.0125,Mg2.9875Na0.0125Sb2,571,0.000042854,0.00055507,0.00014777,1.224,0.33829,23335.0445699351,0.0004534886
73,10.1016/j.actamat.2015.04.023,4591,3(a),5859,x=0.0125,Mg2.9875Na0.0125Sb2,571.5,0.000042861,0.00055568,0.00014788,1.223,0.33891,23331.2335223163,0.0004543581
73,10.1016/j.actamat.2015.04.023,4591,3(a),5859,x=0.0125,Mg2.9875Na0.0125Sb2,572,0.000042867,0.00055628,0.00014799,1.2221,0.33953,23327.9679007162,0.0004551837
73,10.1016/j.actamat.2015.04.023,4591,3(a),5859,x=0.0125,Mg2.9875Na0.0125Sb2,572.5,0.000042874,0.00055689,0.0001481,1.2212,0.34015,23324.1591640621,0.0004560187
73,10.1016/j.actamat.2015.04.023,4591,3(a),5859,x=0.0125,Mg2.9875Na0.0125Sb2,573,0.00004288,0.0005575,0.00014821,1.2203,0.34078,23320.8955223881,0.0004568549
73,10.1016/j.actamat.2015.04.023,4591,3(a),5859,x=0.0125,Mg2.9875Na0.0125Sb2,573.5,0.000042887,0.00055811,0.00014832,1.2194,0.3414,23317.0890945974,0.0004576923
73,10.1016/j.actamat.2015.04.023,4591,3(a),5859,x=0.0125,Mg2.9875Na0.0125Sb2,574,0.000042894,0.00055871,0.00014843,1.2185,0.34202,23313.2839091714,0.0004585228
73,10.1016/j.actamat.2015.04.023,4591,3(a),5859,x=0.0125,Mg2.9875Na0.0125Sb2,574.5,0.0000429,0.00055932,0.00014854,1.2176,0.34264,23310.0233100233,0.0004593627
73,10.1016/j.actamat.2015.04.023,4591,3(a),5859,x=0.0125,Mg2.9875Na0.0125Sb2,575,0.000042907,0.00055993,0.00014865,1.2167,0.34326,23306.2204302328,0.0004602038
73,10.1016/j.actamat.2015.04.023,4591,3(a),5859,x=0.0125,Mg2.9875Na0.0125Sb2,575.5,0.000042914,0.00056054,0.00014877,1.2158,0.34389,23302.4187910705,0.0004610462
73,10.1016/j.actamat.2015.04.023,4591,3(a),5859,x=0.0125,Mg2.9875Na0.0125Sb2,576,0.00004292,0.00056114,0.00014888,1.2149,0.34451,23299.1612301957,0.0004618816
73,10.1016/j.actamat.2015.04.023,4591,3(a),5859,x=0.0125,Mg2.9875Na0.0125Sb2,576.5,0.000042927,0.00056175,0.00014899,1.214,0.34513,23295.361893447,0.0004627265
73,10.1016/j.actamat.2015.04.023,4591,3(a),5859,x=0.0125,Mg2.9875Na0.0125Sb2,577,0.000042933,0.00056236,0.0001491,1.2131,0.34575,23292.1063051732,0.0004635727
73,10.1016/j.actamat.2015.04.023,4591,3(a),5859,x=0.0125,Mg2.9875Na0.0125Sb2,577.5,0.00004294,0.00056297,0.00014921,1.2122,0.34638,23288.3092687471,0.0004644201
73,10.1016/j.actamat.2015.04.023,4591,3(a),5859,x=0.0125,Mg2.9875Na0.0125Sb2,578,0.000042947,0.00056357,0.00014932,1.2113,0.347,23284.513470091,0.0004652605
73,10.1016/j.actamat.2015.04.023,4591,3(a),5859,x=0.0125,Mg2.9875Na0.0125Sb2,578.5,0.000042953,0.00056418,0.00014943,1.2103,0.34762,23281.2609130911,0.0004661489
73,10.1016/j.actamat.2015.04.023,4591,3(a),5859,x=0.0125,Mg2.9875Na0.0125Sb2,579,0.00004296,0.00056479,0.00014954,1.2094,0.34824,23277.4674115456,0.0004670002
73,10.1016/j.actamat.2015.04.023,4591,3(a),5859,x=0.0125,Mg2.9875Na0.0125Sb2,579.5,0.000042966,0.0005654,0.00014966,1.2085,0.34887,23274.2168226039,0.0004678527
73,10.1016/j.actamat.2015.04.023,4591,3(a),5859,x=0.0125,Mg2.9875Na0.0125Sb2,580,0.000042973,0.000566,0.00014977,1.2076,0.34949,23270.4256160845,0.0004686982
73,10.1016/j.actamat.2015.04.023,4591,3(a),5859,x=0.0125,Mg2.9875Na0.0125Sb2,580.5,0.00004298,0.00056661,0.00014988,1.2067,0.35011,23266.6356444858,0.0004695533
73,10.1016/j.actamat.2015.04.023,4591,3(a),5859,x=0.0125,Mg2.9875Na0.0125Sb2,581,0.000042986,0.00056722,0.00014999,1.2058,0.35073,23263.3880798399,0.0004704097
73,10.1016/j.actamat.2015.04.023,4591,3(a),5859,x=0.0125,Mg2.9875Na0.0125Sb2,581.5,0.000042993,0.00056783,0.0001501,1.2049,0.35136,23259.6004000651,0.0004712673
73,10.1016/j.actamat.2015.04.023,4591,3(a),5859,x=0.0125,Mg2.9875Na0.0125Sb2,582,0.000042999,0.00056843,0.00015021,1.204,0.35198,23256.3547989488,0.0004721179
73,10.1016/j.actamat.2015.04.023,4591,3(a),5859,x=0.0125,Mg2.9875Na0.0125Sb2,582.5,0.000043006,0.00056904,0.00015032,1.2031,0.3526,23252.5694089197,0.0004729781
73,10.1016/j.actamat.2015.04.023,4591,3(a),5859,x=0.0125,Mg2.9875Na0.0125Sb2,583,0.000043013,0.00056965,0.00015043,1.2022,0.35322,23248.7852509706,0.0004738396
73,10.1016/j.actamat.2015.04.023,4591,3(a),5859,x=0.0125,Mg2.9875Na0.0125Sb2,583.5,0.000043019,0.00057026,0.00015054,1.2013,0.35384,23245.5426671936,0.0004747024
73,10.1016/j.actamat.2015.04.023,4591,3(a),5859,x=0.0125,Mg2.9875Na0.0125Sb2,584,0.000043026,0.00057086,0.00015066,1.2004,0.35447,23241.7607957979,0.0004755581
73,10.1016/j.actamat.2015.04.023,4591,3(a),5859,x=0.0125,Mg2.9875Na0.0125Sb2,584.5,0.000043032,0.00057147,0.00015077,1.1995,0.35509,23238.5201710355,0.0004764235
73,10.1016/j.actamat.2015.04.023,4591,3(a),5859,x=0.0125,Mg2.9875Na0.0125Sb2,585,0.000043039,0.00057208,0.00015088,1.1985,0.35571,23234.7405841214,0.00047733
73,10.1016/j.actamat.2015.04.023,4591,3(a),5859,x=0.0125,Mg2.9875Na0.0125Sb2,585.5,0.000043046,0.00057269,0.00015099,1.1976,0.35633,23230.9622264554,0.0004781981
73,10.1016/j.actamat.2015.04.023,4591,3(a),5859,x=0.0125,Mg2.9875Na0.0125Sb2,586,0.000043052,0.00057329,0.0001511,1.1967,0.35696,23227.724612097,0.0004790591
73,10.1016/j.actamat.2015.04.023,4591,3(a),5859,x=0.0125,Mg2.9875Na0.0125Sb2,586.5,0.000043059,0.0005739,0.00015121,1.1958,0.35758,23223.94853573,0.0004799298
73,10.1016/j.actamat.2015.04.023,4591,3(a),5859,x=0.0125,Mg2.9875Na0.0125Sb2,587,0.000043065,0.00057451,0.00015132,1.1949,0.3582,23220.7128758853,0.0004808017
73,10.1016/j.actamat.2015.04.023,4591,3(a),5859,x=0.0125,Mg2.9875Na0.0125Sb2,587.5,0.000043072,0.00057512,0.00015143,1.194,0.35882,23216.9390787519,0.000481675
73,10.1016/j.actamat.2015.04.023,4591,3(a),5859,x=0.0125,Mg2.9875Na0.0125Sb2,588,0.000043079,0.00057572,0.00015155,1.1931,0.35945,23213.1665080434,0.0004825413
73,10.1016/j.actamat.2015.04.023,4591,3(a),5859,x=0.0125,Mg2.9875Na0.0125Sb2,588.5,0.000043085,0.00057633,0.00015166,1.1922,0.36007,23209.9338516885,0.0004834172
73,10.1016/j.actamat.2015.04.023,4591,3(a),5859,x=0.0125,Mg2.9875Na0.0125Sb2,589,0.000043092,0.00057694,0.00015177,1.1913,0.36069,23206.1635570407,0.0004842945
73,10.1016/j.actamat.2015.04.023,4591,3(a),5859,x=0.0125,Mg2.9875Na0.0125Sb2,589.5,0.000043098,0.00057755,0.00015188,1.1904,0.36131,23202.9328507123,0.0004851731
73,10.1016/j.actamat.2015.04.023,4591,3(a),5859,x=0.0125,Mg2.9875Na0.0125Sb2,590,0.000043105,0.00057816,0.00015199,1.1895,0.36194,23199.1648300661,0.000486053
73,10.1016/j.actamat.2015.04.023,4591,3(a),5859,x=0.0125,Mg2.9875Na0.0125Sb2,590.5,0.000043112,0.00057876,0.0001521,1.1886,0.36256,23195.3980330302,0.0004869258
73,10.1016/j.actamat.2015.04.023,4591,3(a),5859,x=0.0125,Mg2.9875Na0.0125Sb2,591,0.000043118,0.00057937,0.00015221,1.1877,0.36318,23192.1703232989,0.0004878084
73,10.1016/j.actamat.2015.04.023,4591,3(a),5859,x=0.0125,Mg2.9875Na0.0125Sb2,591.5,0.000043125,0.00057998,0.00015232,1.1868,0.3638,23188.4057971015,0.0004886923
73,10.1016/j.actamat.2015.04.023,4591,3(a),5859,x=0.0125,Mg2.9875Na0.0125Sb2,592,0.000043132,0.00058059,0.00015244,1.1858,0.36442,23184.6424928128,0.0004896188
73,10.1016/j.actamat.2015.04.023,4591,3(a),5859,x=0.0125,Mg2.9875Na0.0125Sb2,592.5,0.000043138,0.00058119,0.00015255,1.1849,0.36505,23181.4177755112,0.0004904971
73,10.1016/j.actamat.2015.04.023,4591,3(a),5859,x=0.0125,Mg2.9875Na0.0125Sb2,593,0.000043145,0.0005818,0.00015266,1.184,0.36567,23177.6567389037,0.0004913851
73,10.1016/j.actamat.2015.04.023,4591,3(a),5859,x=0.0125,Mg2.9875Na0.0125Sb2,593.5,0.000043151,0.00058241,0.00015277,1.1831,0.36629,23174.4339644504,0.0004922745
73,10.1016/j.actamat.2015.04.023,4591,3(a),5859,x=0.0125,Mg2.9875Na0.0125Sb2,594,0.000043158,0.00058302,0.00015288,1.1822,0.36691,23170.6751934751,0.0004931653
73,10.1016/j.actamat.2015.04.023,4591,3(a),5859,x=0.0125,Mg2.9875Na0.0125Sb2,594.5,0.000043165,0.00058362,0.00015299,1.1813,0.36754,23166.9176416078,0.0004940489
73,10.1016/j.actamat.2015.04.023,4591,3(a),5859,x=0.0125,Mg2.9875Na0.0125Sb2,595,0.000043171,0.00058423,0.0001531,1.1804,0.36816,23163.6978527252,0.0004949424