sid,DOI,figureid,fignum,sampleid,samplename,composition,Temperature,Electrical resistivity,Power factor,Seebeck coefficient,Thermal conductivity,ZT,Electrical conductivity,Figure of merit Z
10954,10.1007/s11664-015-4303-6,5134,3(a),6470,x=0.7,Ca0.3Eu0.7Zn2Sb2,356.5,0.000014295,0.0010906,0.0001239,2.7259,0.12625,69954.5295557887,0.000400088
10954,10.1007/s11664-015-4303-6,5134,3(a),6470,x=0.7,Ca0.3Eu0.7Zn2Sb2,357,0.000014308,0.0010913,0.000124,2.7244,0.12691,69890.9700866648,0.0004005653
10954,10.1007/s11664-015-4303-6,5134,3(a),6470,x=0.7,Ca0.3Eu0.7Zn2Sb2,357.5,0.00001432,0.001092,0.00012409,2.7228,0.12758,69832.4022346369,0.0004010577
10954,10.1007/s11664-015-4303-6,5134,3(a),6470,x=0.7,Ca0.3Eu0.7Zn2Sb2,358,0.000014333,0.0010926,0.00012419,2.7212,0.12824,69769.0643968464,0.000401514
10954,10.1007/s11664-015-4303-6,5134,3(a),6470,x=0.7,Ca0.3Eu0.7Zn2Sb2,358.5,0.000014346,0.0010933,0.00012428,2.7196,0.12891,69705.8413495051,0.0004020076
10954,10.1007/s11664-015-4303-6,5134,3(a),6470,x=0.7,Ca0.3Eu0.7Zn2Sb2,359,0.000014359,0.001094,0.00012438,2.718,0.12957,69642.7327808343,0.0004025018
10954,10.1007/s11664-015-4303-6,5134,3(a),6470,x=0.7,Ca0.3Eu0.7Zn2Sb2,359.5,0.000014372,0.0010947,0.00012447,2.7164,0.13023,69579.7383801837,0.0004029966
10954,10.1007/s11664-015-4303-6,5134,3(a),6470,x=0.7,Ca0.3Eu0.7Zn2Sb2,360,0.000014385,0.0010954,0.00012457,2.7148,0.1309,69516.8578380257,0.000403492
10954,10.1007/s11664-015-4303-6,5134,3(a),6470,x=0.7,Ca0.3Eu0.7Zn2Sb2,360.5,0.000014397,0.001096,0.00012466,2.7132,0.13156,69458.9150517469,0.0004039511
10954,10.1007/s11664-015-4303-6,5134,3(a),6470,x=0.7,Ca0.3Eu0.7Zn2Sb2,361,0.00001441,0.0010967,0.00012476,2.7117,0.13222,69396.2526023595,0.0004044326
10954,10.1007/s11664-015-4303-6,5134,3(a),6470,x=0.7,Ca0.3Eu0.7Zn2Sb2,361.5,0.000014423,0.0010974,0.00012485,2.7101,0.13289,69333.7031130833,0.0004049297
10954,10.1007/s11664-015-4303-6,5134,3(a),6470,x=0.7,Ca0.3Eu0.7Zn2Sb2,362,0.000014436,0.0010981,0.00012495,2.7085,0.13355,69271.2662787476,0.0004054274
10954,10.1007/s11664-015-4303-6,5134,3(a),6470,x=0.7,Ca0.3Eu0.7Zn2Sb2,362.5,0.000014449,0.0010988,0.00012504,2.7069,0.13422,69208.94179528,0.0004059256
10954,10.1007/s11664-015-4303-6,5134,3(a),6470,x=0.7,Ca0.3Eu0.7Zn2Sb2,363,0.000014462,0.0010995,0.00012514,2.7053,0.13488,69146.7293597013,0.0004064244
10954,10.1007/s11664-015-4303-6,5134,3(a),6470,x=0.7,Ca0.3Eu0.7Zn2Sb2,363.5,0.000014474,0.0011001,0.00012523,2.7037,0.13554,69089.4016857814,0.0004068869
10954,10.1007/s11664-015-4303-6,5134,3(a),6470,x=0.7,Ca0.3Eu0.7Zn2Sb2,364,0.000014487,0.0011008,0.00012533,2.7021,0.13621,69027.4038793401,0.0004073868
10954,10.1007/s11664-015-4303-6,5134,3(a),6470,x=0.7,Ca0.3Eu0.7Zn2Sb2,364.5,0.0000145,0.0011015,0.00012542,2.7005,0.13687,68965.5172413793,0.0004078874
10954,10.1007/s11664-015-4303-6,5134,3(a),6470,x=0.7,Ca0.3Eu0.7Zn2Sb2,365,0.000014513,0.0011022,0.00012552,2.699,0.13753,68903.741473162,0.0004083735
10954,10.1007/s11664-015-4303-6,5134,3(a),6470,x=0.7,Ca0.3Eu0.7Zn2Sb2,365.5,0.000014526,0.0011029,0.00012561,2.6974,0.1382,68842.0762770205,0.0004088752
10954,10.1007/s11664-015-4303-6,5134,3(a),6470,x=0.7,Ca0.3Eu0.7Zn2Sb2,366,0.000014539,0.0011036,0.00012571,2.6958,0.13886,68780.5213563519,0.0004093776
10954,10.1007/s11664-015-4303-6,5134,3(a),6470,x=0.7,Ca0.3Eu0.7Zn2Sb2,366.5,0.000014552,0.0011042,0.0001258,2.6942,0.13953,68719.076415613,0.0004098434
10954,10.1007/s11664-015-4303-6,5134,3(a),6470,x=0.7,Ca0.3Eu0.7Zn2Sb2,367,0.000014564,0.0011049,0.0001259,2.6926,0.14019,68662.455369404,0.0004103469
10954,10.1007/s11664-015-4303-6,5134,3(a),6470,x=0.7,Ca0.3Eu0.7Zn2Sb2,367.5,0.000014577,0.0011056,0.00012599,2.691,0.14085,68601.2211017356,0.000410851
10954,10.1007/s11664-015-4303-6,5134,3(a),6470,x=0.7,Ca0.3Eu0.7Zn2Sb2,368,0.00001459,0.0011063,0.00012609,2.6894,0.14152,68540.0959561343,0.0004113557
10954,10.1007/s11664-015-4303-6,5134,3(a),6470,x=0.7,Ca0.3Eu0.7Zn2Sb2,368.5,0.000014603,0.001107,0.00012618,2.6878,0.14218,68479.0796411696,0.000411861
10954,10.1007/s11664-015-4303-6,5134,3(a),6470,x=0.7,Ca0.3Eu0.7Zn2Sb2,369,0.000014616,0.0011076,0.00012628,2.6863,0.14284,68418.1718664477,0.0004123143
10954,10.1007/s11664-015-4303-6,5134,3(a),6470,x=0.7,Ca0.3Eu0.7Zn2Sb2,369.5,0.000014629,0.0011083,0.00012637,2.6847,0.14351,68357.3723426072,0.0004128208
10954,10.1007/s11664-015-4303-6,5134,3(a),6470,x=0.7,Ca0.3Eu0.7Zn2Sb2,370,0.000014641,0.001109,0.00012647,2.6831,0.14417,68301.3455365071,0.0004133279
10954,10.1007/s11664-015-4303-6,5134,3(a),6470,x=0.7,Ca0.3Eu0.7Zn2Sb2,370.5,0.000014654,0.0011097,0.00012656,2.6815,0.14484,68240.7533779173,0.0004138355
10954,10.1007/s11664-015-4303-6,5134,3(a),6470,x=0.7,Ca0.3Eu0.7Zn2Sb2,371,0.000014667,0.0011104,0.00012666,2.6799,0.1455,68180.2686302584,0.0004143438
10954,10.1007/s11664-015-4303-6,5134,3(a),6470,x=0.7,Ca0.3Eu0.7Zn2Sb2,371.5,0.00001468,0.0011111,0.00012675,2.6783,0.14616,68119.8910081744,0.0004148527
10954,10.1007/s11664-015-4303-6,5134,3(a),6470,x=0.7,Ca0.3Eu0.7Zn2Sb2,372,0.000014693,0.0011117,0.00012685,2.6767,0.14683,68059.6202273191,0.0004153248
10954,10.1007/s11664-015-4303-6,5134,3(a),6470,x=0.7,Ca0.3Eu0.7Zn2Sb2,372.5,0.000014706,0.0011124,0.00012694,2.6752,0.14749,67999.456004352,0.0004158194
10954,10.1007/s11664-015-4303-6,5134,3(a),6470,x=0.7,Ca0.3Eu0.7Zn2Sb2,373,0.000014718,0.0011131,0.00012704,2.6736,0.14815,67944.0141323549,0.00041633
10954,10.1007/s11664-015-4303-6,5134,3(a),6470,x=0.7,Ca0.3Eu0.7Zn2Sb2,373.5,0.000014731,0.0011138,0.00012713,2.672,0.14882,67884.054035707,0.0004168413
10954,10.1007/s11664-015-4303-6,5134,3(a),6470,x=0.7,Ca0.3Eu0.7Zn2Sb2,374,0.000014744,0.0011145,0.00012723,2.6704,0.14948,67824.1996744438,0.0004173532
10954,10.1007/s11664-015-4303-6,5134,3(a),6470,x=0.7,Ca0.3Eu0.7Zn2Sb2,374.5,0.000014757,0.0011151,0.00012732,2.6688,0.15015,67764.4507691265,0.0004178282
10954,10.1007/s11664-015-4303-6,5134,3(a),6470,x=0.7,Ca0.3Eu0.7Zn2Sb2,375,0.00001477,0.0011158,0.00012741,2.6672,0.15081,67704.8070412999,0.0004183413
10954,10.1007/s11664-015-4303-6,5134,3(a),6470,x=0.7,Ca0.3Eu0.7Zn2Sb2,375.5,0.000014783,0.0011165,0.00012751,2.6656,0.15147,67645.2682134885,0.000418855
10954,10.1007/s11664-015-4303-6,5134,3(a),6470,x=0.7,Ca0.3Eu0.7Zn2Sb2,376,0.000014796,0.0011172,0.0001276,2.664,0.15214,67585.8340091917,0.0004193694
10954,10.1007/s11664-015-4303-6,5134,3(a),6470,x=0.7,Ca0.3Eu0.7Zn2Sb2,376.5,0.000014808,0.0011179,0.0001277,2.6625,0.1528,67531.0642895732,0.0004198685
10954,10.1007/s11664-015-4303-6,5134,3(a),6470,x=0.7,Ca0.3Eu0.7Zn2Sb2,377,0.000014821,0.0011186,0.00012779,2.6609,0.15346,67471.8305107618,0.0004203841
10954,10.1007/s11664-015-4303-6,5134,3(a),6470,x=0.7,Ca0.3Eu0.7Zn2Sb2,377.5,0.000014834,0.0011192,0.00012789,2.6593,0.15413,67412.7005527841,0.0004208626
10954,10.1007/s11664-015-4303-6,5134,3(a),6470,x=0.7,Ca0.3Eu0.7Zn2Sb2,378,0.000014847,0.0011199,0.00012798,2.6577,0.15479,67353.6741429245,0.0004213794
10954,10.1007/s11664-015-4303-6,5134,3(a),6470,x=0.7,Ca0.3Eu0.7Zn2Sb2,378.5,0.00001486,0.0011206,0.00012808,2.6561,0.15546,67294.7510094213,0.0004218968
10954,10.1007/s11664-015-4303-6,5134,3(a),6470,x=0.7,Ca0.3Eu0.7Zn2Sb2,379,0.000014873,0.0011213,0.00012817,2.6545,0.15612,67235.930881463,0.0004224148
10954,10.1007/s11664-015-4303-6,5134,3(a),6470,x=0.7,Ca0.3Eu0.7Zn2Sb2,379.5,0.000014885,0.001122,0.00012827,2.6529,0.15678,67181.7265703729,0.0004229334
10954,10.1007/s11664-015-4303-6,5134,3(a),6470,x=0.7,Ca0.3Eu0.7Zn2Sb2,380,0.000014898,0.0011227,0.00012836,2.6513,0.15745,67123.1037723184,0.0004234526
10954,10.1007/s11664-015-4303-6,5134,3(a),6470,x=0.7,Ca0.3Eu0.7Zn2Sb2,380.5,0.000014911,0.0011233,0.00012846,2.6498,0.15811,67064.5831936155,0.0004239188
10954,10.1007/s11664-015-4303-6,5134,3(a),6470,x=0.7,Ca0.3Eu0.7Zn2Sb2,381,0.000014924,0.001124,0.00012855,2.6482,0.15878,67006.1645671402,0.0004244392
10954,10.1007/s11664-015-4303-6,5134,3(a),6470,x=0.7,Ca0.3Eu0.7Zn2Sb2,381.5,0.000014937,0.0011247,0.00012865,2.6466,0.15944,66947.8476266988,0.0004249603
10954,10.1007/s11664-015-4303-6,5134,3(a),6470,x=0.7,Ca0.3Eu0.7Zn2Sb2,382,0.00001495,0.0011254,0.00012874,2.645,0.1601,66889.6321070234,0.000425482
10954,10.1007/s11664-015-4303-6,5134,3(a),6470,x=0.7,Ca0.3Eu0.7Zn2Sb2,382.5,0.000014962,0.0011261,0.00012884,2.6434,0.16077,66835.9844940516,0.0004260044
10954,10.1007/s11664-015-4303-6,5134,3(a),6470,x=0.7,Ca0.3Eu0.7Zn2Sb2,383,0.000014975,0.0011267,0.00012893,2.6418,0.16143,66777.9632721202,0.0004264895
10954,10.1007/s11664-015-4303-6,5134,3(a),6470,x=0.7,Ca0.3Eu0.7Zn2Sb2,383.5,0.000014988,0.0011274,0.00012903,2.6402,0.16209,66720.0427008273,0.0004270131
10954,10.1007/s11664-015-4303-6,5134,3(a),6470,x=0.7,Ca0.3Eu0.7Zn2Sb2,384,0.000015001,0.0011281,0.00012912,2.6386,0.16276,66662.2225184988,0.0004275373
10954,10.1007/s11664-015-4303-6,5134,3(a),6470,x=0.7,Ca0.3Eu0.7Zn2Sb2,384.5,0.000015014,0.0011288,0.00012922,2.6371,0.16342,66604.5024643666,0.000428046
10954,10.1007/s11664-015-4303-6,5134,3(a),6470,x=0.7,Ca0.3Eu0.7Zn2Sb2,385,0.000015027,0.0011295,0.00012931,2.6355,0.16409,66546.8822785652,0.0004285714
10954,10.1007/s11664-015-4303-6,5134,3(a),6470,x=0.7,Ca0.3Eu0.7Zn2Sb2,385.5,0.00001504,0.0011302,0.00012941,2.6339,0.16475,66489.3617021277,0.0004290975
10954,10.1007/s11664-015-4303-6,5134,3(a),6470,x=0.7,Ca0.3Eu0.7Zn2Sb2,386,0.000015052,0.0011308,0.0001295,2.6323,0.16541,66436.353972894,0.0004295863
10954,10.1007/s11664-015-4303-6,5134,3(a),6470,x=0.7,Ca0.3Eu0.7Zn2Sb2,386.5,0.000015065,0.0011315,0.0001296,2.6307,0.16608,66379.0242283438,0.0004301137
10954,10.1007/s11664-015-4303-6,5134,3(a),6470,x=0.7,Ca0.3Eu0.7Zn2Sb2,387,0.000015078,0.0011322,0.00012969,2.6291,0.16674,66321.793341292,0.0004306417
10954,10.1007/s11664-015-4303-6,5134,3(a),6470,x=0.7,Ca0.3Eu0.7Zn2Sb2,387.5,0.000015091,0.0011329,0.00012979,2.6275,0.1674,66264.6610562587,0.0004311703
10954,10.1007/s11664-015-4303-6,5134,3(a),6470,x=0.7,Ca0.3Eu0.7Zn2Sb2,388,0.000015104,0.0011336,0.00012988,2.626,0.16807,66207.6271186441,0.0004316832
10954,10.1007/s11664-015-4303-6,5134,3(a),6470,x=0.7,Ca0.3Eu0.7Zn2Sb2,388.5,0.000015117,0.0011343,0.00012998,2.6244,0.16873,66150.6912747238,0.0004322131
10954,10.1007/s11664-015-4303-6,5134,3(a),6470,x=0.7,Ca0.3Eu0.7Zn2Sb2,389,0.000015129,0.0011349,0.00013007,2.6228,0.1694,66098.2219578293,0.0004327055
10954,10.1007/s11664-015-4303-6,5134,3(a),6470,x=0.7,Ca0.3Eu0.7Zn2Sb2,389.5,0.000015142,0.0011356,0.00013017,2.6212,0.17006,66041.4740457007,0.0004332367
10954,10.1007/s11664-015-4303-6,5134,3(a),6470,x=0.7,Ca0.3Eu0.7Zn2Sb2,390,0.000015155,0.0011363,0.00013026,2.6196,0.17072,65984.8234905972,0.0004337685
10954,10.1007/s11664-015-4303-6,5134,3(a),6470,x=0.7,Ca0.3Eu0.7Zn2Sb2,390.5,0.000015168,0.001137,0.00013036,2.618,0.17139,65928.2700421941,0.000434301
10954,10.1007/s11664-015-4303-6,5134,3(a),6470,x=0.7,Ca0.3Eu0.7Zn2Sb2,391,0.000015181,0.0011377,0.00013045,2.6164,0.17205,65871.8134510243,0.0004348341
10954,10.1007/s11664-015-4303-6,5134,3(a),6470,x=0.7,Ca0.3Eu0.7Zn2Sb2,391.5,0.000015194,0.0011383,0.00013055,2.6148,0.17271,65815.4534684744,0.0004353297
10954,10.1007/s11664-015-4303-6,5134,3(a),6470,x=0.7,Ca0.3Eu0.7Zn2Sb2,392,0.000015206,0.001139,0.00013064,2.6133,0.17338,65763.5144022097,0.0004358474
10954,10.1007/s11664-015-4303-6,5134,3(a),6470,x=0.7,Ca0.3Eu0.7Zn2Sb2,392.5,0.000015219,0.0011397,0.00013074,2.6117,0.17404,65707.3395098232,0.0004363824
10954,10.1007/s11664-015-4303-6,5134,3(a),6470,x=0.7,Ca0.3Eu0.7Zn2Sb2,393,0.000015232,0.0011404,0.00013083,2.6101,0.17471,65651.2605042017,0.0004369181
10954,10.1007/s11664-015-4303-6,5134,3(a),6470,x=0.7,Ca0.3Eu0.7Zn2Sb2,393.5,0.000015245,0.0011411,0.00013092,2.6085,0.17537,65595.2771400459,0.0004374545
10954,10.1007/s11664-015-4303-6,5134,3(a),6470,x=0.7,Ca0.3Eu0.7Zn2Sb2,394,0.000015258,0.0011418,0.00013102,2.6069,0.17603,65539.3891728929,0.0004379915
10954,10.1007/s11664-015-4303-6,5134,3(a),6470,x=0.7,Ca0.3Eu0.7Zn2Sb2,394.5,0.000015271,0.0011424,0.00013111,2.6053,0.1767,65483.596359112,0.0004384908
10954,10.1007/s11664-015-4303-6,5134,3(a),6470,x=0.7,Ca0.3Eu0.7Zn2Sb2,395,0.000015283,0.0011431,0.00013121,2.6037,0.17736,65432.1795459007,0.0004390291
10954,10.1007/s11664-015-4303-6,5134,3(a),6470,x=0.7,Ca0.3Eu0.7Zn2Sb2,395.5,0.000015296,0.0011438,0.0001313,2.6021,0.17802,65376.5690376569,0.000439568
10954,10.1007/s11664-015-4303-6,5134,3(a),6470,x=0.7,Ca0.3Eu0.7Zn2Sb2,396,0.000015309,0.0011445,0.0001314,2.6006,0.17869,65321.052975374,0.0004400907
10954,10.1007/s11664-015-4303-6,5134,3(a),6470,x=0.7,Ca0.3Eu0.7Zn2Sb2,396.5,0.000015322,0.0011452,0.00013149,2.599,0.17935,65265.6311186529,0.000440631
10954,10.1007/s11664-015-4303-6,5134,3(a),6470,x=0.7,Ca0.3Eu0.7Zn2Sb2,397,0.000015335,0.0011459,0.00013159,2.5974,0.18002,65210.30322791,0.0004411719
10954,10.1007/s11664-015-4303-6,5134,3(a),6470,x=0.7,Ca0.3Eu0.7Zn2Sb2,397.5,0.000015348,0.0011465,0.00013168,2.5958,0.18068,65155.0690643732,0.000441675
10954,10.1007/s11664-015-4303-6,5134,3(a),6470,x=0.7,Ca0.3Eu0.7Zn2Sb2,398,0.000015361,0.0011472,0.00013178,2.5942,0.18134,65099.9283900788,0.0004422173
10954,10.1007/s11664-015-4303-6,5134,3(a),6470,x=0.7,Ca0.3Eu0.7Zn2Sb2,398.5,0.000015373,0.0011479,0.00013187,2.5926,0.18201,65049.1120796201,0.0004427602
10954,10.1007/s11664-015-4303-6,5134,3(a),6470,x=0.7,Ca0.3Eu0.7Zn2Sb2,399,0.000015386,0.0011486,0.00013197,2.591,0.18267,64994.1505264526,0.0004433037
10954,10.1007/s11664-015-4303-6,5134,3(a),6470,x=0.7,Ca0.3Eu0.7Zn2Sb2,399.5,0.000015399,0.0011493,0.00013206,2.5894,0.18333,64939.2817715436,0.000443848
10954,10.1007/s11664-015-4303-6,5134,3(a),6470,x=0.7,Ca0.3Eu0.7Zn2Sb2,400,0.000015412,0.0011499,0.00013216,2.5879,0.184,64884.5055800675,0.0004443371
10954,10.1007/s11664-015-4303-6,5134,3(a),6470,x=0.7,Ca0.3Eu0.7Zn2Sb2,400.5,0.000015425,0.0011506,0.00013225,2.5863,0.18466,64829.8217179903,0.0004448827
10954,10.1007/s11664-015-4303-6,5134,3(a),6470,x=0.7,Ca0.3Eu0.7Zn2Sb2,401,0.000015438,0.0011513,0.00013235,2.5847,0.18533,64775.2299520663,0.0004454289
10954,10.1007/s11664-015-4303-6,5134,3(a),6470,x=0.7,Ca0.3Eu0.7Zn2Sb2,401.5,0.00001545,0.001152,0.00013244,2.5831,0.18599,64724.9190938511,0.0004459758
10954,10.1007/s11664-015-4303-6,5134,3(a),6470,x=0.7,Ca0.3Eu0.7Zn2Sb2,402,0.000015463,0.0011527,0.00013254,2.5815,0.18665,64670.5037832245,0.0004465233
10954,10.1007/s11664-015-4303-6,5134,3(a),6470,x=0.7,Ca0.3Eu0.7Zn2Sb2,402.5,0.000015476,0.0011534,0.00013263,2.5799,0.18732,64616.1798914448,0.0004470716
10954,10.1007/s11664-015-4303-6,5134,3(a),6470,x=0.7,Ca0.3Eu0.7Zn2Sb2,403,0.000015489,0.001154,0.00013273,2.5783,0.18798,64561.9471883272,0.0004475817
10954,10.1007/s11664-015-4303-6,5134,3(a),6470,x=0.7,Ca0.3Eu0.7Zn2Sb2,403.5,0.000015502,0.0011547,0.00013282,2.5768,0.18864,64507.8054444588,0.0004481139
10954,10.1007/s11664-015-4303-6,5134,3(a),6470,x=0.7,Ca0.3Eu0.7Zn2Sb2,404,0.000015515,0.0011554,0.00013292,2.5752,0.18931,64453.7544311956,0.0004486642
10954,10.1007/s11664-015-4303-6,5134,3(a),6470,x=0.7,Ca0.3Eu0.7Zn2Sb2,404.5,0.000015527,0.0011561,0.00013301,2.5736,0.18997,64403.9415212211,0.0004492151
10954,10.1007/s11664-015-4303-6,5134,3(a),6470,x=0.7,Ca0.3Eu0.7Zn2Sb2,405,0.00001554,0.0011568,0.00013311,2.572,0.19064,64350.0643500643,0.0004497667
10954,10.1007/s11664-015-4303-6,5134,3(a),6470,x=0.7,Ca0.3Eu0.7Zn2Sb2,405.5,0.000015553,0.0011574,0.0001332,2.5704,0.1913,64296.2772455475,0.0004502801
10954,10.1007/s11664-015-4303-6,5134,3(a),6470,x=0.7,Ca0.3Eu0.7Zn2Sb2,406,0.000015566,0.0011581,0.0001333,2.5688,0.19196,64242.5799820121,0.0004508331
10954,10.1007/s11664-015-4303-6,5134,3(a),6470,x=0.7,Ca0.3Eu0.7Zn2Sb2,406.5,0.000015579,0.0011588,0.00013339,2.5672,0.19263,64188.9723345529,0.0004513867
10954,10.1007/s11664-015-4303-6,5134,3(a),6470,x=0.7,Ca0.3Eu0.7Zn2Sb2,407,0.000015592,0.0011595,0.00013349,2.5656,0.19329,64135.4540790149,0.0004519411
10954,10.1007/s11664-015-4303-6,5134,3(a),6470,x=0.7,Ca0.3Eu0.7Zn2Sb2,407.5,0.000015605,0.0011602,0.00013358,2.5641,0.19395,64082.0249919897,0.0004524785
10954,10.1007/s11664-015-4303-6,5134,3(a),6470,x=0.7,Ca0.3Eu0.7Zn2Sb2,408,0.000015617,0.0011609,0.00013368,2.5625,0.19462,64032.7847858103,0.0004530341
10954,10.1007/s11664-015-4303-6,5134,3(a),6470,x=0.7,Ca0.3Eu0.7Zn2Sb2,408.5,0.00001563,0.0011615,0.00013377,2.5609,0.19528,63979.5265515035,0.0004535515
10954,10.1007/s11664-015-4303-6,5134,3(a),6470,x=0.7,Ca0.3Eu0.7Zn2Sb2,409,0.000015643,0.0011622,0.00013387,2.5593,0.19595,63926.3568369239,0.0004541085
10954,10.1007/s11664-015-4303-6,5134,3(a),6470,x=0.7,Ca0.3Eu0.7Zn2Sb2,409.5,0.000015656,0.0011629,0.00013396,2.5577,0.19661,63873.2754215636,0.0004546663
10954,10.1007/s11664-015-4303-6,5134,3(a),6470,x=0.7,Ca0.3Eu0.7Zn2Sb2,410,0.000015669,0.0011636,0.00013406,2.5561,0.19727,63820.2820856468,0.0004552248
10954,10.1007/s11664-015-4303-6,5134,3(a),6470,x=0.7,Ca0.3Eu0.7Zn2Sb2,410.5,0.000015682,0.0011643,0.00013415,2.5545,0.19794,63767.3766101263,0.0004557839
10954,10.1007/s11664-015-4303-6,5134,3(a),6470,x=0.7,Ca0.3Eu0.7Zn2Sb2,411,0.000015694,0.001165,0.00013425,2.5529,0.1986,63718.6185803492,0.0004563438
10954,10.1007/s11664-015-4303-6,5134,3(a),6470,x=0.7,Ca0.3Eu0.7Zn2Sb2,411.5,0.000015707,0.0011656,0.00013434,2.5514,0.19926,63665.8814541287,0.0004568472
10954,10.1007/s11664-015-4303-6,5134,3(a),6470,x=0.7,Ca0.3Eu0.7Zn2Sb2,412,0.00001572,0.0011663,0.00013443,2.5498,0.19993,63613.2315521629,0.0004574084
10954,10.1007/s11664-015-4303-6,5134,3(a),6470,x=0.7,Ca0.3Eu0.7Zn2Sb2,412.5,0.000015733,0.001167,0.00013453,2.5482,0.20059,63560.6686582343,0.0004579703
10954,10.1007/s11664-015-4303-6,5134,3(a),6470,x=0.7,Ca0.3Eu0.7Zn2Sb2,413,0.000015746,0.0011677,0.00013462,2.5466,0.20126,63508.1925568398,0.0004585329
10954,10.1007/s11664-015-4303-6,5134,3(a),6470,x=0.7,Ca0.3Eu0.7Zn2Sb2,413.5,0.000015759,0.0011684,0.00013472,2.545,0.20192,63455.8030331874,0.0004590963
10954,10.1007/s11664-015-4303-6,5134,3(a),6470,x=0.7,Ca0.3Eu0.7Zn2Sb2,414,0.000015771,0.001169,0.00013481,2.5434,0.20258,63407.5201318876,0.000459621
10954,10.1007/s11664-015-4303-6,5134,3(a),6470,x=0.7,Ca0.3Eu0.7Zn2Sb2,414.5,0.000015784,0.0011697,0.00013491,2.5418,0.20325,63355.2965027876,0.0004601857
10954,10.1007/s11664-015-4303-6,5134,3(a),6470,x=0.7,Ca0.3Eu0.7Zn2Sb2,415,0.000015797,0.0011704,0.000135,2.5402,0.20391,63303.1588276255,0.0004607511
10954,10.1007/s11664-015-4303-6,5134,3(a),6470,x=0.7,Ca0.3Eu0.7Zn2Sb2,415.5,0.00001581,0.0011711,0.0001351,2.5387,0.20457,63251.1068943707,0.0004612991
10954,10.1007/s11664-015-4303-6,5134,3(a),6470,x=0.7,Ca0.3Eu0.7Zn2Sb2,416,0.000015823,0.0011718,0.00013519,2.5371,0.20524,63199.1404916893,0.0004618659
10954,10.1007/s11664-015-4303-6,5134,3(a),6470,x=0.7,Ca0.3Eu0.7Zn2Sb2,416.5,0.000015836,0.0011725,0.00013529,2.5355,0.2059,63147.2594089417,0.0004624334
10954,10.1007/s11664-015-4303-6,5134,3(a),6470,x=0.7,Ca0.3Eu0.7Zn2Sb2,417,0.000015849,0.0011731,0.00013538,2.5339,0.20657,63095.4634361789,0.0004629622
10954,10.1007/s11664-015-4303-6,5134,3(a),6470,x=0.7,Ca0.3Eu0.7Zn2Sb2,417.5,0.000015861,0.0011738,0.00013548,2.5323,0.20723,63047.727129437,0.0004635312
10954,10.1007/s11664-015-4303-6,5134,3(a),6470,x=0.7,Ca0.3Eu0.7Zn2Sb2,418,0.000015874,0.0011745,0.00013557,2.5307,0.20789,62996.094242157,0.0004641008
10954,10.1007/s11664-015-4303-6,5134,3(a),6470,x=0.7,Ca0.3Eu0.7Zn2Sb2,418.5,0.000015887,0.0011752,0.00013567,2.5291,0.20856,62944.5458551017,0.0004646712
10954,10.1007/s11664-015-4303-6,5134,3(a),6470,x=0.7,Ca0.3Eu0.7Zn2Sb2,419,0.0000159,0.0011759,0.00013576,2.5276,0.20922,62893.0817610063,0.0004652239
10954,10.1007/s11664-015-4303-6,5134,3(a),6470,x=0.7,Ca0.3Eu0.7Zn2Sb2,419.5,0.000015913,0.0011766,0.00013586,2.526,0.20988,62841.7017532835,0.0004657957
10954,10.1007/s11664-015-4303-6,5134,3(a),6470,x=0.7,Ca0.3Eu0.7Zn2Sb2,420,0.000015926,0.0011772,0.00013595,2.5244,0.21055,62790.4056260203,0.0004663286
10954,10.1007/s11664-015-4303-6,5134,3(a),6470,x=0.7,Ca0.3Eu0.7Zn2Sb2,420.5,0.000015938,0.0011779,0.00013605,2.5228,0.21121,62743.1296273058,0.0004669019
10954,10.1007/s11664-015-4303-6,5134,3(a),6470,x=0.7,Ca0.3Eu0.7Zn2Sb2,421,0.000015951,0.0011786,0.00013614,2.5212,0.21188,62691.9942323365,0.0004674758