sid,DOI,figureid,fignum,sampleid,samplename,composition,Temperature,Electrical resistivity,Power factor,Seebeck coefficient,Thermal conductivity,ZT,Electrical conductivity,Figure of merit Z
10954,10.1007/s11664-015-4303-6,5134,3(a),6467,x=0,Ca1Zn2Sb2,299,0.000030739,0.00049877,0.00012412,,,32531.9626533069,
10954,10.1007/s11664-015-4303-6,5134,3(a),6467,x=0,Ca1Zn2Sb2,299.5,0.00003076,0.00049915,0.00012421,,,32509.7529258778,
10954,10.1007/s11664-015-4303-6,5134,3(a),6467,x=0,Ca1Zn2Sb2,300,0.000030782,0.00049954,0.0001243,,,32486.5180949906,
10954,10.1007/s11664-015-4303-6,5134,3(a),6467,x=0,Ca1Zn2Sb2,300.5,0.000030803,0.00049992,0.00012439,3.5671,0.042114,32464.370353537,0.0001401475
10954,10.1007/s11664-015-4303-6,5134,3(a),6467,x=0,Ca1Zn2Sb2,301,0.000030825,0.0005003,0.00012448,3.5651,0.04224,32441.200324412,0.0001403327
10954,10.1007/s11664-015-4303-6,5134,3(a),6467,x=0,Ca1Zn2Sb2,301.5,0.000030846,0.00050068,0.00012458,3.5632,0.023447,32419.1143097971,0.0001405141
10954,10.1007/s11664-015-4303-6,5134,3(a),6467,x=0,Ca1Zn2Sb2,302,0.000030867,0.00050107,0.00012467,3.5613,0.023721,32397.0583471021,0.0001406986
10954,10.1007/s11664-015-4303-6,5134,3(a),6467,x=0,Ca1Zn2Sb2,302.5,0.000030889,0.00050145,0.00012476,3.5594,0.023994,32373.9842662436,0.0001408805
10954,10.1007/s11664-015-4303-6,5134,3(a),6467,x=0,Ca1Zn2Sb2,303,0.00003091,0.00050183,0.00012485,3.5575,0.024268,32351.9896473633,0.0001410625
10954,10.1007/s11664-015-4303-6,5134,3(a),6467,x=0,Ca1Zn2Sb2,303.5,0.000030932,0.00050221,0.00012494,3.5556,0.024542,32328.9796974007,0.0001412448
10954,10.1007/s11664-015-4303-6,5134,3(a),6467,x=0,Ca1Zn2Sb2,304,0.000030953,0.00050259,0.00012503,3.5537,0.024815,32307.046166769,0.0001414272
10954,10.1007/s11664-015-4303-6,5134,3(a),6467,x=0,Ca1Zn2Sb2,304.5,0.000030975,0.00050298,0.00012513,3.5517,0.025089,32284.1000807103,0.0001416167
10954,10.1007/s11664-015-4303-6,5134,3(a),6467,x=0,Ca1Zn2Sb2,305,0.000030996,0.00050336,0.00012522,3.5498,0.025363,32262.2273841786,0.0001417995
10954,10.1007/s11664-015-4303-6,5134,3(a),6467,x=0,Ca1Zn2Sb2,305.5,0.000031017,0.00050374,0.00012531,3.5479,0.025636,32240.3843053809,0.0001419826
10954,10.1007/s11664-015-4303-6,5134,3(a),6467,x=0,Ca1Zn2Sb2,306,0.000031039,0.00050412,0.0001254,3.546,0.02591,32217.5327813396,0.0001421658
10954,10.1007/s11664-015-4303-6,5134,3(a),6467,x=0,Ca1Zn2Sb2,306.5,0.00003106,0.00050451,0.00012549,3.5441,0.026183,32195.7501609788,0.0001423521
10954,10.1007/s11664-015-4303-6,5134,3(a),6467,x=0,Ca1Zn2Sb2,307,0.000031082,0.00050489,0.00012558,3.5422,0.026457,32172.9618428673,0.0001425357
10954,10.1007/s11664-015-4303-6,5134,3(a),6467,x=0,Ca1Zn2Sb2,307.5,0.000031103,0.00050527,0.00012567,3.5402,0.026731,32151.23943028,0.0001427236
10954,10.1007/s11664-015-4303-6,5134,3(a),6467,x=0,Ca1Zn2Sb2,308,0.000031124,0.00050565,0.00012577,3.5383,0.027004,32129.5463308058,0.0001429076
10954,10.1007/s11664-015-4303-6,5134,3(a),6467,x=0,Ca1Zn2Sb2,308.5,0.000031146,0.00050604,0.00012586,3.5364,0.027278,32106.8516021319,0.0001430947
10954,10.1007/s11664-015-4303-6,5134,3(a),6467,x=0,Ca1Zn2Sb2,309,0.000031167,0.00050642,0.00012595,3.5345,0.027552,32085.2183399108,0.0001432791
10954,10.1007/s11664-015-4303-6,5134,3(a),6467,x=0,Ca1Zn2Sb2,309.5,0.000031189,0.0005068,0.00012604,3.5326,0.027825,32062.5861682003,0.0001434637
10954,10.1007/s11664-015-4303-6,5134,3(a),6467,x=0,Ca1Zn2Sb2,310,0.00003121,0.00050718,0.00012613,3.5307,0.028099,32041.0124959949,0.0001436486
10954,10.1007/s11664-015-4303-6,5134,3(a),6467,x=0,Ca1Zn2Sb2,310.5,0.000031232,0.00050756,0.00012622,3.5287,0.028372,32018.4426229508,0.0001438377
10954,10.1007/s11664-015-4303-6,5134,3(a),6467,x=0,Ca1Zn2Sb2,311,0.000031253,0.00050795,0.00012632,3.5268,0.028646,31996.9282948837,0.0001440257
10954,10.1007/s11664-015-4303-6,5134,3(a),6467,x=0,Ca1Zn2Sb2,311.5,0.000031274,0.00050833,0.00012641,3.5249,0.02892,31975.4428598836,0.0001442112
10954,10.1007/s11664-015-4303-6,5134,3(a),6467,x=0,Ca1Zn2Sb2,312,0.000031296,0.00050871,0.0001265,3.523,0.029193,31952.9652351738,0.0001443968
10954,10.1007/s11664-015-4303-6,5134,3(a),6467,x=0,Ca1Zn2Sb2,312.5,0.000031317,0.00050909,0.00012659,3.5211,0.029467,31931.5387808539,0.0001445827
10954,10.1007/s11664-015-4303-6,5134,3(a),6467,x=0,Ca1Zn2Sb2,313,0.000031339,0.00050948,0.00012668,3.5192,0.02974,31909.1228182137,0.0001447715
10954,10.1007/s11664-015-4303-6,5134,3(a),6467,x=0,Ca1Zn2Sb2,313.5,0.00003136,0.00050986,0.00012677,3.5172,0.030014,31887.7551020408,0.0001449619
10954,10.1007/s11664-015-4303-6,5134,3(a),6467,x=0,Ca1Zn2Sb2,314,0.000031382,0.00051024,0.00012687,3.5153,0.030288,31865.4005480849,0.0001451484
10954,10.1007/s11664-015-4303-6,5134,3(a),6467,x=0,Ca1Zn2Sb2,314.5,0.000031403,0.00051062,0.00012696,3.5134,0.030561,31844.0913288539,0.000145335
10954,10.1007/s11664-015-4303-6,5134,3(a),6467,x=0,Ca1Zn2Sb2,315,0.000031424,0.00051101,0.00012705,3.5115,0.030835,31822.8105906314,0.0001455247
10954,10.1007/s11664-015-4303-6,5134,3(a),6467,x=0,Ca1Zn2Sb2,315.5,0.000031446,0.00051139,0.00012714,3.5096,0.031109,31800.5469694079,0.0001457118
10954,10.1007/s11664-015-4303-6,5134,3(a),6467,x=0,Ca1Zn2Sb2,316,0.000031467,0.00051177,0.00012723,3.5077,0.031382,31779.3243715639,0.000145899
10954,10.1007/s11664-015-4303-6,5134,3(a),6467,x=0,Ca1Zn2Sb2,316.5,0.000031489,0.00051215,0.00012732,3.5057,0.031656,31757.1215345041,0.0001460907
10954,10.1007/s11664-015-4303-6,5134,3(a),6467,x=0,Ca1Zn2Sb2,317,0.00003151,0.00051254,0.00012742,3.5038,0.031929,31735.9568390987,0.0001462812
10954,10.1007/s11664-015-4303-6,5134,3(a),6467,x=0,Ca1Zn2Sb2,317.5,0.000031531,0.00051292,0.00012751,3.5019,0.032203,31714.8203355428,0.0001464691
10954,10.1007/s11664-015-4303-6,5134,3(a),6467,x=0,Ca1Zn2Sb2,318,0.000031553,0.0005133,0.0001276,3.5,0.032477,31692.7075080024,0.0001466571
10954,10.1007/s11664-015-4303-6,5134,3(a),6467,x=0,Ca1Zn2Sb2,318.5,0.000031574,0.00051368,0.00012769,3.4981,0.03275,31671.6285551403,0.0001468454
10954,10.1007/s11664-015-4303-6,5134,3(a),6467,x=0,Ca1Zn2Sb2,319,0.000031596,0.00051406,0.00012778,3.4962,0.033024,31649.575895683,0.0001470339
10954,10.1007/s11664-015-4303-6,5134,3(a),6467,x=0,Ca1Zn2Sb2,319.5,0.000031617,0.00051445,0.00012787,3.4942,0.033297,31628.5542587848,0.0001472297
10954,10.1007/s11664-015-4303-6,5134,3(a),6467,x=0,Ca1Zn2Sb2,320,0.000031639,0.00051483,0.00012797,3.4923,0.033571,31606.561522172,0.0001474186
10954,10.1007/s11664-015-4303-6,5134,3(a),6467,x=0,Ca1Zn2Sb2,320.5,0.00003166,0.00051521,0.00012806,3.4904,0.033845,31585.5969677827,0.0001476077
10954,10.1007/s11664-015-4303-6,5134,3(a),6467,x=0,Ca1Zn2Sb2,321,0.000031681,0.00051559,0.00012815,3.4885,0.034118,31564.6602064329,0.000147797
10954,10.1007/s11664-015-4303-6,5134,3(a),6467,x=0,Ca1Zn2Sb2,321.5,0.000031703,0.00051598,0.00012824,3.4866,0.034392,31542.7562060373,0.0001479894
10954,10.1007/s11664-015-4303-6,5134,3(a),6467,x=0,Ca1Zn2Sb2,322,0.000031724,0.00051636,0.00012833,3.4847,0.034666,31521.8761820704,0.0001481792
10954,10.1007/s11664-015-4303-6,5134,3(a),6467,x=0,Ca1Zn2Sb2,322.5,0.000031746,0.00051674,0.00012842,3.4827,0.034939,31500.0315000315,0.0001483734
10954,10.1007/s11664-015-4303-6,5134,3(a),6467,x=0,Ca1Zn2Sb2,323,0.000031767,0.00051712,0.00012852,3.4808,0.035213,31479.2079831271,0.0001485635
10954,10.1007/s11664-015-4303-6,5134,3(a),6467,x=0,Ca1Zn2Sb2,323.5,0.000031789,0.00051751,0.00012861,3.4789,0.035486,31457.4223788103,0.0001487568
10954,10.1007/s11664-015-4303-6,5134,3(a),6467,x=0,Ca1Zn2Sb2,324,0.00003181,0.00051789,0.0001287,3.477,0.03576,31436.6551398931,0.0001489474
10954,10.1007/s11664-015-4303-6,5134,3(a),6467,x=0,Ca1Zn2Sb2,324.5,0.000031831,0.00051827,0.00012879,3.4751,0.036034,31415.9153026923,0.0001491382
10954,10.1007/s11664-015-4303-6,5134,3(a),6467,x=0,Ca1Zn2Sb2,325,0.000031853,0.00051865,0.00012888,3.4732,0.036307,31394.2171851945,0.0001493291
10954,10.1007/s11664-015-4303-6,5134,3(a),6467,x=0,Ca1Zn2Sb2,325.5,0.000031874,0.00051903,0.00012897,3.4712,0.036581,31373.5332873188,0.0001495247
10954,10.1007/s11664-015-4303-6,5134,3(a),6467,x=0,Ca1Zn2Sb2,326,0.000031896,0.00051942,0.00012907,3.4693,0.036854,31351.8936543767,0.000149719
10954,10.1007/s11664-015-4303-6,5134,3(a),6467,x=0,Ca1Zn2Sb2,326.5,0.000031917,0.0005198,0.00012916,3.4674,0.037128,31331.2654698123,0.0001499106
10954,10.1007/s11664-015-4303-6,5134,3(a),6467,x=0,Ca1Zn2Sb2,327,0.000031939,0.00052018,0.00012925,3.4655,0.037402,31309.6840852876,0.0001501024
10954,10.1007/s11664-015-4303-6,5134,3(a),6467,x=0,Ca1Zn2Sb2,327.5,0.00003196,0.00052056,0.00012934,3.4636,0.037675,31289.1113892365,0.0001502945
10954,10.1007/s11664-015-4303-6,5134,3(a),6467,x=0,Ca1Zn2Sb2,328,0.000031981,0.00052095,0.00012943,3.4617,0.037949,31268.5657108908,0.0001504896
10954,10.1007/s11664-015-4303-6,5134,3(a),6467,x=0,Ca1Zn2Sb2,328.5,0.000032003,0.00052133,0.00012952,3.4597,0.038223,31247.0705871325,0.0001506865
10954,10.1007/s11664-015-4303-6,5134,3(a),6467,x=0,Ca1Zn2Sb2,329,0.000032024,0.00052171,0.00012962,3.4578,0.038496,31226.5800649513,0.0001508792
10954,10.1007/s11664-015-4303-6,5134,3(a),6467,x=0,Ca1Zn2Sb2,329.5,0.000032046,0.00052209,0.00012971,3.4559,0.03877,31205.1426075017,0.0001510721
10954,10.1007/s11664-015-4303-6,5134,3(a),6467,x=0,Ca1Zn2Sb2,330,0.000032067,0.00052248,0.0001298,3.454,0.039043,31184.7070196775,0.0001512681
10954,10.1007/s11664-015-4303-6,5134,3(a),6467,x=0,Ca1Zn2Sb2,330.5,0.000032088,0.00052286,0.00012989,3.4521,0.039317,31164.298180005,0.0001514614
10954,10.1007/s11664-015-4303-6,5134,3(a),6467,x=0,Ca1Zn2Sb2,331,0.00003211,0.00052324,0.00012998,3.4502,0.039591,31142.9461227032,0.000151655
10954,10.1007/s11664-015-4303-6,5134,3(a),6467,x=0,Ca1Zn2Sb2,331.5,0.000032131,0.00052362,0.00013007,3.4482,0.039864,31122.5918894526,0.0001518531
10954,10.1007/s11664-015-4303-6,5134,3(a),6467,x=0,Ca1Zn2Sb2,332,0.000032153,0.00052401,0.00013017,3.4463,0.040138,31101.2969240817,0.00015205
10954,10.1007/s11664-015-4303-6,5134,3(a),6467,x=0,Ca1Zn2Sb2,332.5,0.000032174,0.00052439,0.00013026,3.4444,0.040412,31080.9970783863,0.0001522442
10954,10.1007/s11664-015-4303-6,5134,3(a),6467,x=0,Ca1Zn2Sb2,333,0.000032196,0.00052477,0.00013035,3.4425,0.040685,31059.7589762703,0.0001524386
10954,10.1007/s11664-015-4303-6,5134,3(a),6467,x=0,Ca1Zn2Sb2,333.5,0.000032217,0.00052515,0.00013044,3.4406,0.040959,31039.5133004314,0.0001526333
10954,10.1007/s11664-015-4303-6,5134,3(a),6467,x=0,Ca1Zn2Sb2,334,0.000032238,0.00052553,0.00013053,3.4387,0.041232,31019.2940008685,0.0001528281
10954,10.1007/s11664-015-4303-6,5134,3(a),6467,x=0,Ca1Zn2Sb2,334.5,0.00003226,0.00052592,0.00013062,3.4367,0.041506,30998.1401115933,0.0001530305
10954,10.1007/s11664-015-4303-6,5134,3(a),6467,x=0,Ca1Zn2Sb2,335,0.000032281,0.0005263,0.00013072,3.4348,0.04178,30977.9746600167,0.0001532258
10954,10.1007/s11664-015-4303-6,5134,3(a),6467,x=0,Ca1Zn2Sb2,335.5,0.000032303,0.00052668,0.00013081,3.4329,0.042053,30956.8770702412,0.0001534213
10954,10.1007/s11664-015-4303-6,5134,3(a),6467,x=0,Ca1Zn2Sb2,336,0.000032324,0.00052706,0.0001309,3.431,0.042327,30936.7652518253,0.000153617
10954,10.1007/s11664-015-4303-6,5134,3(a),6467,x=0,Ca1Zn2Sb2,336.5,0.000032346,0.00052745,0.00013099,3.4291,0.0426,30915.7237370927,0.0001538159
10954,10.1007/s11664-015-4303-6,5134,3(a),6467,x=0,Ca1Zn2Sb2,337,0.000032367,0.00052783,0.00013108,3.4272,0.042874,30895.6653381531,0.000154012
10954,10.1007/s11664-015-4303-6,5134,3(a),6467,x=0,Ca1Zn2Sb2,337.5,0.000032388,0.00052821,0.00013117,3.4253,0.043148,30875.6329504755,0.0001542084
10954,10.1007/s11664-015-4303-6,5134,3(a),6467,x=0,Ca1Zn2Sb2,338,0.00003241,0.00052859,0.00013127,3.4233,0.043421,30854.6744831842,0.0001544095
10954,10.1007/s11664-015-4303-6,5134,3(a),6467,x=0,Ca1Zn2Sb2,338.5,0.000032431,0.00052898,0.00013136,3.4214,0.043695,30834.695199038,0.0001546092
10954,10.1007/s11664-015-4303-6,5134,3(a),6467,x=0,Ca1Zn2Sb2,339,0.000032453,0.00052936,0.00013145,3.4195,0.043969,30813.7922534126,0.0001548063
10954,10.1007/s11664-015-4303-6,5134,3(a),6467,x=0,Ca1Zn2Sb2,339.5,0.000032474,0.00052974,0.00013154,3.4176,0.044242,30793.8658619203,0.0001550035
10954,10.1007/s11664-015-4303-6,5134,3(a),6467,x=0,Ca1Zn2Sb2,340,0.000032495,0.00053012,0.00013163,3.4157,0.044516,30773.9652254193,0.000155201
10954,10.1007/s11664-015-4303-6,5134,3(a),6467,x=0,Ca1Zn2Sb2,340.5,0.000032517,0.00053051,0.00013172,3.4138,0.044789,30753.144509026,0.0001554016
10954,10.1007/s11664-015-4303-6,5134,3(a),6467,x=0,Ca1Zn2Sb2,341,0.000032538,0.00053089,0.00013181,3.4118,0.045063,30733.2964533776,0.0001556041
10954,10.1007/s11664-015-4303-6,5134,3(a),6467,x=0,Ca1Zn2Sb2,341.5,0.00003256,0.00053127,0.00013191,3.4099,0.045337,30712.5307125307,0.0001558022
10954,10.1007/s11664-015-4303-6,5134,3(a),6467,x=0,Ca1Zn2Sb2,342,0.000032581,0.00053165,0.000132,3.408,0.04561,30692.7350296185,0.0001560006
10954,10.1007/s11664-015-4303-6,5134,3(a),6467,x=0,Ca1Zn2Sb2,342.5,0.000032603,0.00053203,0.00013209,3.4061,0.045884,30672.0240468669,0.0001561992
10954,10.1007/s11664-015-4303-6,5134,3(a),6467,x=0,Ca1Zn2Sb2,343,0.000032624,0.00053242,0.00013218,3.4042,0.046157,30652.2805296714,0.0001564009
10954,10.1007/s11664-015-4303-6,5134,3(a),6467,x=0,Ca1Zn2Sb2,343.5,0.000032645,0.0005328,0.00013227,3.4023,0.046431,30632.5624138459,0.0001565999
10954,10.1007/s11664-015-4303-6,5134,3(a),6467,x=0,Ca1Zn2Sb2,344,0.000032667,0.00053318,0.00013236,3.4003,0.046705,30611.9325313007,0.0001568038
10954,10.1007/s11664-015-4303-6,5134,3(a),6467,x=0,Ca1Zn2Sb2,344.5,0.000032688,0.00053356,0.00013246,3.3984,0.046978,30592.2662750857,0.0001570033
10954,10.1007/s11664-015-4303-6,5134,3(a),6467,x=0,Ca1Zn2Sb2,345,0.00003271,0.00053395,0.00013255,3.3965,0.047252,30571.690614491,0.0001572059
10954,10.1007/s11664-015-4303-6,5134,3(a),6467,x=0,Ca1Zn2Sb2,345.5,0.000032731,0.00053433,0.00013264,3.3946,0.047526,30552.0760135651,0.0001574059
10954,10.1007/s11664-015-4303-6,5134,3(a),6467,x=0,Ca1Zn2Sb2,346,0.000032753,0.00053471,0.00013273,3.3927,0.047799,30531.5543614325,0.000157606
10954,10.1007/s11664-015-4303-6,5134,3(a),6467,x=0,Ca1Zn2Sb2,346.5,0.000032774,0.00053509,0.00013282,3.3908,0.048073,30511.9912125465,0.0001578064
10954,10.1007/s11664-015-4303-6,5134,3(a),6467,x=0,Ca1Zn2Sb2,347,0.000032795,0.00053548,0.00013291,3.3888,0.048346,30492.4531178533,0.0001580146
10954,10.1007/s11664-015-4303-6,5134,3(a),6467,x=0,Ca1Zn2Sb2,347.5,0.000032817,0.00053586,0.00013301,3.3869,0.04862,30472.0114574763,0.0001582155
10954,10.1007/s11664-015-4303-6,5134,3(a),6467,x=0,Ca1Zn2Sb2,348,0.000032838,0.00053624,0.0001331,3.385,0.048894,30452.5245142822,0.0001584165
10954,10.1007/s11664-015-4303-6,5134,3(a),6467,x=0,Ca1Zn2Sb2,348.5,0.00003286,0.00053662,0.00013319,3.3831,0.049167,30432.1363359708,0.0001586178
10954,10.1007/s11664-015-4303-6,5134,3(a),6467,x=0,Ca1Zn2Sb2,349,0.000032881,0.000537,0.00013328,3.3812,0.049441,30412.7003436635,0.0001588194
10954,10.1007/s11664-015-4303-6,5134,3(a),6467,x=0,Ca1Zn2Sb2,349.5,0.000032902,0.00053739,0.00013337,3.3793,0.049714,30393.2891617531,0.0001590241
10954,10.1007/s11664-015-4303-6,5134,3(a),6467,x=0,Ca1Zn2Sb2,350,0.000032924,0.00053777,0.00013346,3.3773,0.049988,30372.9801968169,0.0001592307
10954,10.1007/s11664-015-4303-6,5134,3(a),6467,x=0,Ca1Zn2Sb2,350.5,0.000032945,0.00053815,0.00013356,3.3754,0.050262,30353.6196691455,0.000159433
10954,10.1007/s11664-015-4303-6,5134,3(a),6467,x=0,Ca1Zn2Sb2,351,0.000032967,0.00053853,0.00013365,3.3735,0.050535,30333.363666697,0.0001596354
10954,10.1007/s11664-015-4303-6,5134,3(a),6467,x=0,Ca1Zn2Sb2,351.5,0.000032988,0.00053892,0.00013374,3.3716,0.050809,30314.0535952468,0.000159841
10954,10.1007/s11664-015-4303-6,5134,3(a),6467,x=0,Ca1Zn2Sb2,352,0.00003301,0.0005393,0.00013383,3.3697,0.051083,30293.8503483793,0.0001600439
10954,10.1007/s11664-015-4303-6,5134,3(a),6467,x=0,Ca1Zn2Sb2,352.5,0.000033031,0.00053968,0.00013392,3.3678,0.051356,30274.590536163,0.000160247
10954,10.1007/s11664-015-4303-6,5134,3(a),6467,x=0,Ca1Zn2Sb2,353,0.000033052,0.00054006,0.00013401,3.3658,0.05163,30255.35519787,0.0001604552
10954,10.1007/s11664-015-4303-6,5134,3(a),6467,x=0,Ca1Zn2Sb2,353.5,0.000033074,0.00054045,0.00013411,3.3639,0.051903,30235.230090101,0.0001606617
10954,10.1007/s11664-015-4303-6,5134,3(a),6467,x=0,Ca1Zn2Sb2,354,0.000033095,0.00054083,0.0001342,3.362,0.052177,30216.0447197462,0.0001608656
10954,10.1007/s11664-015-4303-6,5134,3(a),6467,x=0,Ca1Zn2Sb2,354.5,0.000033117,0.00054121,0.00013429,3.3601,0.052451,30195.9718573542,0.0001610696
10954,10.1007/s11664-015-4303-6,5134,3(a),6467,x=0,Ca1Zn2Sb2,355,0.000033138,0.00054159,0.00013438,3.3582,0.052724,30176.8362604864,0.0001612739
10954,10.1007/s11664-015-4303-6,5134,3(a),6467,x=0,Ca1Zn2Sb2,355.5,0.00003316,0.00054198,0.00013447,3.3563,0.052998,30156.8154402895,0.0001614814
10954,10.1007/s11664-015-4303-6,5134,3(a),6467,x=0,Ca1Zn2Sb2,356,0.000033181,0.00054236,0.00013456,3.3543,0.053272,30137.7294234652,0.000161691
10954,10.1007/s11664-015-4303-6,5134,3(a),6467,x=0,Ca1Zn2Sb2,356.5,0.000033202,0.00054274,0.00013466,3.3524,0.053545,30118.6675501476,0.000161896
10954,10.1007/s11664-015-4303-6,5134,3(a),6467,x=0,Ca1Zn2Sb2,357,0.000033224,0.00054312,0.00013475,3.3505,0.053819,30098.7238141103,0.0001621012
10954,10.1007/s11664-015-4303-6,5134,3(a),6467,x=0,Ca1Zn2Sb2,357.5,0.000033245,0.0005435,0.00013484,3.3486,0.054092,30079.7112347721,0.0001623066
10954,10.1007/s11664-015-4303-6,5134,3(a),6467,x=0,Ca1Zn2Sb2,358,0.000033267,0.00054389,0.00013493,3.3467,0.054366,30059.8190398894,0.0001625153
10954,10.1007/s11664-015-4303-6,5134,3(a),6467,x=0,Ca1Zn2Sb2,358.5,0.000033288,0.00054427,0.00013502,3.3448,0.05464,30040.8555635665,0.0001627212
10954,10.1007/s11664-015-4303-6,5134,3(a),6467,x=0,Ca1Zn2Sb2,359,0.000033309,0.00054465,0.00013511,3.3428,0.054913,30021.915998679,0.0001629323
10954,10.1007/s11664-015-4303-6,5134,3(a),6467,x=0,Ca1Zn2Sb2,359.5,0.000033331,0.00054503,0.00013521,3.3409,0.055187,30002.1001470103,0.0001631387
10954,10.1007/s11664-015-4303-6,5134,3(a),6467,x=0,Ca1Zn2Sb2,360,0.000033352,0.00054542,0.0001353,3.339,0.05546,29983.2094027345,0.0001633483
10954,10.1007/s11664-015-4303-6,5134,3(a),6467,x=0,Ca1Zn2Sb2,360.5,0.000033374,0.0005458,0.00013539,3.3371,0.055734,29963.4445975909,0.0001635552
10954,10.1007/s11664-015-4303-6,5134,3(a),6467,x=0,Ca1Zn2Sb2,361,0.000033395,0.00054618,0.00013548,3.3352,0.056008,29944.602485402,0.0001637623
10954,10.1007/s11664-015-4303-6,5134,3(a),6467,x=0,Ca1Zn2Sb2,361.5,0.000033417,0.00054656,0.00013557,3.3333,0.056281,29924.8885297902,0.0001639696
10954,10.1007/s11664-015-4303-6,5134,3(a),6467,x=0,Ca1Zn2Sb2,362,0.000033438,0.00054695,0.00013566,3.3313,0.056555,29906.0948621329,0.0001641852
10954,10.1007/s11664-015-4303-6,5134,3(a),6467,x=0,Ca1Zn2Sb2,362.5,0.000033459,0.00054733,0.00013576,3.3294,0.056829,29887.3247855584,0.000164393
10954,10.1007/s11664-015-4303-6,5134,3(a),6467,x=0,Ca1Zn2Sb2,363,0.000033481,0.00054771,0.00013585,3.3275,0.057102,29867.6861503539,0.0001646011
10954,10.1007/s11664-015-4303-6,5134,3(a),6467,x=0,Ca1Zn2Sb2,363.5,0.000033502,0.00054809,0.00013594,3.3256,0.057376,29848.9642409408,0.0001648094
10954,10.1007/s11664-015-4303-6,5134,3(a),6467,x=0,Ca1Zn2Sb2,364,0.000033524,0.00054848,0.00013603,3.3237,0.057649,29829.3759694547,0.0001650209
10954,10.1007/s11664-015-4303-6,5134,3(a),6467,x=0,Ca1Zn2Sb2,364.5,0.000033545,0.00054886,0.00013612,3.3218,0.057923,29810.7020420331,0.0001652297
10954,10.1007/s11664-015-4303-6,5134,3(a),6467,x=0,Ca1Zn2Sb2,365,0.000033567,0.00054924,0.00013621,3.3198,0.058197,29791.1639407752,0.0001654437
10954,10.1007/s11664-015-4303-6,5134,3(a),6467,x=0,Ca1Zn2Sb2,365.5,0.000033588,0.00054962,0.00013631,3.3179,0.05847,29772.537811123,0.000165653
10954,10.1007/s11664-015-4303-6,5134,3(a),6467,x=0,Ca1Zn2Sb2,366,0.000033609,0.00055,0.0001364,3.316,0.058744,29753.9349578982,0.0001658625
10954,10.1007/s11664-015-4303-6,5134,3(a),6467,x=0,Ca1Zn2Sb2,366.5,0.000033631,0.00055039,0.00013649,3.3141,0.059017,29734.4711724302,0.0001660753