sid,DOI,figureid,fignum,sampleid,samplename,composition,Temperature,Carrier concentration,Electrical resistivity,Hall movility,Lattice thermal conductivity,Seebeck coefficient,Thermal conductivity,ZT,Electrical conductivity,Power factor,Figure of merit Z
2795,10.1039/c4ta01957a,11387,4a,13630,Cu2.95Sb1-xSnxSe4 (x=0.00),Cu2.95SbSe4,350,2.1736e+43,0.00022245,0.0089055,2.4774,0.00038479,2.4047,0.10158,4495.3922229715,0.0006656028,0.0002767925
2795,10.1039/c4ta01957a,11387,4a,13630,Cu2.95Sb1-xSnxSe4 (x=0.00),Cu2.95SbSe4,400,7.8106e+43,0.00020298,0.007346,2.2236,0.00037006,2.1826,0.15205,4926.5937530791,0.0006746694,0.0003091127
2795,10.1039/c4ta01957a,11387,4a,13630,Cu2.95Sb1-xSnxSe4 (x=0.00),Cu2.95SbSe4,450,1.3448e+44,0.00018336,0.0057865,1.9699,0.00035532,1.9604,0.20253,5453.7521815009,0.0006885488,0.0003512287
2795,10.1039/c4ta01957a,11387,4a,13630,Cu2.95Sb1-xSnxSe4 (x=0.00),Cu2.95SbSe4,500,1.9085e+44,0.00016361,0.0042271,1.7161,0.00034059,1.7383,0.253,6112.0958376627,0.0007090126,0.000407877
2795,10.1039/c4ta01957a,11387,4a,13630,Cu2.95Sb1-xSnxSe4 (x=0.00),Cu2.95SbSe4,550,2.4722e+44,0.00014371,0.0026676,1.4623,0.00032586,1.5162,0.30347,6958.4580057059,0.0007388821,0.0004873249
2795,10.1039/c4ta01957a,11387,4a,13630,Cu2.95Sb1-xSnxSe4 (x=0.00),Cu2.95SbSe4,600,3.0359e+44,0.00012368,0.0011082,1.2086,0.00031112,1.2941,0.35395,8085.3816300129,0.0007826298,0.0006047676
2795,10.1039/c4ta01957a,11387,4a,13630,Cu2.95Sb1-xSnxSe4 (x=0.00),Cu2.95SbSe4,650,,0.0001035,,,0.00029639,1.072,0.40442,9661.8357487923,0.0008487636,0.0007917571
2795,10.1039/c4ta01957a,11388,4b,13630,Cu2.95Sb1-xSnxSe4 (x=0.00),Cu2.95SbSe4,300,-3.4633e+43,,0.010465,2.7311,0.00039952,2.6268,,,,
2795,10.1039/c4ta01957a,11387,4a,13631,Cu2.95Sb1-xSnxSe4 (x=0.01),Cu2.95Sb0.99Sn0.01Se4,350,5.1578e+25,0.000034879,0.0033091,2.5468,0.00018132,2.6086,0.13201,28670.5467473265,0.0009425999,0.0003613432
2795,10.1039/c4ta01957a,11387,4a,13631,Cu2.95Sb1-xSnxSe4 (x=0.01),Cu2.95Sb0.99Sn0.01Se4,400,5.8696e+25,0.000038096,0.0029428,2.2771,0.00019367,2.3642,0.20406,26249.4750104998,0.0009845671,0.0004164483
2795,10.1039/c4ta01957a,11387,4a,13631,Cu2.95Sb1-xSnxSe4 (x=0.01),Cu2.95Sb0.99Sn0.01Se4,450,6.5814e+25,0.000041704,0.0025765,2.0073,0.00020602,2.1199,0.2761,23978.5152503357,0.0010177499,0.0004800933
2795,10.1039/c4ta01957a,11387,4a,13631,Cu2.95Sb1-xSnxSe4 (x=0.01),Cu2.95Sb0.99Sn0.01Se4,500,7.2931e+25,0.000045036,0.0022102,1.7376,0.00021837,1.8755,0.34814,22204.458655298,0.0010588298,0.0005645587
2795,10.1039/c4ta01957a,11387,4a,13631,Cu2.95Sb1-xSnxSe4 (x=0.01),Cu2.95Sb0.99Sn0.01Se4,550,8.0049e+25,0.00004734,0.0018439,1.4679,0.00023072,1.6312,0.42018,21123.7853823405,0.0011244554,0.0006893424
2795,10.1039/c4ta01957a,11387,4a,13631,Cu2.95Sb1-xSnxSe4 (x=0.01),Cu2.95Sb0.99Sn0.01Se4,600,8.7166e+25,0.000048948,0.0014776,1.1981,0.00024307,1.3868,0.49223,20429.8439159925,0.001207057,0.0008703901
2795,10.1039/c4ta01957a,11387,4a,13631,Cu2.95Sb1-xSnxSe4 (x=0.01),Cu2.95Sb0.99Sn0.01Se4,650,9.4284e+25,0.000052441,0.0011113,,0.00025542,1.1425,0.56427,19069.049026525,0.0012440529,0.0010888865
2795,10.1039/c4ta01957a,11388,4b,13631,Cu2.95Sb1-xSnxSe4 (x=0.01),Cu2.95Sb0.99Sn0.01Se4,300,4.4461e+25,,0.0036754,2.8166,0.00016897,2.8529,0.059972,,,
2795,10.1039/c4ta01957a,11387,4a,13632,Cu2.95Sb1-xSnxSe4 (x=0.02),Cu2.95Sb0.98Sn0.02Se4,350,1.0416e+26,0.000019935,0.0028365,2.5559,0.00012924,2.7556,0.1051,50163.0298470028,0.000837872,0.0003040615
2795,10.1039/c4ta01957a,11387,4a,13632,Cu2.95Sb1-xSnxSe4 (x=0.02),Cu2.95Sb0.98Sn0.02Se4,400,1.1418e+26,0.000021638,0.0025365,2.2899,0.00014373,2.5113,0.18671,46214.9921434513,0.0009547238,0.0003801711
2795,10.1039/c4ta01957a,11387,4a,13632,Cu2.95Sb1-xSnxSe4 (x=0.02),Cu2.95Sb0.98Sn0.02Se4,450,1.2419e+26,0.000023586,0.0022365,2.0239,0.00015821,2.2669,0.26832,42398.0327312813,0.0010612399,0.0004681459
2795,10.1039/c4ta01957a,11387,4a,13632,Cu2.95Sb1-xSnxSe4 (x=0.02),Cu2.95Sb0.98Sn0.02Se4,500,1.3421e+26,0.000025779,0.0019365,1.758,0.0001727,2.0226,0.34992,38791.2642073005,0.0011569607,0.0005720166
2795,10.1039/c4ta01957a,11387,4a,13632,Cu2.95Sb1-xSnxSe4 (x=0.02),Cu2.95Sb0.98Sn0.02Se4,550,1.4423e+26,0.000028216,0.0016365,1.492,0.00018719,1.7783,0.43153,35440.8846044797,0.001241852,0.0006983366
2795,10.1039/c4ta01957a,11387,4a,13632,Cu2.95Sb1-xSnxSe4 (x=0.02),Cu2.95Sb0.98Sn0.02Se4,600,1.5424e+26,0.000030899,0.0013365,1.226,0.00020167,1.534,0.51314,32363.5069096087,0.0013162494,0.0008580504
2795,10.1039/c4ta01957a,11387,4a,13632,Cu2.95Sb1-xSnxSe4 (x=0.02),Cu2.95Sb0.98Sn0.02Se4,650,1.6426e+26,0.000033827,,,0.00021616,1.2897,0.59475,29562.1840541579,0.0013812974,0.0010710222
2795,10.1039/c4ta01957a,11387,4a,13633,Cu2.95Sb1-xSnxSe4 (x=0.03),Cu2.95Sb0.97Sn0.03Se4,350,1.5927e+26,0.000016369,0.0023068,2.5446,0.00011518,2.8378,0.096687,61091.0868104344,0.0008104608,0.0002855947
2795,10.1039/c4ta01957a,11387,4a,13633,Cu2.95Sb1-xSnxSe4 (x=0.03),Cu2.95Sb0.97Sn0.03Se4,400,1.7043e+26,0.000018042,0.0020841,2.2803,0.00012889,2.5969,0.17427,55426.2276909433,0.0009207755,0.0003545672
2795,10.1039/c4ta01957a,11387,4a,13633,Cu2.95Sb1-xSnxSe4 (x=0.03),Cu2.95Sb0.97Sn0.03Se4,450,1.8159e+26,0.000019714,0.0018615,2.016,0.00014229,2.3561,0.25186,50725.3728314903,0.0010270084,0.0004358934
2795,10.1039/c4ta01957a,11387,4a,13633,Cu2.95Sb1-xSnxSe4 (x=0.03),Cu2.95Sb0.97Sn0.03Se4,500,1.9276e+26,0.000021387,0.0016388,1.7517,0.00015548,2.1152,0.32945,46757.3759760602,0.0011303142,0.000534377
2795,10.1039/c4ta01957a,11387,4a,13633,Cu2.95Sb1-xSnxSe4 (x=0.03),Cu2.95Sb0.97Sn0.03Se4,550,2.0392e+26,0.000023059,0.0014162,1.4874,0.00016854,1.8744,0.40703,43367.0150483542,0.0012318718,0.0006572086
2795,10.1039/c4ta01957a,11387,4a,13633,Cu2.95Sb1-xSnxSe4 (x=0.03),Cu2.95Sb0.97Sn0.03Se4,600,2.1508e+26,0.000024732,0.0011935,1.2231,0.00018154,1.6335,0.48462,40433.4465469837,0.0013325559,0.0008157673
2795,10.1039/c4ta01957a,11387,4a,13633,Cu2.95Sb1-xSnxSe4 (x=0.03),Cu2.95Sb0.97Sn0.03Se4,650,2.2625e+26,0.000026404,0.00097086,,0.00019454,1.3927,0.56221,37873.0495379488,0.0014333363,0.0010291781
2795,10.1039/c4ta01957a,11390,9a,13633,Cu2.95Sb1-xSnxSe4 (x=0.03),Cu2.95Sb0.97Sn0.03Se4,300,,,,2.809,,3.0786,,,,
2795,10.1039/c4ta01957a,11387,4a,13634,Cu2.95Sb1-xSnxSe4 (x=0.04),Cu2.95Sb0.96Sn0.04Se4,350,2.2735e+26,0.000011968,0.002265,2.7405,0.00010411,3.199,0.10298,83556.1497326203,0.0009056561,0.000283106
2795,10.1039/c4ta01957a,11387,4a,13634,Cu2.95Sb1-xSnxSe4 (x=0.04),Cu2.95Sb0.96Sn0.04Se4,400,2.3246e+26,0.000013507,0.0020542,2.4487,0.00011749,2.9026,0.1662,74035.6852002665,0.0010219812,0.0003520916
2795,10.1039/c4ta01957a,11387,4a,13634,Cu2.95Sb1-xSnxSe4 (x=0.04),Cu2.95Sb0.96Sn0.04Se4,450,2.3757e+26,0.000015047,0.0018434,2.1569,0.0001303,2.6063,0.22942,66458.4302518774,0.0011283372,0.0004329268
2795,10.1039/c4ta01957a,11387,4a,13634,Cu2.95Sb1-xSnxSe4 (x=0.04),Cu2.95Sb0.96Sn0.04Se4,500,2.4268e+26,0.000016586,0.0016326,1.8651,0.00014254,2.3099,0.29264,60291.8123718799,0.001224988,0.0005303208
2795,10.1039/c4ta01957a,11387,4a,13634,Cu2.95Sb1-xSnxSe4 (x=0.04),Cu2.95Sb0.96Sn0.04Se4,550,2.4779e+26,0.000018126,0.0014218,1.5732,0.0001542,2.0136,0.35586,55169.369965795,0.0013117974,0.0006514687
2795,10.1039/c4ta01957a,11387,4a,13634,Cu2.95Sb1-xSnxSe4 (x=0.04),Cu2.95Sb0.96Sn0.04Se4,600,,0.000019665,,,0.00016528,,,50851.7670989067,0.001389142,
2795,10.1039/c4ta01957a,11387,4a,13634,Cu2.95Sb1-xSnxSe4 (x=0.04),Cu2.95Sb0.96Sn0.04Se4,650,,0.000021205,,,0.00017579,,,47158.6889884461,0.0014573037,
2795,10.1039/c4ta01957a,11388,4b,13634,Cu2.95Sb1-xSnxSe4 (x=0.04),Cu2.95Sb0.96Sn0.04Se4,300,,,0.0024758,3.0324,0.000090148,3.4953,,,,
2795,10.1039/c4ta01957a,26224,10b,32892,Sn-doped Cu3SbSe4_ 673 K,undefined,,1.5e+26,,,,,,0.63208,,,
2795,10.1039/c4ta01957a,26224,10b,32892,Sn-doped Cu3SbSe4_ 673 K,undefined,,2e+26,,,,,,0.64864,,,
2795,10.1039/c4ta01957a,26224,10b,32893,Sn-doped Cu3SbSe4_ 473 K,undefined,,5e+25,,,,,,0.25159,,,
2795,10.1039/c4ta01957a,26224,10b,32893,Sn-doped Cu3SbSe4_ 473 K,undefined,,1e+26,,,,,,0.25225,,,
2795,10.1039/c4ta01957a,26224,10b,32893,Sn-doped Cu3SbSe4_ 473 K,undefined,,1.5e+26,,,,,,0.25291,,,
2795,10.1039/c4ta01957a,26224,10b,32893,Sn-doped Cu3SbSe4_ 473 K,undefined,,2e+26,,,,,,0.25357,,,
2795,10.1039/c4ta01957a,26224,10b,32894,Sn-doped Cu3SbSe4_ 300 K,undefined,,5e+25,,,,,,0.069844,,,
2795,10.1039/c4ta01957a,26224,10b,32894,Sn-doped Cu3SbSe4_ 300 K,undefined,,1e+26,,,,,,0.066816,,,
2795,10.1039/c4ta01957a,26224,10b,32894,Sn-doped Cu3SbSe4_ 300 K,undefined,,1.5e+26,,,,,,0.063788,,,
2795,10.1039/c4ta01957a,26224,10b,32894,Sn-doped Cu3SbSe4_ 300 K,undefined,,2e+26,,,,,,0.060759,,,