sid,DOI,figureid,fignum,sampleid,samplename,composition,Temperature,Electrical resistivity,Power factor,Seebeck coefficient,Thermal conductivity,ZT,Electrical conductivity,Figure of merit Z
73,10.1016/j.actamat.2015.04.023,4591,3(a),5860,x=0.025,Mg2.975Na0.025Sb2,671.5,0.000029713,0.00067302,0.00013878,1.2724,0.37562,33655.302392892,0.0005289374
73,10.1016/j.actamat.2015.04.023,4591,3(a),5860,x=0.025,Mg2.975Na0.025Sb2,672,0.000029718,0.00067362,0.00013887,1.2715,0.37612,33649.6399488525,0.0005297837
73,10.1016/j.actamat.2015.04.023,4591,3(a),5860,x=0.025,Mg2.975Na0.025Sb2,672.5,0.000029724,0.00067421,0.00013896,1.2705,0.37662,33642.847530615,0.0005306651
73,10.1016/j.actamat.2015.04.023,4591,3(a),5860,x=0.025,Mg2.975Na0.025Sb2,673,0.000029729,0.00067481,0.00013905,1.2695,0.37711,33637.1892764641,0.0005315557
73,10.1016/j.actamat.2015.04.023,4591,3(a),5860,x=0.025,Mg2.975Na0.025Sb2,673.5,0.000029734,0.00067541,0.00013914,1.2685,0.37761,33631.5329252707,0.0005324478
73,10.1016/j.actamat.2015.04.023,4591,3(a),5860,x=0.025,Mg2.975Na0.025Sb2,674,0.000029739,0.000676,0.00013923,1.2675,0.37811,33625.8784760752,0.0005333333
73,10.1016/j.actamat.2015.04.023,4591,3(a),5860,x=0.025,Mg2.975Na0.025Sb2,674.5,0.000029744,0.0006766,0.00013932,1.2666,0.37861,33620.2259279182,0.000534186
73,10.1016/j.actamat.2015.04.023,4591,3(a),5860,x=0.025,Mg2.975Na0.025Sb2,675,0.000029749,0.00067719,0.00013941,1.2656,0.3791,33614.5752798413,0.0005350743
73,10.1016/j.actamat.2015.04.023,4591,3(a),5860,x=0.025,Mg2.975Na0.025Sb2,675.5,0.000029754,0.00067779,0.0001395,1.2646,0.3796,33608.9265308866,0.0005359718
73,10.1016/j.actamat.2015.04.023,4591,3(a),5860,x=0.025,Mg2.975Na0.025Sb2,676,0.000029759,0.00067839,0.00013959,1.2636,0.3801,33603.2796800968,0.0005368708
73,10.1016/j.actamat.2015.04.023,4591,3(a),5860,x=0.025,Mg2.975Na0.025Sb2,676.5,0.000029765,0.00067898,0.00013968,1.2626,0.3806,33596.5059633798,0.0005377633
73,10.1016/j.actamat.2015.04.023,4591,3(a),5860,x=0.025,Mg2.975Na0.025Sb2,677,0.00002977,0.00067958,0.00013977,1.2616,0.38109,33590.8632851864,0.0005386652
73,10.1016/j.actamat.2015.04.023,4591,3(a),5860,x=0.025,Mg2.975Na0.025Sb2,677.5,0.000029775,0.00068018,0.00013986,1.2607,0.38159,33585.2225020991,0.0005395257
73,10.1016/j.actamat.2015.04.023,4591,3(a),5860,x=0.025,Mg2.975Na0.025Sb2,678,0.00002978,0.00068077,0.00013995,1.2597,0.38209,33579.5836131632,0.0005404223
73,10.1016/j.actamat.2015.04.023,4591,3(a),5860,x=0.025,Mg2.975Na0.025Sb2,678.5,0.000029785,0.00068137,0.00014004,1.2587,0.38259,33573.9466174249,0.0005413284
73,10.1016/j.actamat.2015.04.023,4591,3(a),5860,x=0.025,Mg2.975Na0.025Sb2,679,0.00002979,0.00068197,0.00014013,1.2577,0.38308,33568.3115139309,0.0005422358
73,10.1016/j.actamat.2015.04.023,4591,3(a),5860,x=0.025,Mg2.975Na0.025Sb2,679.5,0.000029795,0.00068256,0.00014022,1.2567,0.38358,33562.6783017285,0.0005431368
73,10.1016/j.actamat.2015.04.023,4591,3(a),5860,x=0.025,Mg2.975Na0.025Sb2,680,0.0000298,0.00068316,0.00014031,1.2558,0.38408,33557.0469798658,0.0005440038
73,10.1016/j.actamat.2015.04.023,4591,3(a),5860,x=0.025,Mg2.975Na0.025Sb2,680.5,0.000029806,0.00068376,0.0001404,1.2548,0.38458,33550.2918875394,0.0005449155
73,10.1016/j.actamat.2015.04.023,4591,3(a),5860,x=0.025,Mg2.975Na0.025Sb2,681,0.000029811,0.00068435,0.00014048,1.2538,0.38507,33544.6647210761,0.0005458207
73,10.1016/j.actamat.2015.04.023,4591,3(a),5860,x=0.025,Mg2.975Na0.025Sb2,681.5,0.000029816,0.00068495,0.00014057,1.2528,0.38557,33539.0394419104,0.0005467353
73,10.1016/j.actamat.2015.04.023,4591,3(a),5860,x=0.025,Mg2.975Na0.025Sb2,682,0.000029821,0.00068555,0.00014066,1.2518,0.38607,33533.4160490929,0.0005476514
73,10.1016/j.actamat.2015.04.023,4591,3(a),5860,x=0.025,Mg2.975Na0.025Sb2,682.5,0.000029826,0.00068614,0.00014075,1.2508,0.38657,33527.7945416751,0.0005485609
73,10.1016/j.actamat.2015.04.023,4591,3(a),5860,x=0.025,Mg2.975Na0.025Sb2,683,0.000029831,0.00068674,0.00014084,1.2499,0.38706,33522.1749187087,0.000549436
73,10.1016/j.actamat.2015.04.023,4591,3(a),5860,x=0.025,Mg2.975Na0.025Sb2,683.5,0.000029836,0.00068734,0.00014093,1.2489,0.38756,33516.5571792465,0.0005503563
73,10.1016/j.actamat.2015.04.023,4591,3(a),5860,x=0.025,Mg2.975Na0.025Sb2,684,0.000029842,0.00068793,0.00014102,1.2479,0.38806,33509.8183767844,0.0005512701
73,10.1016/j.actamat.2015.04.023,4591,3(a),5860,x=0.025,Mg2.975Na0.025Sb2,684.5,0.000029847,0.00068853,0.00014111,1.2469,0.38856,33504.2047776996,0.0005521934
73,10.1016/j.actamat.2015.04.023,4591,3(a),5860,x=0.025,Mg2.975Na0.025Sb2,685,0.000029852,0.00068913,0.0001412,1.2459,0.38905,33498.5930590915,0.0005531182
73,10.1016/j.actamat.2015.04.023,4591,3(a),5860,x=0.025,Mg2.975Na0.025Sb2,685.5,0.000029857,0.00068972,0.00014129,1.245,0.38955,33492.9832200154,0.000553992
73,10.1016/j.actamat.2015.04.023,4591,3(a),5860,x=0.025,Mg2.975Na0.025Sb2,686,0.000029862,0.00069032,0.00014138,1.244,0.39005,33487.3752595272,0.0005549196
73,10.1016/j.actamat.2015.04.023,4591,3(a),5860,x=0.025,Mg2.975Na0.025Sb2,686.5,0.000029867,0.00069092,0.00014147,1.243,0.39055,33481.7691766833,0.0005558488
73,10.1016/j.actamat.2015.04.023,4591,3(a),5860,x=0.025,Mg2.975Na0.025Sb2,687,0.000029872,0.00069151,0.00014156,1.242,0.39104,33476.164970541,0.0005567713
73,10.1016/j.actamat.2015.04.023,4591,3(a),5860,x=0.025,Mg2.975Na0.025Sb2,687.5,0.000029877,0.00069211,0.00014165,1.241,0.39154,33470.562640158,0.0005577035
73,10.1016/j.actamat.2015.04.023,4591,3(a),5860,x=0.025,Mg2.975Na0.025Sb2,688,0.000029883,0.0006927,0.00014174,1.2401,0.39204,33463.842318375,0.000558584
73,10.1016/j.actamat.2015.04.023,4591,3(a),5860,x=0.025,Mg2.975Na0.025Sb2,688.5,0.000029888,0.0006933,0.00014183,1.2391,0.39253,33458.244111349,0.000559519
73,10.1016/j.actamat.2015.04.023,4591,3(a),5860,x=0.025,Mg2.975Na0.025Sb2,689,0.000029893,0.0006939,0.00014192,1.2381,0.39303,33452.6477770716,0.0005604555
73,10.1016/j.actamat.2015.04.023,4591,3(a),5860,x=0.025,Mg2.975Na0.025Sb2,689.5,0.000029898,0.00069449,0.00014201,1.2371,0.39353,33447.053314603,0.0005613855
73,10.1016/j.actamat.2015.04.023,4591,3(a),5860,x=0.025,Mg2.975Na0.025Sb2,690,0.000029903,0.00069509,0.0001421,1.2361,0.39403,33441.4607230044,0.0005623251
73,10.1016/j.actamat.2015.04.023,4591,3(a),5860,x=0.025,Mg2.975Na0.025Sb2,690.5,0.000029908,0.00069569,0.00014218,1.2351,0.39452,33435.8700013374,0.0005632661
73,10.1016/j.actamat.2015.04.023,4591,3(a),5860,x=0.025,Mg2.975Na0.025Sb2,691,0.000029913,0.00069628,0.00014227,1.2342,0.39502,33430.2811486645,0.0005641549
73,10.1016/j.actamat.2015.04.023,4591,3(a),5860,x=0.025,Mg2.975Na0.025Sb2,691.5,0.000029918,0.00069688,0.00014236,1.2332,0.39552,33424.6941640484,0.0005650989
73,10.1016/j.actamat.2015.04.023,4591,3(a),5860,x=0.025,Mg2.975Na0.025Sb2,692,0.000029924,0.00069748,0.00014245,1.2322,0.39602,33417.9922470258,0.0005660445
73,10.1016/j.actamat.2015.04.023,4591,3(a),5860,x=0.025,Mg2.975Na0.025Sb2,692.5,0.000029929,0.00069807,0.00014254,1.2312,0.39651,33412.4093688396,0.0005669834
73,10.1016/j.actamat.2015.04.023,4591,3(a),5860,x=0.025,Mg2.975Na0.025Sb2,693,0.000029934,0.00069867,0.00014263,1.2302,0.39701,33406.8283557159,0.000567932
73,10.1016/j.actamat.2015.04.023,4591,3(a),5860,x=0.025,Mg2.975Na0.025Sb2,693.5,0.000029939,0.00069927,0.00014272,1.2293,0.39751,33401.2492067203,0.0005688359
73,10.1016/j.actamat.2015.04.023,4591,3(a),5860,x=0.025,Mg2.975Na0.025Sb2,694,0.000029944,0.00069986,0.00014281,1.2283,0.39801,33395.671920919,0.0005697794
73,10.1016/j.actamat.2015.04.023,4591,3(a),5860,x=0.025,Mg2.975Na0.025Sb2,694.5,0.000029949,0.00070046,0.0001429,1.2273,0.3985,33390.0964973789,0.0005707325
73,10.1016/j.actamat.2015.04.023,4591,3(a),5860,x=0.025,Mg2.975Na0.025Sb2,695,0.000029954,0.00070106,0.00014299,1.2263,0.399,33384.5229351673,0.0005716872
73,10.1016/j.actamat.2015.04.023,4591,3(a),5860,x=0.025,Mg2.975Na0.025Sb2,695.5,0.000029959,0.00070165,0.00014308,1.2253,0.3995,33378.9512333523,0.0005726353
73,10.1016/j.actamat.2015.04.023,4591,3(a),5860,x=0.025,Mg2.975Na0.025Sb2,696,0.000029965,0.00070225,0.00014317,1.2243,0.4,33372.2676455865,0.0005735931
73,10.1016/j.actamat.2015.04.023,4591,3(a),5860,x=0.025,Mg2.975Na0.025Sb2,696.5,0.00002997,0.00070285,0.00014326,1.2234,0.40049,33366.7000333667,0.0005745055
73,10.1016/j.actamat.2015.04.023,4591,3(a),5860,x=0.025,Mg2.975Na0.025Sb2,697,0.000029975,0.00070344,0.00014335,1.2224,0.40099,33361.1342785655,0.0005754581
73,10.1016/j.actamat.2015.04.023,4591,3(a),5860,x=0.025,Mg2.975Na0.025Sb2,697.5,0.00002998,0.00070404,0.00014344,1.2214,0.40149,33355.5703802535,0.0005764205
73,10.1016/j.actamat.2015.04.023,4591,3(a),5860,x=0.025,Mg2.975Na0.025Sb2,698,0.000029985,0.00070464,0.00014353,1.2204,0.40199,33350.0083375021,0.0005773845
73,10.1016/j.actamat.2015.04.023,4591,3(a),5860,x=0.025,Mg2.975Na0.025Sb2,698.5,0.00002999,0.00070523,0.00014362,1.2194,0.40248,33344.4481493831,0.0005783418
73,10.1016/j.actamat.2015.04.023,4591,3(a),5860,x=0.025,Mg2.975Na0.025Sb2,699,0.000029995,0.00070583,0.00014371,1.2185,0.40298,33338.8898149692,0.0005792614
73,10.1016/j.actamat.2015.04.023,4591,3(a),5860,x=0.025,Mg2.975Na0.025Sb2,699.5,0.000030001,0.00070643,0.00014379,1.2175,0.40348,33332.222259258,0.00058023
73,10.1016/j.actamat.2015.04.023,4591,3(a),5860,x=0.025,Mg2.975Na0.025Sb2,700,0.000030006,0.00070702,0.00014388,1.2165,0.40398,33326.6679997334,0.0005811919
73,10.1016/j.actamat.2015.04.023,4591,3(a),5860,x=0.025,Mg2.975Na0.025Sb2,700.5,0.000030011,0.00070762,0.00014397,1.2155,0.40447,33321.11559095,0.0005821637
73,10.1016/j.actamat.2015.04.023,4591,3(a),5860,x=0.025,Mg2.975Na0.025Sb2,701,0.000030016,0.00070821,0.00014406,1.2145,0.40497,33315.5650319829,0.0005831289
73,10.1016/j.actamat.2015.04.023,4591,3(a),5860,x=0.025,Mg2.975Na0.025Sb2,701.5,0.000030021,0.00070881,0.00014415,1.2135,0.40547,33310.016321908,0.0005841038
73,10.1016/j.actamat.2015.04.023,4591,3(a),5860,x=0.025,Mg2.975Na0.025Sb2,702,0.000030026,0.00070941,0.00014424,1.2126,0.40597,33304.4694598015,0.0005850322
73,10.1016/j.actamat.2015.04.023,4591,3(a),5860,x=0.025,Mg2.975Na0.025Sb2,702.5,0.000030031,0.00071,0.00014433,1.2116,0.40646,33298.9244447404,0.000586002
73,10.1016/j.actamat.2015.04.023,4591,3(a),5860,x=0.025,Mg2.975Na0.025Sb2,703,0.000030036,0.0007106,0.00014442,1.2106,0.40696,33293.3812758024,0.0005869817
73,10.1016/j.actamat.2015.04.023,4591,3(a),5860,x=0.025,Mg2.975Na0.025Sb2,703.5,0.000030042,0.0007112,0.00014451,1.2096,0.40746,33286.7319086612,0.000587963
73,10.1016/j.actamat.2015.04.023,4591,3(a),5860,x=0.025,Mg2.975Na0.025Sb2,704,0.000030047,0.00071179,0.0001446,1.2086,0.40796,33281.1927979499,0.0005889376
73,10.1016/j.actamat.2015.04.023,4591,3(a),5860,x=0.025,Mg2.975Na0.025Sb2,704.5,0.000030052,0.00071239,0.00014469,1.2077,0.40845,33275.6555304139,0.0005898733
73,10.1016/j.actamat.2015.04.023,4591,3(a),5860,x=0.025,Mg2.975Na0.025Sb2,705,0.000030057,0.00071299,0.00014478,1.2067,0.40895,33270.1201051336,0.0005908594
73,10.1016/j.actamat.2015.04.023,4591,3(a),5860,x=0.025,Mg2.975Na0.025Sb2,705.5,0.000030062,0.00071358,0.00014487,1.2057,0.40945,33264.5865211895,0.0005918388
73,10.1016/j.actamat.2015.04.023,4591,3(a),5860,x=0.025,Mg2.975Na0.025Sb2,706,0.000030067,0.00071418,0.00014496,1.2047,0.40995,33259.0547776632,0.0005928281
73,10.1016/j.actamat.2015.04.023,4591,3(a),5860,x=0.025,Mg2.975Na0.025Sb2,706.5,0.000030072,0.00071478,0.00014505,1.2037,0.41044,33253.5248736366,0.0005938191
73,10.1016/j.actamat.2015.04.023,4591,3(a),5860,x=0.025,Mg2.975Na0.025Sb2,707,0.000030077,0.00071537,0.00014514,1.2028,0.41094,33247.9968081923,0.0005947539
73,10.1016/j.actamat.2015.04.023,4591,3(a),5860,x=0.025,Mg2.975Na0.025Sb2,707.5,0.000030083,0.00071597,0.00014523,1.2018,0.41144,33241.365555297,0.000595748
73,10.1016/j.actamat.2015.04.023,4591,3(a),5860,x=0.025,Mg2.975Na0.025Sb2,708,0.000030088,0.00071657,0.00014532,1.2008,0.41194,33235.8415315076,0.0005967438
73,10.1016/j.actamat.2015.04.023,4591,3(a),5860,x=0.025,Mg2.975Na0.025Sb2,708.5,0.000030093,0.00071716,0.00014541,1.1998,0.41243,33230.3193433689,0.000597733
73,10.1016/j.actamat.2015.04.023,4591,3(a),5860,x=0.025,Mg2.975Na0.025Sb2,709,0.000030098,0.00071776,0.00014549,1.1988,0.41293,33224.7989899661,0.0005987321
73,10.1016/j.actamat.2015.04.023,4591,3(a),5860,x=0.025,Mg2.975Na0.025Sb2,709.5,0.000030103,0.00071836,0.00014558,1.1978,0.41343,33219.280470385,0.0005997328
73,10.1016/j.actamat.2015.04.023,4591,3(a),5860,x=0.025,Mg2.975Na0.025Sb2,710,0.000030108,0.00071895,0.00014567,1.1969,0.41393,33213.763783712,0.0006006767
73,10.1016/j.actamat.2015.04.023,4591,3(a),5860,x=0.025,Mg2.975Na0.025Sb2,710.5,0.000030113,0.00071955,0.00014576,1.1959,0.41442,33208.248929034,0.0006016807
73,10.1016/j.actamat.2015.04.023,4591,3(a),5860,x=0.025,Mg2.975Na0.025Sb2,711,0.000030118,0.00072015,0.00014585,1.1949,0.41492,33202.7359054386,0.0006026864
73,10.1016/j.actamat.2015.04.023,4591,3(a),5860,x=0.025,Mg2.975Na0.025Sb2,711.5,0.000030124,0.00072074,0.00014594,1.1939,0.41542,33196.1226928695,0.0006036854
73,10.1016/j.actamat.2015.04.023,4591,3(a),5860,x=0.025,Mg2.975Na0.025Sb2,712,0.000030129,0.00072134,0.00014603,1.1929,0.41592,33190.6136944472,0.0006046944
73,10.1016/j.actamat.2015.04.023,4591,3(a),5860,x=0.025,Mg2.975Na0.025Sb2,712.5,0.000030134,0.00072194,0.00014612,1.192,0.41641,33185.1065241919,0.0006056544
73,10.1016/j.actamat.2015.04.023,4591,3(a),5860,x=0.025,Mg2.975Na0.025Sb2,713,0.000030139,0.00072253,0.00014621,1.191,0.41691,33179.6011811938,0.0006066583
73,10.1016/j.actamat.2015.04.023,4591,3(a),5860,x=0.025,Mg2.975Na0.025Sb2,713.5,0.000030144,0.00072313,0.0001463,1.19,0.41741,33174.0976645435,0.0006076723
73,10.1016/j.actamat.2015.04.023,4591,3(a),5860,x=0.025,Mg2.975Na0.025Sb2,714,0.000030149,0.00072372,0.00014639,1.189,0.41791,33168.5959733324,0.0006086796
73,10.1016/j.actamat.2015.04.023,4591,3(a),5860,x=0.025,Mg2.975Na0.025Sb2,714.5,0.000030154,0.00072432,0.00014648,1.188,0.4184,33163.0961066525,0.000609697
73,10.1016/j.actamat.2015.04.023,4591,3(a),5860,x=0.025,Mg2.975Na0.025Sb2,715,0.00003016,0.00072492,0.00014657,1.187,0.4189,33156.4986737401,0.0006107161
73,10.1016/j.actamat.2015.04.023,4591,3(a),5860,x=0.025,Mg2.975Na0.025Sb2,715.5,0.000030165,0.00072551,0.00014666,1.1861,0.4194,33151.0028178352,0.0006116769
73,10.1016/j.actamat.2015.04.023,4591,3(a),5860,x=0.025,Mg2.975Na0.025Sb2,716,0.00003017,0.00072611,0.00014675,1.1851,0.4199,33145.5087835598,0.0006126994
73,10.1016/j.actamat.2015.04.023,4591,3(a),5860,x=0.025,Mg2.975Na0.025Sb2,716.5,0.000030175,0.00072671,0.00014684,1.1841,0.42039,33140.0165700083,0.0006137235
73,10.1016/j.actamat.2015.04.023,4591,3(a),5860,x=0.025,Mg2.975Na0.025Sb2,717,0.00003018,0.0007273,0.00014693,1.1831,0.42089,33134.5261762757,0.0006147409
73,10.1016/j.actamat.2015.04.023,4591,3(a),5860,x=0.025,Mg2.975Na0.025Sb2,717.5,0.000030185,0.0007279,0.00014702,1.1821,0.42139,33129.0376014577,0.0006157685
73,10.1016/j.actamat.2015.04.023,4591,3(a),5860,x=0.025,Mg2.975Na0.025Sb2,718,0.00003019,0.0007285,0.0001471,1.1812,0.42189,33123.5508446505,0.0006167457
73,10.1016/j.actamat.2015.04.023,4591,3(a),5860,x=0.025,Mg2.975Na0.025Sb2,718.5,0.000030195,0.00072909,0.00014719,1.1802,0.42238,33118.0659049512,0.0006177682
73,10.1016/j.actamat.2015.04.023,4591,3(a),5860,x=0.025,Mg2.975Na0.025Sb2,719,0.000030201,0.00072969,0.00014728,1.1792,0.42288,33111.4863746234,0.0006188009
73,10.1016/j.actamat.2015.04.023,4591,3(a),5860,x=0.025,Mg2.975Na0.025Sb2,719.5,0.000030206,0.00073029,0.00014737,1.1782,0.42338,33106.0054293849,0.0006198353
73,10.1016/j.actamat.2015.04.023,4591,3(a),5860,x=0.025,Mg2.975Na0.025Sb2,720,0.000030211,0.00073088,0.00014746,1.1772,0.42388,33100.5262983681,0.0006208631
73,10.1016/j.actamat.2015.04.023,4591,3(a),5860,x=0.025,Mg2.975Na0.025Sb2,720.5,0.000030216,0.00073148,0.00014755,1.1763,0.42437,33095.0489806725,0.0006218482
73,10.1016/j.actamat.2015.04.023,4591,3(a),5860,x=0.025,Mg2.975Na0.025Sb2,721,0.000030221,0.00073208,0.00014764,1.1753,0.42487,33089.5734753979,0.0006228878
73,10.1016/j.actamat.2015.04.023,4591,3(a),5860,x=0.025,Mg2.975Na0.025Sb2,721.5,0.000030226,0.00073267,0.00014773,1.1743,0.42537,33084.0997816449,0.0006239206
73,10.1016/j.actamat.2015.04.023,4591,3(a),5860,x=0.025,Mg2.975Na0.025Sb2,722,0.000030231,0.00073327,0.00014782,1.1733,0.42587,33078.6278985148,0.0006249638
73,10.1016/j.actamat.2015.04.023,4591,3(a),5860,x=0.025,Mg2.975Na0.025Sb2,722.5,0.000030236,0.00073387,0.00014791,1.1723,0.42636,33073.1578251091,0.0006260087
73,10.1016/j.actamat.2015.04.023,4591,3(a),5860,x=0.025,Mg2.975Na0.025Sb2,723,0.000030242,0.00073446,0.000148,1.1713,0.42686,33066.5961245949,0.0006270469
73,10.1016/j.actamat.2015.04.023,4591,3(a),5860,x=0.025,Mg2.975Na0.025Sb2,723.5,0.000030247,0.00073506,0.00014809,1.1704,0.42736,33061.1300294244,0.0006280417
73,10.1016/j.actamat.2015.04.023,4591,3(a),5860,x=0.025,Mg2.975Na0.025Sb2,724,0.000030252,0.00073566,0.00014818,1.1694,0.42786,33055.665741108,0.0006290918
73,10.1016/j.actamat.2015.04.023,4591,3(a),5860,x=0.025,Mg2.975Na0.025Sb2,724.5,0.000030257,0.00073625,0.00014827,1.1684,0.42835,33050.20325875,0.0006301352
73,10.1016/j.actamat.2015.04.023,4591,3(a),5860,x=0.025,Mg2.975Na0.025Sb2,725,0.000030262,0.00073685,0.00014836,1.1674,0.42885,33044.7425814553,0.000631189
73,10.1016/j.actamat.2015.04.023,4591,3(a),5860,x=0.025,Mg2.975Na0.025Sb2,725.5,0.000030267,0.00073745,0.00014845,1.1664,0.42935,33039.2837083292,0.0006322445
73,10.1016/j.actamat.2015.04.023,4591,3(a),5860,x=0.025,Mg2.975Na0.025Sb2,726,0.000030272,0.00073804,0.00014854,1.1655,0.42984,33033.8266384778,0.000633239
73,10.1016/j.actamat.2015.04.023,4591,3(a),5860,x=0.025,Mg2.975Na0.025Sb2,726.5,0.000030277,0.00073864,0.00014863,1.1645,0.43034,33028.3713710077,0.000634298
73,10.1016/j.actamat.2015.04.023,4591,3(a),5860,x=0.025,Mg2.975Na0.025Sb2,727,0.000030283,0.00073923,0.00014872,1.1635,0.43084,33021.8274279299,0.0006353502
73,10.1016/j.actamat.2015.04.023,4591,3(a),5860,x=0.025,Mg2.975Na0.025Sb2,727.5,0.000030288,0.00073983,0.0001488,1.1625,0.43134,33016.3761225568,0.0006364129
73,10.1016/j.actamat.2015.04.023,4591,3(a),5860,x=0.025,Mg2.975Na0.025Sb2,728,0.000030293,0.00074043,0.00014889,1.1615,0.43183,33010.9266167101,0.0006374774
73,10.1016/j.actamat.2015.04.023,4591,3(a),5860,x=0.025,Mg2.975Na0.025Sb2,728.5,0.000030298,0.00074102,0.00014898,1.1605,0.43233,33005.478909499,0.0006385351
73,10.1016/j.actamat.2015.04.023,4591,3(a),5860,x=0.025,Mg2.975Na0.025Sb2,729,0.000030303,0.00074162,0.00014907,1.1596,0.43283,33000.033000033,0.0006395481
73,10.1016/j.actamat.2015.04.023,4591,3(a),5860,x=0.025,Mg2.975Na0.025Sb2,729.5,0.000030308,0.00074222,0.00014916,1.1586,0.43333,32994.5888874225,0.000640618
73,10.1016/j.actamat.2015.04.023,4591,3(a),5860,x=0.025,Mg2.975Na0.025Sb2,730,0.000030313,0.00074281,0.00014925,1.1576,0.43382,32989.1465707782,0.0006416811
73,10.1016/j.actamat.2015.04.023,4591,3(a),5860,x=0.025,Mg2.975Na0.025Sb2,730.5,0.000030319,0.00074341,0.00014934,1.1566,0.43432,32982.6181602296,0.0006427546
73,10.1016/j.actamat.2015.04.023,4591,3(a),5860,x=0.025,Mg2.975Na0.025Sb2,731,0.000030324,0.00074401,0.00014943,1.1556,0.43482,32977.1797915842,0.00064383
73,10.1016/j.actamat.2015.04.023,4591,3(a),5860,x=0.025,Mg2.975Na0.025Sb2,731.5,0.000030329,0.0007446,0.00014952,1.1547,0.43532,32971.7432160638,0.0006448428
73,10.1016/j.actamat.2015.04.023,4591,3(a),5860,x=0.025,Mg2.975Na0.025Sb2,732,0.000030334,0.0007452,0.00014961,1.1537,0.43581,32966.3084327817,0.0006459218
73,10.1016/j.actamat.2015.04.023,4591,3(a),5860,x=0.025,Mg2.975Na0.025Sb2,732.5,0.000030339,0.0007458,0.0001497,1.1527,0.43631,32960.8754408517,0.0006470027
73,10.1016/j.actamat.2015.04.023,4591,3(a),5860,x=0.025,Mg2.975Na0.025Sb2,733,0.000030344,0.00074639,0.00014979,1.1517,0.43681,32955.4442393884,0.0006480768
73,10.1016/j.actamat.2015.04.023,4591,3(a),5860,x=0.025,Mg2.975Na0.025Sb2,733.5,0.000030349,0.00074699,0.00014988,1.1507,0.43731,32950.0148275067,0.0006491614
73,10.1016/j.actamat.2015.04.023,4591,3(a),5860,x=0.025,Mg2.975Na0.025Sb2,734,0.000030354,0.00074759,0.00014997,1.1497,0.4378,32944.5872043223,0.0006502479