sid,DOI,figureid,fignum,sampleid,samplename,composition,Temperature,Electrical resistivity,Power factor,Seebeck coefficient,Thermal conductivity,ZT,Electrical conductivity,Figure of merit Z
769,10.1039/b916346h,10694,2(a),12884,x=0,EuZn2Sb2,300,0.0000083505,,,2.3668,0.18236,119753.3081851386,
769,10.1039/b916346h,10694,2(a),12884,x=0,EuZn2Sb2,350,0.0000095588,0.0018469,0.00013028,2.2228,0.28322,104615.6421308114,0.000830889
769,10.1039/b916346h,10694,2(a),12884,x=0,EuZn2Sb2,400,0.000010767,0.0018697,0.00013851,2.0787,0.38409,92876.3815361754,0.0008994564
769,10.1039/b916346h,10694,2(a),12884,x=0,EuZn2Sb2,450,0.000011975,0.0018925,0.00014674,1.9347,0.48496,83507.3068893528,0.0009781878
769,10.1039/b916346h,10694,2(a),12884,x=0,EuZn2Sb2,500,0.000013184,0.0019153,0.00015497,1.7907,0.58583,75849.5145631068,0.0010695817
769,10.1039/b916346h,10694,2(a),12884,x=0,EuZn2Sb2,550,0.000014392,0.0019382,0.00016321,1.6467,0.6867,69483.0461367426,0.0011770207
769,10.1039/b916346h,10694,2(a),12884,x=0,EuZn2Sb2,600,0.0000156,0.001961,0.00017144,1.5026,0.78756,64102.5641025641,0.0013050712
769,10.1039/b916346h,10694,2(a),12884,x=0,EuZn2Sb2,650,0.000016809,0.0019838,0.00017967,1.3586,0.88843,59491.9388422869,0.0014601796
769,10.1039/b916346h,10695,2(b),12884,x=0,EuZn2Sb2,700,,0.0020066,0.0001879,,,,
769,10.1039/b916346h,10694,2(a),12885,x=0.1,EuZn1.8Cd0.2Sb2,350,0.0000094824,0.0018433,0.00013694,2.0695,0.29333,105458.5337045474,0.0008906982
769,10.1039/b916346h,10694,2(a),12885,x=0.1,EuZn1.8Cd0.2Sb2,400,0.000010743,0.0019378,0.00014718,1.9409,0.42181,93083.8685655776,0.0009984028
769,10.1039/b916346h,10694,2(a),12885,x=0.1,EuZn1.8Cd0.2Sb2,450,0.000012004,0.0020323,0.00015742,1.8123,0.5503,83305.5648117294,0.0011213927
769,10.1039/b916346h,10694,2(a),12885,x=0.1,EuZn1.8Cd0.2Sb2,500,0.000013265,0.0021268,0.00016766,1.6838,0.67878,75386.3550697324,0.0012630954
769,10.1039/b916346h,10694,2(a),12885,x=0.1,EuZn1.8Cd0.2Sb2,550,0.000014526,0.0022213,0.0001779,1.5552,0.80727,68842.0762770205,0.001428305
769,10.1039/b916346h,10694,2(a),12885,x=0.1,EuZn1.8Cd0.2Sb2,600,0.000015787,0.0023158,0.00018814,1.4266,0.93575,63343.2571102806,0.0016233002
769,10.1039/b916346h,10694,2(a),12885,x=0.1,EuZn1.8Cd0.2Sb2,650,0.000017048,0.0024103,,1.2981,1.2069,58657.9070858752,0.0018567907
769,10.1039/b916346h,10694,2(a),12886,x=0.3,EuZn1.4Cd0.6Sb2,300,0.000015884,0.0013845,,,,62956.4341475699,
769,10.1039/b916346h,10694,2(a),12886,x=0.3,EuZn1.4Cd0.6Sb2,350,0.000018201,0.001416,0.00016025,1.6566,0.29322,54942.0361518598,0.0008547628
769,10.1039/b916346h,10694,2(a),12886,x=0.3,EuZn1.4Cd0.6Sb2,400,0.000020518,0.0014474,0.00017384,1.5547,0.39255,48737.6937323326,0.0009309835
769,10.1039/b916346h,10694,2(a),12886,x=0.3,EuZn1.4Cd0.6Sb2,450,0.000022835,0.0014788,0.00018576,1.4528,0.49187,43792.4239106635,0.0010178965
769,10.1039/b916346h,10694,2(a),12886,x=0.3,EuZn1.4Cd0.6Sb2,500,0.000025152,0.0015103,0.00019612,1.3509,0.5912,39758.2697201018,0.0011179954
769,10.1039/b916346h,10694,2(a),12886,x=0.3,EuZn1.4Cd0.6Sb2,550,0.000027468,0.0015417,0.00020503,1.249,0.69053,36405.999708752,0.0012343475
769,10.1039/b916346h,10694,2(a),12886,x=0.3,EuZn1.4Cd0.6Sb2,600,0.000029785,0.0015732,0.0002126,1.1471,0.78986,33573.9466174249,0.0013714585
769,10.1039/b916346h,10695,2(b),12886,x=0.3,EuZn1.4Cd0.6Sb2,650,,,0.00021896,,,,
769,10.1039/b916346h,10694,2(a),12887,x=1,EuCd2Sb2,350,0.00010375,0.00062162,0.0002534,1.2121,0.169,9638.5542168675,0.0005128455
769,10.1039/b916346h,10694,2(a),12887,x=1,EuCd2Sb2,400,0.00010783,0.00064377,0.00026248,1.1186,0.24825,9273.8569971251,0.000575514
769,10.1039/b916346h,10694,2(a),12887,x=1,EuCd2Sb2,450,0.00011192,0.00066592,0.00027156,1.025,0.3275,8934.9535382416,0.000649678
769,10.1039/b916346h,10694,2(a),12887,x=1,EuCd2Sb2,500,0.00011601,0.00068808,0.00028064,0.93137,0.40675,8619.9465563314,0.0007387827
769,10.1039/b916346h,10694,2(a),12887,x=1,EuCd2Sb2,550,0.0001201,0.00071023,0.00028972,0.83778,0.486,8326.3946711074,0.0008477524
769,10.1039/b916346h,10694,2(a),12887,x=1,EuCd2Sb2,600,0.00012418,0.00073238,0.0002988,0.74419,0.56525,8052.8265421163,0.0009841304
769,10.1039/b916346h,10694,2(a),12887,x=1,EuCd2Sb2,650,0.00012827,,,,,7796.0551960708,
769,10.1039/b916346h,10695,2(b),12888,x=0.5,EuZnCdSb2,350,,0.0010368,0.00018945,1.4192,0.25094,,0.0007305524
769,10.1039/b916346h,10695,2(b),12888,x=0.5,EuZnCdSb2,400,,0.0010669,0.00020031,1.3299,0.3407,,0.0008022408
769,10.1039/b916346h,10695,2(b),12888,x=0.5,EuZnCdSb2,450,,0.001097,0.00021117,1.2406,0.43046,,0.0008842496
769,10.1039/b916346h,10695,2(b),12888,x=0.5,EuZnCdSb2,500,,0.001127,0.00022203,1.1512,0.52022,,0.0009789785
769,10.1039/b916346h,10695,2(b),12888,x=0.5,EuZnCdSb2,550,,0.0011571,0.00023289,1.0619,0.60998,,0.0010896506
769,10.1039/b916346h,10695,2(b),12888,x=0.5,EuZnCdSb2,600,,0.0011872,0.00024374,0.97261,0.69974,,0.0012206331
769,10.1039/b916346h,10696,2(c),12888,x=0.5,EuZnCdSb2,650,,0.0012173,,,,,