sid,DOI,figureid,fignum,sampleid,samplename,composition,Temperature,Electrical resistivity,Power factor,Seebeck coefficient,Thermal conductivity,ZT,Electrical conductivity,Figure of merit Z
10954,10.1007/s11664-015-4303-6,5134,3(a),6468,x=0.1,Ca0.9Eu0.1Zn2Sb2,616,0.000024425,0.0011591,0.00016809,1.9732,0.36381,40941.6581371546,0.0005874214
10954,10.1007/s11664-015-4303-6,5134,3(a),6468,x=0.1,Ca0.9Eu0.1Zn2Sb2,616.5,0.000024441,0.0011596,0.00016818,1.9712,0.36434,40914.8561842805,0.0005882711
10954,10.1007/s11664-015-4303-6,5134,3(a),6468,x=0.1,Ca0.9Eu0.1Zn2Sb2,617,0.000024456,0.0011602,0.00016827,1.9693,0.36486,40889.7612037946,0.0005891434
10954,10.1007/s11664-015-4303-6,5134,3(a),6468,x=0.1,Ca0.9Eu0.1Zn2Sb2,617.5,0.000024471,0.0011608,0.00016836,1.9673,0.36539,40864.6969882718,0.0005900473
10954,10.1007/s11664-015-4303-6,5134,3(a),6468,x=0.1,Ca0.9Eu0.1Zn2Sb2,618,0.000024486,0.0011614,0.00016845,1.9654,0.36592,40839.6634811729,0.000590923
10954,10.1007/s11664-015-4303-6,5134,3(a),6468,x=0.1,Ca0.9Eu0.1Zn2Sb2,618.5,0.000024501,0.0011619,0.00016855,1.9634,0.36645,40814.6606260969,0.0005917796
10954,10.1007/s11664-015-4303-6,5134,3(a),6468,x=0.1,Ca0.9Eu0.1Zn2Sb2,619,0.000024516,0.0011625,0.00016864,1.9615,0.36697,40789.6883667809,0.0005926587
10954,10.1007/s11664-015-4303-6,5134,3(a),6468,x=0.1,Ca0.9Eu0.1Zn2Sb2,619.5,0.000024531,0.0011631,0.00016873,1.9595,0.3675,40764.7466470996,0.0005935698
10954,10.1007/s11664-015-4303-6,5134,3(a),6468,x=0.1,Ca0.9Eu0.1Zn2Sb2,620,0.000024546,0.0011636,0.00016882,1.9576,0.36803,40739.8354110649,0.0005944013
10954,10.1007/s11664-015-4303-6,5134,3(a),6468,x=0.1,Ca0.9Eu0.1Zn2Sb2,620.5,0.000024562,0.0011642,0.00016891,1.9556,0.36856,40713.296962788,0.000595316
10954,10.1007/s11664-015-4303-6,5134,3(a),6468,x=0.1,Ca0.9Eu0.1Zn2Sb2,621,0.000024577,0.0011648,0.00016901,1.9537,0.36909,40688.4485494568,0.0005962021
10954,10.1007/s11664-015-4303-6,5134,3(a),6468,x=0.1,Ca0.9Eu0.1Zn2Sb2,621.5,0.000024592,0.0011653,0.0001691,1.9517,0.36961,40663.6304489265,0.0005970692
10954,10.1007/s11664-015-4303-6,5134,3(a),6468,x=0.1,Ca0.9Eu0.1Zn2Sb2,622,0.000024607,0.0011659,0.00016919,1.9498,0.37014,40638.8426057626,0.0005979588
10954,10.1007/s11664-015-4303-6,5134,3(a),6468,x=0.1,Ca0.9Eu0.1Zn2Sb2,622.5,0.000024622,0.0011665,0.00016928,1.9478,0.37067,40614.0849646657,0.0005988808
10954,10.1007/s11664-015-4303-6,5134,3(a),6468,x=0.1,Ca0.9Eu0.1Zn2Sb2,623,0.000024637,0.001167,0.00016937,1.9459,0.3712,40589.3574704712,0.0005997225
10954,10.1007/s11664-015-4303-6,5134,3(a),6468,x=0.1,Ca0.9Eu0.1Zn2Sb2,623.5,0.000024652,0.0011676,0.00016947,1.9439,0.37172,40564.6600681486,0.0006006482
10954,10.1007/s11664-015-4303-6,5134,3(a),6468,x=0.1,Ca0.9Eu0.1Zn2Sb2,624,0.000024667,0.0011682,0.00016956,1.942,0.37225,40539.9927028013,0.0006015448
10954,10.1007/s11664-015-4303-6,5134,3(a),6468,x=0.1,Ca0.9Eu0.1Zn2Sb2,624.5,0.000024682,0.0011687,0.00016965,1.94,0.37278,40515.3553196662,0.0006024227
10954,10.1007/s11664-015-4303-6,5134,3(a),6468,x=0.1,Ca0.9Eu0.1Zn2Sb2,625,0.000024698,0.0011693,0.00016974,1.9381,0.37331,40489.1084298324,0.0006033228
10954,10.1007/s11664-015-4303-6,5134,3(a),6468,x=0.1,Ca0.9Eu0.1Zn2Sb2,625.5,0.000024713,0.0011699,0.00016983,1.9361,0.37383,40464.5328369684,0.000604256
10954,10.1007/s11664-015-4303-6,5134,3(a),6468,x=0.1,Ca0.9Eu0.1Zn2Sb2,626,0.000024728,0.0011704,0.00016992,1.9341,0.37436,40439.9870592041,0.0006051393
10954,10.1007/s11664-015-4303-6,5134,3(a),6468,x=0.1,Ca0.9Eu0.1Zn2Sb2,626.5,0.000024743,0.001171,0.00017002,1.9322,0.37489,40415.471042315,0.0006060449
10954,10.1007/s11664-015-4303-6,5134,3(a),6468,x=0.1,Ca0.9Eu0.1Zn2Sb2,627,0.000024758,0.0011716,0.00017011,1.9302,0.37542,40390.9847322078,0.0006069837
10954,10.1007/s11664-015-4303-6,5134,3(a),6468,x=0.1,Ca0.9Eu0.1Zn2Sb2,627.5,0.000024773,0.0011721,0.0001702,1.9283,0.37594,40366.5280749203,0.0006078411
10954,10.1007/s11664-015-4303-6,5134,3(a),6468,x=0.1,Ca0.9Eu0.1Zn2Sb2,628,0.000024788,0.0011727,0.00017029,1.9263,0.37647,40342.1010166209,0.0006087837
10954,10.1007/s11664-015-4303-6,5134,3(a),6468,x=0.1,Ca0.9Eu0.1Zn2Sb2,628.5,0.000024803,0.0011733,0.00017038,1.9244,0.377,40317.7035036084,0.0006096965
10954,10.1007/s11664-015-4303-6,5134,3(a),6468,x=0.1,Ca0.9Eu0.1Zn2Sb2,629,0.000024819,0.0011739,0.00017048,1.9224,0.37753,40291.7119948427,0.0006106429
10954,10.1007/s11664-015-4303-6,5134,3(a),6468,x=0.1,Ca0.9Eu0.1Zn2Sb2,629.5,0.000024834,0.0011744,0.00017057,1.9205,0.37806,40267.3753724732,0.0006115074
10954,10.1007/s11664-015-4303-6,5134,3(a),6468,x=0.1,Ca0.9Eu0.1Zn2Sb2,630,0.000024849,0.001175,0.00017066,1.9185,0.37858,40243.0681315144,0.0006124576
10954,10.1007/s11664-015-4303-6,5134,3(a),6468,x=0.1,Ca0.9Eu0.1Zn2Sb2,630.5,0.000024864,0.0011756,0.00017075,1.9166,0.37911,40218.7902187902,0.0006133779
10954,10.1007/s11664-015-4303-6,5134,3(a),6468,x=0.1,Ca0.9Eu0.1Zn2Sb2,631,0.000024879,0.0011761,0.00017084,1.9146,0.37964,40194.5415812533,0.0006142797
10954,10.1007/s11664-015-4303-6,5134,3(a),6468,x=0.1,Ca0.9Eu0.1Zn2Sb2,631.5,0.000024894,0.0011767,0.00017094,1.9127,0.38017,40170.3221659838,0.0006152036
10954,10.1007/s11664-015-4303-6,5134,3(a),6468,x=0.1,Ca0.9Eu0.1Zn2Sb2,632,0.000024909,0.0011773,0.00017103,1.9107,0.38069,40146.1319201895,0.0006161616
10954,10.1007/s11664-015-4303-6,5134,3(a),6468,x=0.1,Ca0.9Eu0.1Zn2Sb2,632.5,0.000024924,0.0011778,0.00017112,1.9088,0.38122,40121.9707912053,0.0006170369
10954,10.1007/s11664-015-4303-6,5134,3(a),6468,x=0.1,Ca0.9Eu0.1Zn2Sb2,633,0.00002494,0.0011784,0.00017121,1.9068,0.38175,40096.2309542903,0.0006179987
10954,10.1007/s11664-015-4303-6,5134,3(a),6468,x=0.1,Ca0.9Eu0.1Zn2Sb2,633.5,0.000024955,0.001179,0.0001713,1.9049,0.38228,40072.1298337007,0.0006189301
10954,10.1007/s11664-015-4303-6,5134,3(a),6468,x=0.1,Ca0.9Eu0.1Zn2Sb2,634,0.00002497,0.0011795,0.0001714,1.9029,0.3828,40048.057669203,0.0006198434
10954,10.1007/s11664-015-4303-6,5134,3(a),6468,x=0.1,Ca0.9Eu0.1Zn2Sb2,634.5,0.000024985,0.0011801,0.00017149,1.901,0.38333,40024.0144086452,0.0006207785
10954,10.1007/s11664-015-4303-6,5134,3(a),6468,x=0.1,Ca0.9Eu0.1Zn2Sb2,635,0.000025,0.0011807,0.00017158,1.899,0.38386,40000,0.0006217483
10954,10.1007/s11664-015-4303-6,5134,3(a),6468,x=0.1,Ca0.9Eu0.1Zn2Sb2,635.5,0.000025015,0.0011812,0.00017167,1.897,0.38439,39976.0143913652,0.0006226674
10954,10.1007/s11664-015-4303-6,5134,3(a),6468,x=0.1,Ca0.9Eu0.1Zn2Sb2,636,0.00002503,0.0011818,0.00017176,1.8951,0.38491,39952.0575309628,0.0006236083
10954,10.1007/s11664-015-4303-6,5134,3(a),6468,x=0.1,Ca0.9Eu0.1Zn2Sb2,636.5,0.000025045,0.0011824,0.00017185,1.8931,0.38544,39928.1293671391,0.000624584
10954,10.1007/s11664-015-4303-6,5134,3(a),6468,x=0.1,Ca0.9Eu0.1Zn2Sb2,637,0.00002506,0.0011829,0.00017195,1.8912,0.38597,39904.2298483639,0.0006254759
10954,10.1007/s11664-015-4303-6,5134,3(a),6468,x=0.1,Ca0.9Eu0.1Zn2Sb2,637.5,0.000025076,0.0011835,0.00017204,1.8892,0.3865,39878.7685436274,0.0006264556
10954,10.1007/s11664-015-4303-6,5134,3(a),6468,x=0.1,Ca0.9Eu0.1Zn2Sb2,638,0.000025091,0.0011841,0.00017213,1.8873,0.38703,39854.9280618548,0.0006274042
10954,10.1007/s11664-015-4303-6,5134,3(a),6468,x=0.1,Ca0.9Eu0.1Zn2Sb2,638.5,0.000025106,0.0011846,0.00017222,1.8853,0.38755,39831.1160678722,0.000628335
10954,10.1007/s11664-015-4303-6,5134,3(a),6468,x=0.1,Ca0.9Eu0.1Zn2Sb2,639,0.000025121,0.0011852,0.00017231,1.8834,0.38808,39807.3325106485,0.0006292875
10954,10.1007/s11664-015-4303-6,5134,3(a),6468,x=0.1,Ca0.9Eu0.1Zn2Sb2,639.5,0.000025136,0.0011858,0.00017241,1.8814,0.38861,39783.5773392743,0.0006302753
10954,10.1007/s11664-015-4303-6,5134,3(a),6468,x=0.1,Ca0.9Eu0.1Zn2Sb2,640,0.000025151,0.0011863,0.0001725,1.8795,0.38914,39759.8505029621,0.0006311785
10954,10.1007/s11664-015-4303-6,5134,3(a),6468,x=0.1,Ca0.9Eu0.1Zn2Sb2,640.5,0.000025166,0.0011869,0.00017259,1.8775,0.38966,39736.1519510451,0.0006321704
10954,10.1007/s11664-015-4303-6,5134,3(a),6468,x=0.1,Ca0.9Eu0.1Zn2Sb2,641,0.000025181,0.0011875,0.00017268,1.8756,0.39019,39712.4816329772,0.0006331307
10954,10.1007/s11664-015-4303-6,5134,3(a),6468,x=0.1,Ca0.9Eu0.1Zn2Sb2,641.5,0.000025197,0.0011881,0.00017277,1.8736,0.39072,39687.2643568679,0.0006341268
10954,10.1007/s11664-015-4303-6,5134,3(a),6468,x=0.1,Ca0.9Eu0.1Zn2Sb2,642,0.000025212,0.0011886,0.00017287,1.8717,0.39125,39663.6522290973,0.0006350377
10954,10.1007/s11664-015-4303-6,5134,3(a),6468,x=0.1,Ca0.9Eu0.1Zn2Sb2,642.5,0.000025227,0.0011892,0.00017296,1.8697,0.39177,39640.0681809173,0.0006360379
10954,10.1007/s11664-015-4303-6,5134,3(a),6468,x=0.1,Ca0.9Eu0.1Zn2Sb2,643,0.000025242,0.0011898,0.00017305,1.8678,0.3923,39616.5121622692,0.0006370061
10954,10.1007/s11664-015-4303-6,5134,3(a),6468,x=0.1,Ca0.9Eu0.1Zn2Sb2,643.5,0.000025257,0.0011903,0.00017314,1.8658,0.39283,39592.9841232134,0.0006379569
10954,10.1007/s11664-015-4303-6,5134,3(a),6468,x=0.1,Ca0.9Eu0.1Zn2Sb2,644,0.000025272,0.0011909,0.00017323,1.8639,0.39336,39569.4840139285,0.0006389291
10954,10.1007/s11664-015-4303-6,5134,3(a),6468,x=0.1,Ca0.9Eu0.1Zn2Sb2,644.5,0.000025287,0.0011915,0.00017333,1.8619,0.39388,39546.0117847115,0.0006399377
10954,10.1007/s11664-015-4303-6,5134,3(a),6468,x=0.1,Ca0.9Eu0.1Zn2Sb2,645,0.000025302,0.001192,0.00017342,1.86,0.39441,39522.5673859774,0.0006408602
10954,10.1007/s11664-015-4303-6,5134,3(a),6468,x=0.1,Ca0.9Eu0.1Zn2Sb2,645.5,0.000025317,0.0011926,0.00017351,1.858,0.39494,39499.1507682585,0.000641873
10954,10.1007/s11664-015-4303-6,5134,3(a),6468,x=0.1,Ca0.9Eu0.1Zn2Sb2,646,0.000025333,0.0011932,0.0001736,1.856,0.39547,39474.2036079422,0.0006428879
10954,10.1007/s11664-015-4303-6,5134,3(a),6468,x=0.1,Ca0.9Eu0.1Zn2Sb2,646.5,0.000025348,0.0011937,0.00017369,1.8541,0.396,39450.8442480669,0.0006438164
10954,10.1007/s11664-015-4303-6,5134,3(a),6468,x=0.1,Ca0.9Eu0.1Zn2Sb2,647,0.000025363,0.0011943,0.00017378,1.8521,0.39652,39427.5125182352,0.0006448356
10954,10.1007/s11664-015-4303-6,5134,3(a),6468,x=0.1,Ca0.9Eu0.1Zn2Sb2,647.5,0.000025378,0.0011949,0.00017388,1.8502,0.39705,39404.2083694539,0.0006458221
10954,10.1007/s11664-015-4303-6,5134,3(a),6468,x=0.1,Ca0.9Eu0.1Zn2Sb2,648,0.000025393,0.0011954,0.00017397,1.8482,0.39758,39380.9317528453,0.0006467915
10954,10.1007/s11664-015-4303-6,5134,3(a),6468,x=0.1,Ca0.9Eu0.1Zn2Sb2,648.5,0.000025408,0.001196,0.00017406,1.8463,0.39811,39357.6826196474,0.0006477821
10954,10.1007/s11664-015-4303-6,5134,3(a),6468,x=0.1,Ca0.9Eu0.1Zn2Sb2,649,0.000025423,0.0011966,0.00017415,1.8443,0.39863,39334.4609212131,0.0006488098
10954,10.1007/s11664-015-4303-6,5134,3(a),6468,x=0.1,Ca0.9Eu0.1Zn2Sb2,649.5,0.000025438,0.0011971,0.00017424,1.8424,0.39916,39311.2666090101,0.0006497503
10954,10.1007/s11664-015-4303-6,5134,3(a),6468,x=0.1,Ca0.9Eu0.1Zn2Sb2,650,0.000025454,0.0011977,0.00017434,1.8404,0.39969,39286.5561404887,0.0006507824
10954,10.1007/s11664-015-4303-6,5134,3(a),6468,x=0.1,Ca0.9Eu0.1Zn2Sb2,650.5,0.000025469,0.0011983,0.00017443,1.8385,0.40022,39263.4182731949,0.0006517813
10954,10.1007/s11664-015-4303-6,5134,3(a),6468,x=0.1,Ca0.9Eu0.1Zn2Sb2,651,0.000025484,0.0011988,0.00017452,1.8365,0.40074,39240.3076440119,0.0006527634
10954,10.1007/s11664-015-4303-6,5134,3(a),6468,x=0.1,Ca0.9Eu0.1Zn2Sb2,651.5,0.000025499,0.0011994,0.00017461,1.8346,0.40127,39217.2242048708,0.0006537665
10954,10.1007/s11664-015-4303-6,5134,3(a),6468,x=0.1,Ca0.9Eu0.1Zn2Sb2,652,0.000025514,0.0012,0.0001747,1.8326,0.4018,39194.1679078153,0.0006548074
10954,10.1007/s11664-015-4303-6,5134,3(a),6468,x=0.1,Ca0.9Eu0.1Zn2Sb2,652.5,0.000025529,0.0012005,0.0001748,1.8307,0.40233,39171.1387050022,0.0006557601
10954,10.1007/s11664-015-4303-6,5134,3(a),6468,x=0.1,Ca0.9Eu0.1Zn2Sb2,653,0.000025544,0.0012011,0.00017489,1.8287,0.40286,39148.1365487003,0.0006568054
10954,10.1007/s11664-015-4303-6,5134,3(a),6468,x=0.1,Ca0.9Eu0.1Zn2Sb2,653.5,0.000025559,0.0012017,0.00017498,1.8268,0.40338,39125.1613912907,0.0006578169
10954,10.1007/s11664-015-4303-6,5134,3(a),6468,x=0.1,Ca0.9Eu0.1Zn2Sb2,654,0.000025574,0.0012023,0.00017507,1.8248,0.40391,39102.2131852663,0.0006588667
10954,10.1007/s11664-015-4303-6,5134,3(a),6468,x=0.1,Ca0.9Eu0.1Zn2Sb2,654.5,0.00002559,0.0012028,0.00017516,1.8229,0.40444,39077.7647518562,0.0006598277
10954,10.1007/s11664-015-4303-6,5134,3(a),6468,x=0.1,Ca0.9Eu0.1Zn2Sb2,655,0.000025605,0.0012034,0.00017526,1.8209,0.40497,39054.8720952939,0.000660882
10954,10.1007/s11664-015-4303-6,5134,3(a),6468,x=0.1,Ca0.9Eu0.1Zn2Sb2,655.5,0.00002562,0.001204,0.00017535,1.819,0.40549,39032.006245121,0.0006619021
10954,10.1007/s11664-015-4303-6,5134,3(a),6468,x=0.1,Ca0.9Eu0.1Zn2Sb2,656,0.000025635,0.0012045,0.00017544,1.817,0.40602,39009.1671542813,0.0006629059
10954,10.1007/s11664-015-4303-6,5134,3(a),6468,x=0.1,Ca0.9Eu0.1Zn2Sb2,656.5,0.00002565,0.0012051,0.00017553,1.815,0.40655,38986.3547758285,0.0006639669
10954,10.1007/s11664-015-4303-6,5134,3(a),6468,x=0.1,Ca0.9Eu0.1Zn2Sb2,657,0.000025665,0.0012057,0.00017562,1.8131,0.40708,38963.5690629262,0.0006649937
10954,10.1007/s11664-015-4303-6,5134,3(a),6468,x=0.1,Ca0.9Eu0.1Zn2Sb2,657.5,0.00002568,0.0012062,0.00017571,1.8111,0.4076,38940.8099688474,0.0006660041
10954,10.1007/s11664-015-4303-6,5134,3(a),6468,x=0.1,Ca0.9Eu0.1Zn2Sb2,658,0.000025695,0.0012068,0.00017581,1.8092,0.40813,38918.0774469741,0.0006670352
10954,10.1007/s11664-015-4303-6,5134,3(a),6468,x=0.1,Ca0.9Eu0.1Zn2Sb2,658.5,0.000025711,0.0012074,0.0001759,1.8072,0.40866,38893.8586597176,0.0006681054
10954,10.1007/s11664-015-4303-6,5134,3(a),6468,x=0.1,Ca0.9Eu0.1Zn2Sb2,659,0.000025726,0.0012079,0.00017599,1.8053,0.40919,38871.1809064759,0.0006690855
10954,10.1007/s11664-015-4303-6,5134,3(a),6468,x=0.1,Ca0.9Eu0.1Zn2Sb2,659.5,0.000025741,0.0012085,0.00017608,1.8033,0.40971,38848.5295831553,0.0006701603
10954,10.1007/s11664-015-4303-6,5134,3(a),6468,x=0.1,Ca0.9Eu0.1Zn2Sb2,660,0.000025756,0.0012091,0.00017617,1.8014,0.41024,38825.9046435782,0.0006712002
10954,10.1007/s11664-015-4303-6,5134,3(a),6468,x=0.1,Ca0.9Eu0.1Zn2Sb2,660.5,0.000025771,0.0012096,0.00017627,1.7994,0.41077,38803.3060416747,0.0006722241
10954,10.1007/s11664-015-4303-6,5134,3(a),6468,x=0.1,Ca0.9Eu0.1Zn2Sb2,661,0.000025786,0.0012102,0.00017636,1.7975,0.4113,38780.7337314822,0.0006732684
10954,10.1007/s11664-015-4303-6,5134,3(a),6468,x=0.1,Ca0.9Eu0.1Zn2Sb2,661.5,0.000025801,0.0012108,0.00017645,1.7955,0.41183,38758.1876671447,0.0006743525
10954,10.1007/s11664-015-4303-6,5134,3(a),6468,x=0.1,Ca0.9Eu0.1Zn2Sb2,662,0.000025816,0.0012113,0.00017654,1.7936,0.41235,38735.6678029129,0.0006753457
10954,10.1007/s11664-015-4303-6,5134,3(a),6468,x=0.1,Ca0.9Eu0.1Zn2Sb2,662.5,0.000025832,0.0012119,0.00017663,1.7916,0.41288,38711.6754413131,0.0006764345
10954,10.1007/s11664-015-4303-6,5134,3(a),6468,x=0.1,Ca0.9Eu0.1Zn2Sb2,663,0.000025847,0.0012125,0.00017673,1.7897,0.41341,38689.2095794483,0.0006774878
10954,10.1007/s11664-015-4303-6,5134,3(a),6468,x=0.1,Ca0.9Eu0.1Zn2Sb2,663.5,0.000025862,0.001213,0.00017682,1.7877,0.41394,38666.7697780527,0.0006785255
10954,10.1007/s11664-015-4303-6,5134,3(a),6468,x=0.1,Ca0.9Eu0.1Zn2Sb2,664,0.000025877,0.0012136,0.00017691,1.7858,0.41446,38644.3559918074,0.0006795834
10954,10.1007/s11664-015-4303-6,5134,3(a),6468,x=0.1,Ca0.9Eu0.1Zn2Sb2,664.5,0.000025892,0.0012142,0.000177,1.7838,0.41499,38621.9681754982,0.0006806817
10954,10.1007/s11664-015-4303-6,5134,3(a),6468,x=0.1,Ca0.9Eu0.1Zn2Sb2,665,0.000025907,0.0012147,0.00017709,1.7819,0.41552,38599.6062840159,0.0006816881
10954,10.1007/s11664-015-4303-6,5134,3(a),6468,x=0.1,Ca0.9Eu0.1Zn2Sb2,665.5,0.000025922,0.0012153,0.00017719,1.7799,0.41605,38577.2702723555,0.0006827912
10954,10.1007/s11664-015-4303-6,5134,3(a),6468,x=0.1,Ca0.9Eu0.1Zn2Sb2,666,0.000025937,0.0012159,0.00017728,1.7779,0.41657,38554.9600956163,0.0006838967
10954,10.1007/s11664-015-4303-6,5134,3(a),6468,x=0.1,Ca0.9Eu0.1Zn2Sb2,666.5,0.000025952,0.0012165,0.00017737,1.776,0.4171,38532.6757090012,0.0006849662
10954,10.1007/s11664-015-4303-6,5134,3(a),6468,x=0.1,Ca0.9Eu0.1Zn2Sb2,667,0.000025968,0.001217,0.00017746,1.774,0.41763,38508.9340727049,0.0006860203
10954,10.1007/s11664-015-4303-6,5134,3(a),6468,x=0.1,Ca0.9Eu0.1Zn2Sb2,667.5,0.000025983,0.0012176,0.00017755,1.7721,0.41816,38486.7028441673,0.0006870944
10954,10.1007/s11664-015-4303-6,5134,3(a),6468,x=0.1,Ca0.9Eu0.1Zn2Sb2,668,0.000025998,0.0012182,0.00017764,1.7701,0.41868,38464.4972690207,0.0006882097
10954,10.1007/s11664-015-4303-6,5134,3(a),6468,x=0.1,Ca0.9Eu0.1Zn2Sb2,668.5,0.000026013,0.0012187,0.00017774,1.7682,0.41921,38442.317302887,0.000689232
10954,10.1007/s11664-015-4303-6,5134,3(a),6468,x=0.1,Ca0.9Eu0.1Zn2Sb2,669,0.000026028,0.0012193,0.00017783,1.7662,0.41974,38420.1629014907,0.0006903522
10954,10.1007/s11664-015-4303-6,5134,3(a),6468,x=0.1,Ca0.9Eu0.1Zn2Sb2,669.5,0.000026043,0.0012199,0.00017792,1.7643,0.42027,38398.0340206581,0.0006914357
10954,10.1007/s11664-015-4303-6,5134,3(a),6468,x=0.1,Ca0.9Eu0.1Zn2Sb2,670,0.000026058,0.0012204,0.00017801,1.7623,0.4208,38375.9306163174,0.0006925041
10954,10.1007/s11664-015-4303-6,5134,3(a),6468,x=0.1,Ca0.9Eu0.1Zn2Sb2,670.5,0.000026073,0.001221,0.0001781,1.7604,0.42132,38353.8526444981,0.0006935924
10954,10.1007/s11664-015-4303-6,5134,3(a),6468,x=0.1,Ca0.9Eu0.1Zn2Sb2,671,0.000026089,0.0012216,0.0001782,1.7584,0.42185,38330.3307907547,0.0006947225
10954,10.1007/s11664-015-4303-6,5134,3(a),6468,x=0.1,Ca0.9Eu0.1Zn2Sb2,671.5,0.000026104,0.0012221,0.00017829,1.7565,0.42238,38308.3052405762,0.0006957586
10954,10.1007/s11664-015-4303-6,5134,3(a),6468,x=0.1,Ca0.9Eu0.1Zn2Sb2,672,0.000026119,0.0012227,0.00017838,1.7545,0.42291,38286.3049887055,0.0006968937
10954,10.1007/s11664-015-4303-6,5134,3(a),6468,x=0.1,Ca0.9Eu0.1Zn2Sb2,672.5,0.000026134,0.0012233,0.00017847,1.7526,0.42343,38264.3299915818,0.0006979916
10954,10.1007/s11664-015-4303-6,5134,3(a),6468,x=0.1,Ca0.9Eu0.1Zn2Sb2,673,0.000026149,0.0012238,0.00017856,1.7506,0.42396,38242.380205744,0.0006990746
10954,10.1007/s11664-015-4303-6,5134,3(a),6468,x=0.1,Ca0.9Eu0.1Zn2Sb2,673.5,0.000026164,0.0012244,0.00017866,1.7487,0.42449,38220.4555878306,0.0007001773
10954,10.1007/s11664-015-4303-6,5134,3(a),6468,x=0.1,Ca0.9Eu0.1Zn2Sb2,674,0.000026179,0.001225,0.00017875,1.7467,0.42502,38198.5560945796,0.0007013225
10954,10.1007/s11664-015-4303-6,5134,3(a),6468,x=0.1,Ca0.9Eu0.1Zn2Sb2,674.5,0.000026194,0.0012255,0.00017884,1.7448,0.42554,38176.6816828281,0.0007023728
10954,10.1007/s11664-015-4303-6,5134,3(a),6468,x=0.1,Ca0.9Eu0.1Zn2Sb2,675,0.000026209,0.0012261,0.00017893,1.7428,0.42607,38154.832309512,0.0007035231
10954,10.1007/s11664-015-4303-6,5134,3(a),6468,x=0.1,Ca0.9Eu0.1Zn2Sb2,675.5,0.000026225,0.0012267,0.00017902,1.7409,0.4266,38131.5538608198,0.0007046355
10954,10.1007/s11664-015-4303-6,5134,3(a),6468,x=0.1,Ca0.9Eu0.1Zn2Sb2,676,0.00002624,0.0012272,0.00017912,1.7389,0.42713,38109.756097561,0.0007057335
10954,10.1007/s11664-015-4303-6,5134,3(a),6468,x=0.1,Ca0.9Eu0.1Zn2Sb2,676.5,0.000026255,0.0012278,0.00017921,1.7369,0.42765,38087.9832412874,0.0007068916
10954,10.1007/s11664-015-4303-6,5134,3(a),6468,x=0.1,Ca0.9Eu0.1Zn2Sb2,677,0.00002627,0.0012284,0.0001793,1.735,0.42818,38066.2352493338,0.0007080115
10954,10.1007/s11664-015-4303-6,5134,3(a),6468,x=0.1,Ca0.9Eu0.1Zn2Sb2,677.5,0.000026285,0.001229,0.00017939,1.733,0.42871,38044.5120791326,0.0007091748
10954,10.1007/s11664-015-4303-6,5134,3(a),6468,x=0.1,Ca0.9Eu0.1Zn2Sb2,678,0.0000263,0.0012295,0.00017948,1.7311,0.42924,38022.8136882129,0.000710242
10954,10.1007/s11664-015-4303-6,5134,3(a),6468,x=0.1,Ca0.9Eu0.1Zn2Sb2,678.5,0.000026315,0.0012301,0.00017957,1.7291,0.42977,38001.140034201,0.0007114106
10954,10.1007/s11664-015-4303-6,5134,3(a),6468,x=0.1,Ca0.9Eu0.1Zn2Sb2,679,0.00002633,0.0012307,0.00017967,1.7272,0.43029,37979.4910748196,0.0007125405
10954,10.1007/s11664-015-4303-6,5134,3(a),6468,x=0.1,Ca0.9Eu0.1Zn2Sb2,679.5,0.000026346,0.0012312,0.00017976,1.7252,0.43082,37956.4260229257,0.0007136564
10954,10.1007/s11664-015-4303-6,5134,3(a),6468,x=0.1,Ca0.9Eu0.1Zn2Sb2,680,0.000026361,0.0012318,0.00017985,1.7233,0.43135,37934.8279655552,0.0007147914
10954,10.1007/s11664-015-4303-6,5134,3(a),6468,x=0.1,Ca0.9Eu0.1Zn2Sb2,680.5,0.000026376,0.0012324,0.00017994,1.7213,0.43188,37913.254473764,0.0007159705