sid,DOI,figureid,fignum,sampleid,samplename,composition,Temperature,Electrical resistivity,Power factor,Seebeck coefficient,Thermal conductivity,ZT,Electrical conductivity,Figure of merit Z
73,10.1016/j.actamat.2015.04.023,4591,3(a),5859,x=0.0125,Mg2.9875Na0.0125Sb2,595.5,0.000043178,0.00058484,0.00015321,1.1795,0.36878,23159.9425633424,0.0004958372
73,10.1016/j.actamat.2015.04.023,4591,3(a),5859,x=0.0125,Mg2.9875Na0.0125Sb2,596,0.000043184,0.00058545,0.00015332,1.1786,0.3694,23156.7247128566,0.0004967334
73,10.1016/j.actamat.2015.04.023,4591,3(a),5859,x=0.0125,Mg2.9875Na0.0125Sb2,596.5,0.000043191,0.00058605,0.00015344,1.1777,0.37003,23152.9716839156,0.0004976225
73,10.1016/j.actamat.2015.04.023,4591,3(a),5859,x=0.0125,Mg2.9875Na0.0125Sb2,597,0.000043198,0.00058666,0.00015355,1.1768,0.37065,23149.2198712903,0.0004985214
73,10.1016/j.actamat.2015.04.023,4591,3(a),5859,x=0.0125,Mg2.9875Na0.0125Sb2,597.5,0.000043204,0.00058727,0.00015366,1.1759,0.37127,23146.0049995371,0.0004994217
73,10.1016/j.actamat.2015.04.023,4591,3(a),5859,x=0.0125,Mg2.9875Na0.0125Sb2,598,0.000043211,0.00058788,0.00015377,1.175,0.37189,23142.2554442156,0.0005003234
73,10.1016/j.actamat.2015.04.023,4591,3(a),5859,x=0.0125,Mg2.9875Na0.0125Sb2,598.5,0.000043217,0.00058848,0.00015388,1.174,0.37252,23139.0425064211,0.0005012606
73,10.1016/j.actamat.2015.04.023,4591,3(a),5859,x=0.0125,Mg2.9875Na0.0125Sb2,599,0.000043224,0.00058909,0.00015399,1.1731,0.37314,23135.2952063668,0.0005021652
73,10.1016/j.actamat.2015.04.023,4591,3(a),5859,x=0.0125,Mg2.9875Na0.0125Sb2,599.5,0.000043231,0.0005897,0.0001541,1.1722,0.37376,23131.5491198446,0.0005030711
73,10.1016/j.actamat.2015.04.023,4591,3(a),5859,x=0.0125,Mg2.9875Na0.0125Sb2,600,0.000043237,0.00059031,0.00015421,1.1713,0.37438,23128.3391539654,0.0005039785
73,10.1016/j.actamat.2015.04.023,4591,3(a),5859,x=0.0125,Mg2.9875Na0.0125Sb2,600.5,0.000043244,0.00059091,0.00015433,1.1704,0.375,23124.5953195819,0.0005048787
73,10.1016/j.actamat.2015.04.023,4591,3(a),5859,x=0.0125,Mg2.9875Na0.0125Sb2,601,0.00004325,0.00059152,0.00015444,1.1695,0.37563,23121.387283237,0.0005057888
73,10.1016/j.actamat.2015.04.023,4591,3(a),5859,x=0.0125,Mg2.9875Na0.0125Sb2,601.5,0.000043257,0.00059213,0.00015455,1.1686,0.37625,23117.645698962,0.0005067003
73,10.1016/j.actamat.2015.04.023,4591,3(a),5859,x=0.0125,Mg2.9875Na0.0125Sb2,602,0.000043264,0.00059274,0.00015466,1.1677,0.37687,23113.9053254438,0.0005076133
73,10.1016/j.actamat.2015.04.023,4591,3(a),5859,x=0.0125,Mg2.9875Na0.0125Sb2,602.5,0.00004327,0.00059334,0.00015477,1.1668,0.37749,23110.7002542177,0.000508519
73,10.1016/j.actamat.2015.04.023,4591,3(a),5859,x=0.0125,Mg2.9875Na0.0125Sb2,603,0.000043277,0.00059395,0.00015488,1.1659,0.37812,23106.9621276891,0.0005094348
73,10.1016/j.actamat.2015.04.023,4591,3(a),5859,x=0.0125,Mg2.9875Na0.0125Sb2,603.5,0.000043283,0.00059456,0.00015499,1.165,0.37874,23103.7589815863,0.0005103519
73,10.1016/j.actamat.2015.04.023,4591,3(a),5859,x=0.0125,Mg2.9875Na0.0125Sb2,604,0.00004329,0.00059517,0.0001551,1.1641,0.37936,23100.0231000231,0.0005112705
73,10.1016/j.actamat.2015.04.023,4591,3(a),5859,x=0.0125,Mg2.9875Na0.0125Sb2,604.5,0.000043297,0.00059577,0.00015521,1.1632,0.37998,23096.2884264499,0.0005121819
73,10.1016/j.actamat.2015.04.023,4591,3(a),5859,x=0.0125,Mg2.9875Na0.0125Sb2,605,0.000043303,0.00059638,0.00015533,1.1623,0.38061,23093.0882386902,0.0005131033
73,10.1016/j.actamat.2015.04.023,4591,3(a),5859,x=0.0125,Mg2.9875Na0.0125Sb2,605.5,0.00004331,0.00059699,0.00015544,1.1613,0.38123,23089.355806973,0.0005140704
73,10.1016/j.actamat.2015.04.023,4591,3(a),5859,x=0.0125,Mg2.9875Na0.0125Sb2,606,0.000043317,0.0005976,0.00015555,1.1604,0.38185,23085.6245815731,0.0005149948
73,10.1016/j.actamat.2015.04.023,4591,3(a),5859,x=0.0125,Mg2.9875Na0.0125Sb2,606.5,0.000043323,0.0005982,0.00015566,1.1595,0.38247,23082.4273480599,0.000515912
73,10.1016/j.actamat.2015.04.023,4591,3(a),5859,x=0.0125,Mg2.9875Na0.0125Sb2,607,0.00004333,0.00059881,0.00015577,1.1586,0.38309,23078.6983614124,0.0005168393
73,10.1016/j.actamat.2015.04.023,4591,3(a),5859,x=0.0125,Mg2.9875Na0.0125Sb2,607.5,0.000043336,0.00059942,0.00015588,1.1577,0.38372,23075.5030459664,0.000517768
73,10.1016/j.actamat.2015.04.023,4591,3(a),5859,x=0.0125,Mg2.9875Na0.0125Sb2,608,0.000043343,0.00060003,0.00015599,1.1568,0.38434,23071.776296057,0.0005186981
73,10.1016/j.actamat.2015.04.023,4591,3(a),5859,x=0.0125,Mg2.9875Na0.0125Sb2,608.5,0.00004335,0.00060064,0.0001561,1.1559,0.38496,23068.0507497116,0.0005196297
73,10.1016/j.actamat.2015.04.023,4591,3(a),5859,x=0.0125,Mg2.9875Na0.0125Sb2,609,0.000043356,0.00060124,0.00015622,1.155,0.38558,23064.8583817695,0.0005205541
73,10.1016/j.actamat.2015.04.023,4591,3(a),5859,x=0.0125,Mg2.9875Na0.0125Sb2,609.5,0.000043363,0.00060185,0.00015633,1.1541,0.38621,23061.1350690681,0.0005214886
73,10.1016/j.actamat.2015.04.023,4591,3(a),5859,x=0.0125,Mg2.9875Na0.0125Sb2,610,0.000043369,0.00060246,0.00015644,1.1532,0.38683,23057.944614817,0.0005224246
73,10.1016/j.actamat.2015.04.023,4591,3(a),5859,x=0.0125,Mg2.9875Na0.0125Sb2,610.5,0.000043376,0.00060307,0.00015655,1.1523,0.38745,23054.2235337514,0.000523362
73,10.1016/j.actamat.2015.04.023,4591,3(a),5859,x=0.0125,Mg2.9875Na0.0125Sb2,611,0.000043383,0.00060367,0.00015666,1.1514,0.38807,23050.5036535048,0.0005242922
73,10.1016/j.actamat.2015.04.023,4591,3(a),5859,x=0.0125,Mg2.9875Na0.0125Sb2,611.5,0.000043389,0.00060428,0.00015677,1.1505,0.3887,23047.3161400355,0.0005252325
73,10.1016/j.actamat.2015.04.023,4591,3(a),5859,x=0.0125,Mg2.9875Na0.0125Sb2,612,0.000043396,0.00060489,0.00015688,1.1496,0.38932,23043.5984883399,0.0005261743
73,10.1016/j.actamat.2015.04.023,4591,3(a),5859,x=0.0125,Mg2.9875Na0.0125Sb2,612.5,0.000043402,0.0006055,0.00015699,1.1486,0.38994,23040.4128841989,0.0005271635
73,10.1016/j.actamat.2015.04.023,4591,3(a),5859,x=0.0125,Mg2.9875Na0.0125Sb2,613,0.000043409,0.0006061,0.00015711,1.1477,0.39056,23036.6974590523,0.0005280997
73,10.1016/j.actamat.2015.04.023,4591,3(a),5859,x=0.0125,Mg2.9875Na0.0125Sb2,613.5,0.000043416,0.00060671,0.00015722,1.1468,0.39119,23032.9832319882,0.000529046
73,10.1016/j.actamat.2015.04.023,4591,3(a),5859,x=0.0125,Mg2.9875Na0.0125Sb2,614,0.000043422,0.00060732,0.00015733,1.1459,0.39181,23029.8005619271,0.0005299939
73,10.1016/j.actamat.2015.04.023,4591,3(a),5859,x=0.0125,Mg2.9875Na0.0125Sb2,614.5,0.000043429,0.00060793,0.00015744,1.145,0.39243,23026.0885583366,0.0005309432
73,10.1016/j.actamat.2015.04.023,4591,3(a),5859,x=0.0125,Mg2.9875Na0.0125Sb2,615,0.000043435,0.00060853,0.00015755,1.1441,0.39305,23022.9077932543,0.0005318853
73,10.1016/j.actamat.2015.04.023,4591,3(a),5859,x=0.0125,Mg2.9875Na0.0125Sb2,615.5,0.000043442,0.00060914,0.00015766,1.1432,0.39367,23019.1980111413,0.0005328376
73,10.1016/j.actamat.2015.04.023,4591,3(a),5859,x=0.0125,Mg2.9875Na0.0125Sb2,616,0.000043449,0.00060975,0.00015777,1.1423,0.3943,23015.4894243826,0.0005337915
73,10.1016/j.actamat.2015.04.023,4591,3(a),5859,x=0.0125,Mg2.9875Na0.0125Sb2,616.5,0.000043455,0.00061036,0.00015788,1.1414,0.39492,23012.3115866989,0.0005347468
73,10.1016/j.actamat.2015.04.023,4591,3(a),5859,x=0.0125,Mg2.9875Na0.0125Sb2,617,0.000043462,0.00061096,0.00015799,1.1405,0.39554,23008.6052183517,0.0005356949
73,10.1016/j.actamat.2015.04.023,4591,3(a),5859,x=0.0125,Mg2.9875Na0.0125Sb2,617.5,0.000043468,0.00061157,0.00015811,1.1396,0.39616,23005.4292813104,0.0005366532
73,10.1016/j.actamat.2015.04.023,4591,3(a),5859,x=0.0125,Mg2.9875Na0.0125Sb2,618,0.000043475,0.00061218,0.00015822,1.1387,0.39679,23001.7251293847,0.0005376131
73,10.1016/j.actamat.2015.04.023,4591,3(a),5859,x=0.0125,Mg2.9875Na0.0125Sb2,618.5,0.000043482,0.00061279,0.00015833,1.1378,0.39741,22998.0221700934,0.0005385744
73,10.1016/j.actamat.2015.04.023,4591,3(a),5859,x=0.0125,Mg2.9875Na0.0125Sb2,619,0.000043488,0.00061339,0.00015844,1.1368,0.39803,22994.8491537895,0.000539576
73,10.1016/j.actamat.2015.04.023,4591,3(a),5859,x=0.0125,Mg2.9875Na0.0125Sb2,619.5,0.000043495,0.000614,0.00015855,1.1359,0.39865,22991.148407863,0.0005405405
73,10.1016/j.actamat.2015.04.023,4591,3(a),5859,x=0.0125,Mg2.9875Na0.0125Sb2,620,0.000043501,0.00061461,0.00015866,1.135,0.39928,22987.9772878784,0.0005415066
73,10.1016/j.actamat.2015.04.023,4591,3(a),5859,x=0.0125,Mg2.9875Na0.0125Sb2,620.5,0.000043508,0.00061522,0.00015877,1.1341,0.3999,22984.2787533327,0.0005424742
73,10.1016/j.actamat.2015.04.023,4591,3(a),5859,x=0.0125,Mg2.9875Na0.0125Sb2,621,0.000043515,0.00061582,0.00015888,1.1332,0.40052,22980.5814087096,0.0005434345
73,10.1016/j.actamat.2015.04.023,4591,3(a),5859,x=0.0125,Mg2.9875Na0.0125Sb2,621.5,0.000043521,0.00061643,0.000159,1.1323,0.40114,22977.4132028216,0.0005444052
73,10.1016/j.actamat.2015.04.023,4591,3(a),5859,x=0.0125,Mg2.9875Na0.0125Sb2,622,0.000043528,0.00061704,0.00015911,1.1314,0.40177,22973.7180665319,0.0005453774
73,10.1016/j.actamat.2015.04.023,4591,3(a),5859,x=0.0125,Mg2.9875Na0.0125Sb2,622.5,0.000043535,0.00061765,0.00015922,1.1305,0.40239,22970.0241185253,0.0005463512
73,10.1016/j.actamat.2015.04.023,4591,3(a),5859,x=0.0125,Mg2.9875Na0.0125Sb2,623,0.000043541,0.00061825,0.00015933,1.1296,0.40301,22966.8588227188,0.0005473176
73,10.1016/j.actamat.2015.04.023,4591,3(a),5859,x=0.0125,Mg2.9875Na0.0125Sb2,623.5,0.000043548,0.00061886,0.00015944,1.1287,0.40363,22963.1670800037,0.0005482945
73,10.1016/j.actamat.2015.04.023,4591,3(a),5859,x=0.0125,Mg2.9875Na0.0125Sb2,624,0.000043554,0.00061947,0.00015955,1.1278,0.40425,22960.0036736006,0.0005492729
73,10.1016/j.actamat.2015.04.023,4591,3(a),5859,x=0.0125,Mg2.9875Na0.0125Sb2,624.5,0.000043561,0.00062008,0.00015966,1.1269,0.40488,22956.3141342026,0.0005502529
73,10.1016/j.actamat.2015.04.023,4591,3(a),5859,x=0.0125,Mg2.9875Na0.0125Sb2,625,0.000043568,0.00062068,0.00015977,1.126,0.4055,22952.6257803893,0.0005512256
73,10.1016/j.actamat.2015.04.023,4591,3(a),5859,x=0.0125,Mg2.9875Na0.0125Sb2,625.5,0.000043574,0.00062129,0.00015989,1.1251,0.40612,22949.465277459,0.0005522087
73,10.1016/j.actamat.2015.04.023,4591,3(a),5859,x=0.0125,Mg2.9875Na0.0125Sb2,626,0.000043581,0.0006219,0.00016,1.1241,0.40674,22945.7791239302,0.0005532426
73,10.1016/j.actamat.2015.04.023,4591,3(a),5859,x=0.0125,Mg2.9875Na0.0125Sb2,626.5,0.000043587,0.00062251,0.00016011,1.1232,0.40737,22942.6205061142,0.000554229
73,10.1016/j.actamat.2015.04.023,4591,3(a),5859,x=0.0125,Mg2.9875Na0.0125Sb2,627,0.000043594,0.00062312,0.00016022,1.1223,0.40799,22938.9365509015,0.000555217
73,10.1016/j.actamat.2015.04.023,4591,3(a),5859,x=0.0125,Mg2.9875Na0.0125Sb2,627.5,0.000043601,0.00062372,0.00016033,1.1214,0.40861,22935.2537785831,0.0005561976
73,10.1016/j.actamat.2015.04.023,4591,3(a),5859,x=0.0125,Mg2.9875Na0.0125Sb2,628,0.000043607,0.00062433,0.00016044,1.1205,0.40923,22932.0980576513,0.0005571888
73,10.1016/j.actamat.2015.04.023,4591,3(a),5859,x=0.0125,Mg2.9875Na0.0125Sb2,628.5,0.000043614,0.00062494,0.00016055,1.1196,0.40986,22928.4174806255,0.0005581815
73,10.1016/j.actamat.2015.04.023,4591,3(a),5859,x=0.0125,Mg2.9875Na0.0125Sb2,629,0.00004362,0.00062555,0.00016066,1.1187,0.41048,22925.2636405319,0.0005591758
73,10.1016/j.actamat.2015.04.023,4591,3(a),5859,x=0.0125,Mg2.9875Na0.0125Sb2,629.5,0.000043627,0.00062615,0.00016077,1.1178,0.4111,22921.5852568364,0.0005601628
73,10.1016/j.actamat.2015.04.023,4591,3(a),5859,x=0.0125,Mg2.9875Na0.0125Sb2,630,0.000043634,0.00062676,0.00016089,1.1169,0.41172,22917.9080533529,0.0005611604
73,10.1016/j.actamat.2015.04.023,4591,3(a),5859,x=0.0125,Mg2.9875Na0.0125Sb2,630.5,0.00004364,0.00062737,0.000161,1.116,0.41235,22914.7571035747,0.0005621595
73,10.1016/j.actamat.2015.04.023,4591,3(a),5859,x=0.0125,Mg2.9875Na0.0125Sb2,631,0.000043647,0.00062798,0.00016111,1.1151,0.41297,22911.0820904071,0.0005631603
73,10.1016/j.actamat.2015.04.023,4591,3(a),5859,x=0.0125,Mg2.9875Na0.0125Sb2,631.5,0.000043653,0.00062858,0.00016122,1.1142,0.41359,22907.9330172039,0.0005641537
73,10.1016/j.actamat.2015.04.023,4591,3(a),5859,x=0.0125,Mg2.9875Na0.0125Sb2,632,0.00004366,0.00062919,0.00016133,1.1133,0.41421,22904.2601923958,0.0005651576
73,10.1016/j.actamat.2015.04.023,4591,3(a),5859,x=0.0125,Mg2.9875Na0.0125Sb2,632.5,0.000043667,0.0006298,0.00016144,1.1123,0.41483,22900.5885451256,0.0005662142
73,10.1016/j.actamat.2015.04.023,4591,3(a),5859,x=0.0125,Mg2.9875Na0.0125Sb2,633,0.000043673,0.00063041,0.00016155,1.1114,0.41546,22897.4423556889,0.0005672215
73,10.1016/j.actamat.2015.04.023,4591,3(a),5859,x=0.0125,Mg2.9875Na0.0125Sb2,633.5,0.00004368,0.00063101,0.00016166,1.1105,0.41608,22893.7728937729,0.0005682215
73,10.1016/j.actamat.2015.04.023,4591,3(a),5859,x=0.0125,Mg2.9875Na0.0125Sb2,634,0.000043686,0.00063162,0.00016178,1.1096,0.4167,22890.6285766607,0.0005692322
73,10.1016/j.actamat.2015.04.023,4591,3(a),5859,x=0.0125,Mg2.9875Na0.0125Sb2,634.5,0.000043693,0.00063223,0.00016189,1.1087,0.41732,22886.9612981484,0.0005702444
73,10.1016/j.actamat.2015.04.023,4591,3(a),5859,x=0.0125,Mg2.9875Na0.0125Sb2,635,0.0000437,0.00063284,0.000162,1.1078,0.41795,22883.295194508,0.0005712583
73,10.1016/j.actamat.2015.04.023,4591,3(a),5859,x=0.0125,Mg2.9875Na0.0125Sb2,635.5,0.000043706,0.00063344,0.00016211,1.1069,0.41857,22880.1537546332,0.0005722649
73,10.1016/j.actamat.2015.04.023,4591,3(a),5859,x=0.0125,Mg2.9875Na0.0125Sb2,636,0.000043713,0.00063405,0.00016222,1.106,0.41919,22876.4898314003,0.0005732821
73,10.1016/j.actamat.2015.04.023,4591,3(a),5859,x=0.0125,Mg2.9875Na0.0125Sb2,636.5,0.00004372,0.00063466,0.00016233,1.1051,0.41981,22872.8270814273,0.000574301
73,10.1016/j.actamat.2015.04.023,4591,3(a),5859,x=0.0125,Mg2.9875Na0.0125Sb2,637,0.000043726,0.00063527,0.00016244,1.1042,0.42044,22869.6885148424,0.0005753215
73,10.1016/j.actamat.2015.04.023,4591,3(a),5859,x=0.0125,Mg2.9875Na0.0125Sb2,637.5,0.000043733,0.00063587,0.00016255,1.1033,0.42106,22866.0279422861,0.0005763346
73,10.1016/j.actamat.2015.04.023,4591,3(a),5859,x=0.0125,Mg2.9875Na0.0125Sb2,638,0.000043739,0.00063648,0.00016266,1.1024,0.42168,22862.8912412264,0.0005773585
73,10.1016/j.actamat.2015.04.023,4591,3(a),5859,x=0.0125,Mg2.9875Na0.0125Sb2,638.5,0.000043746,0.00063709,0.00016278,1.1015,0.4223,22859.2328441458,0.000578384
73,10.1016/j.actamat.2015.04.023,4591,3(a),5859,x=0.0125,Mg2.9875Na0.0125Sb2,639,0.000043753,0.0006377,0.00016289,1.1006,0.42293,22855.5756176719,0.0005794112
73,10.1016/j.actamat.2015.04.023,4591,3(a),5859,x=0.0125,Mg2.9875Na0.0125Sb2,639.5,0.000043759,0.0006383,0.000163,1.0996,0.42355,22852.4417834046,0.0005804838
73,10.1016/j.actamat.2015.04.023,4591,3(a),5859,x=0.0125,Mg2.9875Na0.0125Sb2,640,0.000043766,0.00063891,0.00016311,1.0987,0.42417,22848.7867294247,0.0005815145
73,10.1016/j.actamat.2015.04.023,4591,3(a),5859,x=0.0125,Mg2.9875Na0.0125Sb2,640.5,0.000043772,0.00063952,0.00016322,1.0978,0.42479,22845.6547564653,0.0005825469
73,10.1016/j.actamat.2015.04.023,4591,3(a),5859,x=0.0125,Mg2.9875Na0.0125Sb2,641,0.000043779,0.00064013,0.00016333,1.0969,0.42541,22842.0018730442,0.000583581
73,10.1016/j.actamat.2015.04.023,4591,3(a),5859,x=0.0125,Mg2.9875Na0.0125Sb2,641.5,0.000043786,0.00064073,0.00016344,1.096,0.42604,22838.3501575846,0.0005846077
73,10.1016/j.actamat.2015.04.023,4591,3(a),5859,x=0.0125,Mg2.9875Na0.0125Sb2,642,0.000043792,0.00064134,0.00016355,1.0951,0.42666,22835.2210449397,0.0005856451
73,10.1016/j.actamat.2015.04.023,4591,3(a),5859,x=0.0125,Mg2.9875Na0.0125Sb2,642.5,0.000043799,0.00064195,0.00016367,1.0942,0.42728,22831.5714970661,0.0005866843
73,10.1016/j.actamat.2015.04.023,4591,3(a),5859,x=0.0125,Mg2.9875Na0.0125Sb2,643,0.000043805,0.00064256,0.00016378,1.0933,0.4279,22828.4442415249,0.0005877252
73,10.1016/j.actamat.2015.04.023,4591,3(a),5859,x=0.0125,Mg2.9875Na0.0125Sb2,643.5,0.000043812,0.00064316,0.00016389,1.0924,0.42853,22824.796859308,0.0005887587
73,10.1016/j.actamat.2015.04.023,4591,3(a),5859,x=0.0125,Mg2.9875Na0.0125Sb2,644,0.000043819,0.00064377,0.000164,1.0915,0.42915,22821.1506424154,0.000589803
73,10.1016/j.actamat.2015.04.023,4591,3(a),5859,x=0.0125,Mg2.9875Na0.0125Sb2,644.5,0.000043825,0.00064438,0.00016411,1.0906,0.42977,22818.0262407302,0.0005908491
73,10.1016/j.actamat.2015.04.023,4591,3(a),5859,x=0.0125,Mg2.9875Na0.0125Sb2,645,0.000043832,0.00064499,0.00016422,1.0897,0.43039,22814.3821865304,0.0005918969
73,10.1016/j.actamat.2015.04.023,4591,3(a),5859,x=0.0125,Mg2.9875Na0.0125Sb2,645.5,0.000043838,0.0006456,0.00016433,1.0888,0.43102,22811.2596377572,0.0005929464
73,10.1016/j.actamat.2015.04.023,4591,3(a),5859,x=0.0125,Mg2.9875Na0.0125Sb2,646,0.000043845,0.0006462,0.00016444,1.0879,0.43164,22807.6177443266,0.0005939884
73,10.1016/j.actamat.2015.04.023,4591,3(a),5859,x=0.0125,Mg2.9875Na0.0125Sb2,646.5,0.000043852,0.00064681,0.00016456,1.0869,0.43226,22803.9770135912,0.0005950961
73,10.1016/j.actamat.2015.04.023,4591,3(a),5859,x=0.0125,Mg2.9875Na0.0125Sb2,647,0.000043858,0.00064742,0.00016467,1.086,0.43288,22800.8573122349,0.000596151
73,10.1016/j.actamat.2015.04.023,4591,3(a),5859,x=0.0125,Mg2.9875Na0.0125Sb2,647.5,0.000043865,0.00064803,0.00016478,1.0851,0.43351,22797.2187393138,0.0005972076
73,10.1016/j.actamat.2015.04.023,4591,3(a),5859,x=0.0125,Mg2.9875Na0.0125Sb2,648,0.000043871,0.00064863,0.00016489,1.0842,0.43413,22794.1008866905,0.0005982568
73,10.1016/j.actamat.2015.04.023,4591,3(a),5859,x=0.0125,Mg2.9875Na0.0125Sb2,648.5,0.000043878,0.00064924,0.000165,1.0833,0.43475,22790.4644696659,0.0005993169
73,10.1016/j.actamat.2015.04.023,4591,3(a),5859,x=0.0125,Mg2.9875Na0.0125Sb2,649,0.000043885,0.00064985,0.00016511,1.0824,0.43537,22786.8292127151,0.0006003788
73,10.1016/j.actamat.2015.04.023,4591,3(a),5859,x=0.0125,Mg2.9875Na0.0125Sb2,649.5,0.000043891,0.00065046,0.00016522,1.0815,0.43599,22783.7142010891,0.0006014424
73,10.1016/j.actamat.2015.04.023,4591,3(a),5859,x=0.0125,Mg2.9875Na0.0125Sb2,650,0.000043898,0.00065106,0.00016533,1.0806,0.43662,22780.0810970887,0.0006024986
73,10.1016/j.actamat.2015.04.023,4591,3(a),5859,x=0.0125,Mg2.9875Na0.0125Sb2,650.5,0.000043904,0.00065167,0.00016544,1.0797,0.43724,22776.9679300292,0.0006035658
73,10.1016/j.actamat.2015.04.023,4591,3(a),5859,x=0.0125,Mg2.9875Na0.0125Sb2,651,0.000043911,0.00065228,0.00016556,1.0788,0.43786,22773.3369770673,0.0006046348
73,10.1016/j.actamat.2015.04.023,4591,3(a),5859,x=0.0125,Mg2.9875Na0.0125Sb2,651.5,0.000043918,0.00065289,0.00016567,1.0779,0.43848,22769.7071815656,0.0006057055
73,10.1016/j.actamat.2015.04.023,4591,3(a),5859,x=0.0125,Mg2.9875Na0.0125Sb2,652,0.000043924,0.00065349,0.00016578,1.077,0.43911,22766.596849103,0.0006067688
73,10.1016/j.actamat.2015.04.023,4591,3(a),5859,x=0.0125,Mg2.9875Na0.0125Sb2,652.5,0.000043931,0.0006541,0.00016589,1.0761,0.43973,22762.9692017027,0.0006078431
73,10.1016/j.actamat.2015.04.023,4591,3(a),5859,x=0.0125,Mg2.9875Na0.0125Sb2,653,0.000043938,0.00065471,0.000166,1.0751,0.44035,22759.3427101825,0.0006089759
73,10.1016/j.actamat.2015.04.023,4591,3(a),5859,x=0.0125,Mg2.9875Na0.0125Sb2,653.5,0.000043944,0.00065532,0.00016611,1.0742,0.44097,22756.2352084471,0.000610054
73,10.1016/j.actamat.2015.04.023,4591,3(a),5859,x=0.0125,Mg2.9875Na0.0125Sb2,654,0.000043951,0.00065592,0.00016622,1.0733,0.4416,22752.6108620964,0.0006111246
73,10.1016/j.actamat.2015.04.023,4591,3(a),5859,x=0.0125,Mg2.9875Na0.0125Sb2,654.5,0.000043957,0.00065653,0.00016633,1.0724,0.44222,22749.5051982619,0.0006122063
73,10.1016/j.actamat.2015.04.023,4591,3(a),5859,x=0.0125,Mg2.9875Na0.0125Sb2,655,0.000043964,0.00065714,0.00016645,1.0715,0.44284,22745.8829951779,0.0006132898
73,10.1016/j.actamat.2015.04.023,4591,3(a),5859,x=0.0125,Mg2.9875Na0.0125Sb2,655.5,0.000043971,0.00065775,0.00016656,1.0706,0.44346,22742.2619453731,0.0006143751
73,10.1016/j.actamat.2015.04.023,4591,3(a),5859,x=0.0125,Mg2.9875Na0.0125Sb2,656,0.000043977,0.00065835,0.00016667,1.0697,0.44408,22739.1591058963,0.0006154529
73,10.1016/j.actamat.2015.04.023,4591,3(a),5859,x=0.0125,Mg2.9875Na0.0125Sb2,656.5,0.000043984,0.00065896,0.00016678,1.0688,0.44471,22735.5401964351,0.0006165419