sid,DOI,figureid,fignum,sampleid,samplename,composition,Temperature,Electrical resistivity,Power factor,Seebeck coefficient,Thermal conductivity,ZT,Electrical conductivity,Figure of merit Z
73,10.1016/j.actamat.2015.04.023,4591,3(a),5857,x=0,Mg3Sb2,736,-0.13818,0.00024216,0.00031337,0.72613,0.21923,-7.2369373281,0.000333494
73,10.1016/j.actamat.2015.04.023,4591,3(a),5857,x=0,Mg3Sb2,736.5,-0.13882,0.00024248,0.00031268,0.7255,0.21953,-7.2035729722,0.0003342247
73,10.1016/j.actamat.2015.04.023,4591,3(a),5857,x=0,Mg3Sb2,737,-0.13947,0.00024281,0.00031199,0.72487,0.21984,-7.170000717,0.0003349704
73,10.1016/j.actamat.2015.04.023,4591,3(a),5857,x=0,Mg3Sb2,737.5,-0.14011,0.00024313,0.0003113,0.72423,0.22014,-7.1372493041,0.0003357083
73,10.1016/j.actamat.2015.04.023,4591,3(a),5857,x=0,Mg3Sb2,738,-0.14075,0.00024346,0.00031061,0.7236,0.22044,-7.1047957371,0.0003364566
73,10.1016/j.actamat.2015.04.023,4591,3(a),5857,x=0,Mg3Sb2,738.5,-0.14139,0.00024378,0.00030992,0.72297,0.22075,-7.0726359714,0.0003371924
73,10.1016/j.actamat.2015.04.023,4591,3(a),5857,x=0,Mg3Sb2,739,-0.14203,0.0002441,0.00030923,0.72234,0.22105,-7.0407660353,0.0003379295
73,10.1016/j.actamat.2015.04.023,4591,3(a),5857,x=0,Mg3Sb2,739.5,-0.14267,0.00024443,0.00030854,0.7217,0.22135,-7.0091820285,0.0003386864
73,10.1016/j.actamat.2015.04.023,4591,3(a),5857,x=0,Mg3Sb2,740,-0.14331,0.00024475,0.00030785,0.72107,0.22166,-6.97788012,0.0003394261
73,10.1016/j.actamat.2015.04.023,4591,3(a),5857,x=0,Mg3Sb2,740.5,-0.14395,0.00024508,0.00030716,0.72044,0.22196,-6.9468565474,0.000340181
73,10.1016/j.actamat.2015.04.023,4591,3(a),5857,x=0,Mg3Sb2,741,-0.14459,0.0002454,0.00030647,0.71981,0.22227,-6.9161076146,0.0003409233
73,10.1016/j.actamat.2015.04.023,4591,3(a),5857,x=0,Mg3Sb2,741.5,-0.14523,0.00024573,0.00030578,0.71917,0.22257,-6.8856296908,0.0003416856
73,10.1016/j.actamat.2015.04.023,4591,3(a),5857,x=0,Mg3Sb2,742,-0.14588,0.00024605,0.0003051,0.71854,0.22287,-6.8549492734,0.0003424305
73,10.1016/j.actamat.2015.04.023,4591,3(a),5857,x=0,Mg3Sb2,742.5,-0.14652,0.00024638,0.00030441,0.71791,0.22318,-6.825006825,0.0003431907
73,10.1016/j.actamat.2015.04.023,4591,3(a),5857,x=0,Mg3Sb2,743,-0.14716,0.0002467,0.00030372,0.71728,0.22348,-6.7953248165,0.0003439382
73,10.1016/j.actamat.2015.04.023,4591,3(a),5857,x=0,Mg3Sb2,743.5,-0.1478,0.00024703,0.00030303,0.71664,0.22378,-6.7658998647,0.0003447058
73,10.1016/j.actamat.2015.04.023,4591,3(a),5857,x=0,Mg3Sb2,744,-0.14844,0.00024735,0.00030234,0.71601,0.22409,-6.7367286446,0.0003454561
73,10.1016/j.actamat.2015.04.023,4591,3(a),5857,x=0,Mg3Sb2,744.5,-0.14908,0.00024768,0.00030165,0.71538,0.22439,-6.7078078884,0.0003462216
73,10.1016/j.actamat.2015.04.023,4591,3(a),5857,x=0,Mg3Sb2,745,-0.14972,0.000248,0.00030096,0.71475,0.22469,-6.6791343842,0.0003469745
73,10.1016/j.actamat.2015.04.023,4591,3(a),5857,x=0,Mg3Sb2,745.5,-0.15036,0.00024833,0.00030027,0.71411,0.225,-6.6507049747,0.0003477475
73,10.1016/j.actamat.2015.04.023,4591,3(a),5857,x=0,Mg3Sb2,746,-0.151,0.00024865,0.00029958,0.71348,0.2253,-6.6225165563,0.0003485031
73,10.1016/j.actamat.2015.04.023,4591,3(a),5857,x=0,Mg3Sb2,746.5,-0.15165,0.00024898,0.00029889,0.71285,0.2256,-6.5941312232,0.000349274
73,10.1016/j.actamat.2015.04.023,4591,3(a),5857,x=0,Mg3Sb2,747,-0.15229,0.0002493,0.0002982,0.71222,0.22591,-6.5664193315,0.0003500323
73,10.1016/j.actamat.2015.04.023,4591,3(a),5857,x=0,Mg3Sb2,747.5,-0.15293,0.00024963,0.00029751,0.71158,0.22621,-6.538939384,0.0003508109
73,10.1016/j.actamat.2015.04.023,4591,3(a),5857,x=0,Mg3Sb2,748,-0.15357,0.00024995,0.00029682,0.71095,0.22651,-6.5116884808,0.0003515718
73,10.1016/j.actamat.2015.04.023,4591,3(a),5857,x=0,Mg3Sb2,748.5,-0.15421,0.00025027,0.00029613,0.71032,0.22682,-6.4846637702,0.0003523342
73,10.1016/j.actamat.2015.04.023,4591,3(a),5857,x=0,Mg3Sb2,749,-0.15485,0.0002506,0.00029544,0.70969,0.22712,-6.4578624475,0.0003531119
73,10.1016/j.actamat.2015.04.023,4591,3(a),5857,x=0,Mg3Sb2,749.5,-0.15549,0.00025092,0.00029475,0.70905,0.22743,-6.4312817545,0.000353882
73,10.1016/j.actamat.2015.04.023,4591,3(a),5857,x=0,Mg3Sb2,750,-0.15613,0.00025125,0.00029406,0.70842,0.22773,-6.4049189778,0.0003546625
73,10.1016/j.actamat.2015.04.023,4591,3(a),5857,x=0,Mg3Sb2,750.5,-0.15677,0.00025157,0.00029337,0.70779,0.22803,-6.3787714486,0.0003554303
73,10.1016/j.actamat.2015.04.023,4591,3(a),5857,x=0,Mg3Sb2,751,-0.15741,0.0002519,0.00029268,0.70716,0.22834,-6.3528365415,0.0003562136
73,10.1016/j.actamat.2015.04.023,4591,3(a),5857,x=0,Mg3Sb2,751.5,-0.15806,0.00025222,0.00029199,0.70652,0.22864,-6.3267113754,0.0003569892
73,10.1016/j.actamat.2015.04.023,4591,3(a),5857,x=0,Mg3Sb2,752,-0.1587,0.00025255,0.0002913,0.70589,0.22894,-6.3011972275,0.0003577753
73,10.1016/j.actamat.2015.04.023,4591,3(a),5857,x=0,Mg3Sb2,752.5,-0.15934,0.00025287,0.00029061,0.70526,0.22925,-6.2758880382,0.0003585486
73,10.1016/j.actamat.2015.04.023,4591,3(a),5857,x=0,Mg3Sb2,753,-0.15998,0.0002532,0.00028992,0.70463,0.22955,-6.2507813477,0.0003593375
73,10.1016/j.actamat.2015.04.023,4591,3(a),5857,x=0,Mg3Sb2,753.5,-0.16062,0.00025352,0.00028923,0.70399,0.22985,-6.2258747354,0.0003601188
73,10.1016/j.actamat.2015.04.023,4591,3(a),5857,x=0,Mg3Sb2,754,-0.16126,0.00025385,0.00028855,0.70336,0.23016,-6.2011658192,0.0003609105
73,10.1016/j.actamat.2015.04.023,4591,3(a),5857,x=0,Mg3Sb2,754.5,-0.1619,0.00025417,0.00028786,0.70273,0.23046,-6.1766522545,0.0003616894
73,10.1016/j.actamat.2015.04.023,4591,3(a),5857,x=0,Mg3Sb2,755,-0.16254,0.0002545,0.00028717,0.70209,0.23076,-6.1523317337,0.0003624891
73,10.1016/j.actamat.2015.04.023,4591,3(a),5857,x=0,Mg3Sb2,755.5,-0.16318,0.00025482,0.00028648,0.70146,0.23107,-6.1282019855,0.0003632709
73,10.1016/j.actamat.2015.04.023,4591,3(a),5857,x=0,Mg3Sb2,756,-0.16383,0.00025515,0.00028579,0.70083,0.23137,-6.1038881768,0.0003640683
73,10.1016/j.actamat.2015.04.023,4591,3(a),5857,x=0,Mg3Sb2,756.5,-0.16447,0.00025547,0.0002851,0.7002,0.23168,-6.0801361951,0.0003648529
73,10.1016/j.actamat.2015.04.023,4591,3(a),5857,x=0,Mg3Sb2,757,-0.16511,0.0002558,0.00028441,0.69956,0.23198,-6.0565683484,0.0003656584
73,10.1016/j.actamat.2015.04.023,4591,3(a),5857,x=0,Mg3Sb2,757.5,-0.16575,0.00025612,0.00028372,0.69893,0.23228,-6.0331825038,0.0003664459
73,10.1016/j.actamat.2015.04.023,4591,3(a),5857,x=0,Mg3Sb2,758,-0.16639,0.00025645,0.00028303,0.6983,0.23259,-6.0099765611,0.000367249
73,10.1016/j.actamat.2015.04.023,4591,3(a),5857,x=0,Mg3Sb2,758.5,-0.16703,0.00025677,0.00028234,0.69767,0.23289,-5.9869484524,0.0003680393
73,10.1016/j.actamat.2015.04.023,4591,3(a),5857,x=0,Mg3Sb2,759,-0.16767,0.00025709,0.00028165,0.69703,0.23319,-5.9640961412,0.0003688363
73,10.1016/j.actamat.2015.04.023,4591,3(a),5857,x=0,Mg3Sb2,759.5,-0.16831,0.00025742,0.00028096,0.6964,0.2335,-5.9414176222,0.0003696439
73,10.1016/j.actamat.2015.04.023,4591,3(a),5857,x=0,Mg3Sb2,760,-0.16895,0.00025774,0.00028027,0.69577,0.2338,-5.9189109204,0.0003704385
73,10.1016/j.actamat.2015.04.023,4591,3(a),5857,x=0,Mg3Sb2,760.5,-0.16959,0.00025807,0.00027958,0.69514,0.2341,-5.8965740905,0.000371249
73,10.1016/j.actamat.2015.04.023,4591,3(a),5857,x=0,Mg3Sb2,761,-0.17024,0.00025839,0.00027889,0.6945,0.23441,-5.8740601504,0.0003720518
73,10.1016/j.actamat.2015.04.023,4591,3(a),5857,x=0,Mg3Sb2,761.5,-0.17088,0.00025872,0.0002782,0.69387,0.23471,-5.8520599251,0.0003728652
73,10.1016/j.actamat.2015.04.023,4591,3(a),5857,x=0,Mg3Sb2,762,-0.17152,0.00025904,0.00027751,0.69324,0.23501,-5.8302238806,0.0003736657
73,10.1016/j.actamat.2015.04.023,4591,3(a),5857,x=0,Mg3Sb2,762.5,-0.17216,0.00025937,0.00027682,0.69261,0.23532,-5.8085501859,0.000374482
73,10.1016/j.actamat.2015.04.023,4591,3(a),5857,x=0,Mg3Sb2,763,-0.1728,0.00025969,0.00027613,0.69197,0.23562,-5.787037037,0.0003752908
73,10.1016/j.actamat.2015.04.023,4591,3(a),5857,x=0,Mg3Sb2,763.5,-0.17344,0.00026002,0.00027544,0.69134,0.23592,-5.7656826568,0.0003761102
73,10.1016/j.actamat.2015.04.023,4591,3(a),5857,x=0,Mg3Sb2,764,-0.17408,0.00026034,0.00027475,0.69071,0.23623,-5.7444852941,0.0003769165
73,10.1016/j.actamat.2015.04.023,4591,3(a),5857,x=0,Mg3Sb2,764.5,-0.17472,0.00026067,0.00027406,0.69008,0.23653,-5.7234432234,0.0003777388
73,10.1016/j.actamat.2015.04.023,4591,3(a),5857,x=0,Mg3Sb2,765,-0.17536,0.00026099,0.00027337,0.68944,0.23684,-5.7025547445,0.0003785536
73,10.1016/j.actamat.2015.04.023,4591,3(a),5857,x=0,Mg3Sb2,765.5,-0.17601,0.00026132,0.00027268,0.68881,0.23714,-5.6814953696,0.0003793789
73,10.1016/j.actamat.2015.04.023,4591,3(a),5857,x=0,Mg3Sb2,766,-0.17665,0.00026164,0.000272,0.68818,0.23744,-5.6609114067,0.0003801912
73,10.1016/j.actamat.2015.04.023,4591,3(a),5857,x=0,Mg3Sb2,766.5,-0.17729,0.00026197,0.00027131,0.68755,0.23775,-5.6404760562,0.0003810196
73,10.1016/j.actamat.2015.04.023,4591,3(a),5857,x=0,Mg3Sb2,767,-0.17793,0.00026229,0.00027062,0.68691,0.23805,-5.6201877143,0.0003818404
73,10.1016/j.actamat.2015.04.023,4591,3(a),5857,x=0,Mg3Sb2,767.5,-0.17857,0.00026262,0.00026993,0.68628,0.23835,-5.6000448004,0.0003826718
73,10.1016/j.actamat.2015.04.023,4591,3(a),5857,x=0,Mg3Sb2,768,-0.17921,0.00026294,0.00026924,0.68565,0.23866,-5.5800457564,0.0003834901
73,10.1016/j.actamat.2015.04.023,4591,3(a),5857,x=0,Mg3Sb2,768.5,-0.17985,0.00026326,0.00026855,0.68502,0.23896,-5.5601890464,0.0003843099
73,10.1016/j.actamat.2015.04.023,4591,3(a),5857,x=0,Mg3Sb2,769,-0.18049,0.00026359,0.00026786,0.68438,0.23926,-5.5404731564,0.0003851515
73,10.1016/j.actamat.2015.04.023,4591,3(a),5857,x=0,Mg3Sb2,769.5,-0.18113,0.00026391,0.00026717,0.68375,0.23957,-5.5208965936,0.0003859744
73,10.1016/j.actamat.2015.04.023,4591,3(a),5857,x=0,Mg3Sb2,770,-0.18177,0.00026424,,0.68312,0.29785,-5.5014578863,0.0003868134
73,10.1016/j.actamat.2015.04.023,4591,3(a),5857,x=0,Mg3Sb2,770.5,-0.18242,0.00026456,,0.68249,0.29868,-5.4818550598,0.0003876394
73,10.1016/j.actamat.2015.04.023,4591,3(a),5857,x=0,Mg3Sb2,771,-0.18306,0.00026489,,,,-5.4626898285,
73,10.1016/j.actamat.2015.04.023,4591,3(a),5857,x=0,Mg3Sb2,771.5,-0.1837,0.00026521,,,,-5.4436581383,
73,10.1016/j.actamat.2015.04.023,4591,3(a),5857,x=0,Mg3Sb2,772,-0.18434,0.00026554,,,,-5.4247585982,
73,10.1016/j.actamat.2015.04.023,4591,3(a),5857,x=0,Mg3Sb2,772.5,-0.18498,0.00026586,,,,-5.4059898367,
73,10.1016/j.actamat.2015.04.023,4591,3(a),5857,x=0,Mg3Sb2,773,-0.18562,,,,,-5.387350501,
73,10.1016/j.actamat.2015.04.023,4591,3(a),5857,x=0,Mg3Sb2,773.5,-0.18626,,,,,-5.368839257,
73,10.1016/j.actamat.2015.04.023,4591,3(a),5857,x=0,Mg3Sb2,774,-0.1869,,,,,-5.3504547887,
73,10.1016/j.actamat.2015.04.023,4591,3(a),5857,x=0,Mg3Sb2,774.5,-0.18754,,,,,-5.3321957982,
73,10.1016/j.actamat.2015.04.023,4591,3(a),5857,x=0,Mg3Sb2,775,-0.18819,,,,,-5.313778628,
73,10.1016/j.actamat.2015.04.023,4593,3(c),5857,x=0,Mg3Sb2,296.5,,,0.00091952,,-0.047576,,
73,10.1016/j.actamat.2015.04.023,4593,3(c),5857,x=0,Mg3Sb2,297,,,0.00091883,1.2815,-0.047272,,
73,10.1016/j.actamat.2015.04.023,4593,3(c),5857,x=0,Mg3Sb2,297.5,,,0.00091814,1.2809,-0.046969,,
73,10.1016/j.actamat.2015.04.023,4593,3(c),5857,x=0,Mg3Sb2,298,,-0.000042323,0.00091745,1.2803,-0.046665,,-0.0000330571
73,10.1016/j.actamat.2015.04.023,4593,3(c),5857,x=0,Mg3Sb2,298.5,,-0.000041998,0.00091676,1.2796,-0.046361,,-0.0000328212
73,10.1016/j.actamat.2015.04.023,4593,3(c),5857,x=0,Mg3Sb2,299,,-0.000041673,0.00091607,1.279,-0.046058,,-0.0000325825
73,10.1016/j.actamat.2015.04.023,4593,3(c),5857,x=0,Mg3Sb2,299.5,,-0.000041349,0.00091538,1.2784,-0.045754,,-0.0000323443
73,10.1016/j.actamat.2015.04.023,4593,3(c),5857,x=0,Mg3Sb2,300,,-0.000041024,0.00091469,1.2777,-0.045451,,-0.0000321077
73,10.1016/j.actamat.2015.04.023,4593,3(c),5857,x=0,Mg3Sb2,300.5,,-0.000040699,0.000914,1.2771,-0.045147,,-0.0000318683
73,10.1016/j.actamat.2015.04.023,4593,3(c),5857,x=0,Mg3Sb2,301,,-0.000040374,0.00091331,1.2765,-0.044844,,-0.0000316287
73,10.1016/j.actamat.2015.04.023,4593,3(c),5857,x=0,Mg3Sb2,301.5,,-0.00004005,0.00091262,1.2758,-0.04454,,-0.0000313921
73,10.1016/j.actamat.2015.04.023,4593,3(c),5857,x=0,Mg3Sb2,302,,-0.000039725,0.00091193,1.2752,-0.044237,,-0.000031152
73,10.1016/j.actamat.2015.04.023,4593,3(c),5857,x=0,Mg3Sb2,302.5,,-0.0000394,0.00091124,1.2746,-0.043933,,-0.0000309117
73,10.1016/j.actamat.2015.04.023,4593,3(c),5857,x=0,Mg3Sb2,303,,-0.000039075,0.00091055,1.2739,-0.04363,,-0.0000306735
73,10.1016/j.actamat.2015.04.023,4593,3(c),5857,x=0,Mg3Sb2,303.5,,-0.000038751,0.00090986,1.2733,-0.043326,,-0.0000304335
73,10.1016/j.actamat.2015.04.023,4593,3(c),5857,x=0,Mg3Sb2,304,,-0.000038426,0.00090917,1.2727,-0.043023,,-0.0000301925
73,10.1016/j.actamat.2015.04.023,4593,3(c),5857,x=0,Mg3Sb2,304.5,,-0.000038101,0.00090848,1.272,-0.042719,,-0.0000299536
73,10.1016/j.actamat.2015.04.023,4593,3(c),5857,x=0,Mg3Sb2,305,,-0.000037776,0.00090779,1.2714,-0.042416,,-0.0000297121
73,10.1016/j.actamat.2015.04.023,4591,3(a),5858,x=0.006,Mg2.994Na0.006Sb2,301,0.000071726,0.00023365,0.0001165,1.5129,0.022274,13941.9457379472,0.0001544385
73,10.1016/j.actamat.2015.04.023,4591,3(a),5858,x=0.006,Mg2.994Na0.006Sb2,301.5,0.00007174,0.00023406,0.00011662,1.5121,0.02281,13939.2249790912,0.0001547913
73,10.1016/j.actamat.2015.04.023,4591,3(a),5858,x=0.006,Mg2.994Na0.006Sb2,302,0.000071754,0.00023447,0.00011674,1.5112,0.023347,13936.5052819355,0.0001551548
73,10.1016/j.actamat.2015.04.023,4591,3(a),5858,x=0.006,Mg2.994Na0.006Sb2,302.5,0.000071769,0.00023488,0.00011686,1.5104,0.023883,13933.5924981538,0.0001555085
73,10.1016/j.actamat.2015.04.023,4591,3(a),5858,x=0.006,Mg2.994Na0.006Sb2,303,0.000071783,0.00023529,0.00011698,1.5095,0.02442,13930.8749982586,0.0001558728
73,10.1016/j.actamat.2015.04.023,4591,3(a),5858,x=0.006,Mg2.994Na0.006Sb2,303.5,0.000071797,0.0002357,0.0001171,1.5087,0.024956,13928.158558157,0.0001562272
73,10.1016/j.actamat.2015.04.023,4591,3(a),5858,x=0.006,Mg2.994Na0.006Sb2,304,0.000071812,0.00023611,0.00011723,1.5079,0.025493,13925.2492619618,0.000156582
73,10.1016/j.actamat.2015.04.023,4591,3(a),5858,x=0.006,Mg2.994Na0.006Sb2,304.5,0.000071826,0.00023652,0.00011735,1.507,0.026029,13922.5350151756,0.0001569476
73,10.1016/j.actamat.2015.04.023,4591,3(a),5858,x=0.006,Mg2.994Na0.006Sb2,305,0.00007184,0.00023693,0.00011747,1.5062,0.026566,13919.8218262806,0.0001573031
73,10.1016/j.actamat.2015.04.023,4591,3(a),5858,x=0.006,Mg2.994Na0.006Sb2,305.5,0.000071855,0.00023735,0.00011759,1.5053,0.027103,13916.9160114119,0.0001576762
73,10.1016/j.actamat.2015.04.023,4591,3(a),5858,x=0.006,Mg2.994Na0.006Sb2,306,0.000071869,0.00023776,0.00011771,1.5045,0.027639,13914.2050118966,0.0001580326
73,10.1016/j.actamat.2015.04.023,4591,3(a),5858,x=0.006,Mg2.994Na0.006Sb2,306.5,0.000071883,0.00023817,0.00011783,1.5036,0.028176,13911.495068375,0.0001583998
73,10.1016/j.actamat.2015.04.023,4591,3(a),5858,x=0.006,Mg2.994Na0.006Sb2,307,0.000071897,0.00023858,0.00011795,1.5028,0.028712,13908.7861802301,0.000158757
73,10.1016/j.actamat.2015.04.023,4591,3(a),5858,x=0.006,Mg2.994Na0.006Sb2,307.5,0.000071912,0.00023899,0.00011807,1.5019,0.029249,13905.8849705195,0.0001591251
73,10.1016/j.actamat.2015.04.023,4591,3(a),5858,x=0.006,Mg2.994Na0.006Sb2,308,0.000071926,0.0002394,0.00011819,1.5011,0.029785,13903.1782665517,0.000159483
73,10.1016/j.actamat.2015.04.023,4591,3(a),5858,x=0.006,Mg2.994Na0.006Sb2,308.5,0.00007194,0.00023981,0.00011831,1.5002,0.030322,13900.4726160689,0.000159852
73,10.1016/j.actamat.2015.04.023,4591,3(a),5858,x=0.006,Mg2.994Na0.006Sb2,309,0.000071955,0.00024022,0.00011843,1.4994,0.030858,13897.5748731846,0.0001602108
73,10.1016/j.actamat.2015.04.023,4591,3(a),5858,x=0.006,Mg2.994Na0.006Sb2,309.5,0.000071969,0.00024063,0.00011856,1.4985,0.031395,13894.8714029652,0.0001605806
73,10.1016/j.actamat.2015.04.023,4591,3(a),5858,x=0.006,Mg2.994Na0.006Sb2,310,0.000071983,0.00024104,0.00011868,1.4977,0.031931,13892.1689843435,0.0001609401
73,10.1016/j.actamat.2015.04.023,4591,3(a),5858,x=0.006,Mg2.994Na0.006Sb2,310.5,0.000071998,0.00024145,0.0001188,1.4968,0.032468,13889.2747020751,0.0001613108
73,10.1016/j.actamat.2015.04.023,4591,3(a),5858,x=0.006,Mg2.994Na0.006Sb2,311,0.000072012,0.00024186,0.00011892,1.496,0.033005,13886.5744598123,0.0001616711
73,10.1016/j.actamat.2015.04.023,4591,3(a),5858,x=0.006,Mg2.994Na0.006Sb2,311.5,0.000072026,0.00024227,0.00011904,1.4952,0.033541,13883.8752672646,0.0001620318
73,10.1016/j.actamat.2015.04.023,4591,3(a),5858,x=0.006,Mg2.994Na0.006Sb2,312,0.000072041,0.00024269,0.00011916,1.4943,0.034078,13880.9844394164,0.0001624105
73,10.1016/j.actamat.2015.04.023,4591,3(a),5858,x=0.006,Mg2.994Na0.006Sb2,312.5,0.000072055,0.0002431,0.00011928,1.4935,0.034614,13878.2874193325,0.000162772
73,10.1016/j.actamat.2015.04.023,4591,3(a),5858,x=0.006,Mg2.994Na0.006Sb2,313,0.000072069,0.00024351,0.0001194,1.4926,0.035151,13875.5914470854,0.0001631448
73,10.1016/j.actamat.2015.04.023,4591,3(a),5858,x=0.006,Mg2.994Na0.006Sb2,313.5,0.000072083,0.00024392,0.00011952,1.4918,0.035687,13872.8965220648,0.0001635072
73,10.1016/j.actamat.2015.04.023,4591,3(a),5858,x=0.006,Mg2.994Na0.006Sb2,314,0.000072098,0.00024433,0.00011964,1.4909,0.036224,13870.0102638076,0.0001638809
73,10.1016/j.actamat.2015.04.023,4591,3(a),5858,x=0.006,Mg2.994Na0.006Sb2,314.5,0.000072112,0.00024474,0.00011976,1.4901,0.03676,13867.3175061016,0.000164244
73,10.1016/j.actamat.2015.04.023,4591,3(a),5858,x=0.006,Mg2.994Na0.006Sb2,315,0.000072126,0.00024515,0.00011989,1.4892,0.037297,13864.6257937498,0.0001646186
73,10.1016/j.actamat.2015.04.023,4591,3(a),5858,x=0.006,Mg2.994Na0.006Sb2,315.5,0.000072141,0.00024556,0.00012001,1.4884,0.037833,13861.7429755617,0.0001649825
73,10.1016/j.actamat.2015.04.023,4591,3(a),5858,x=0.006,Mg2.994Na0.006Sb2,316,0.000072155,0.00024597,0.00012013,1.4875,0.03837,13859.053426651,0.000165358
73,10.1016/j.actamat.2015.04.023,4591,3(a),5858,x=0.006,Mg2.994Na0.006Sb2,316.5,0.000072169,0.00024638,0.00012025,1.4867,0.038907,13856.3649212266,0.0001657227
73,10.1016/j.actamat.2015.04.023,4591,3(a),5858,x=0.006,Mg2.994Na0.006Sb2,317,0.000072184,0.00024679,0.00012037,1.4858,0.039443,13853.4855369611,0.0001660991
73,10.1016/j.actamat.2015.04.023,4591,3(a),5858,x=0.006,Mg2.994Na0.006Sb2,317.5,0.000072198,0.0002472,0.00012049,1.485,0.03998,13850.7991911133,0.0001664646
73,10.1016/j.actamat.2015.04.023,4591,3(a),5858,x=0.006,Mg2.994Na0.006Sb2,318,0.000072212,0.00024761,0.00012061,1.4842,0.040516,13848.1138868886,0.0001668306
73,10.1016/j.actamat.2015.04.023,4591,3(a),5858,x=0.006,Mg2.994Na0.006Sb2,318.5,0.000072227,0.00024802,0.00012073,1.4833,0.041053,13845.2379304138,0.0001672083
73,10.1016/j.actamat.2015.04.023,4591,3(a),5858,x=0.006,Mg2.994Na0.006Sb2,319,0.000072241,0.00024844,0.00012085,1.4825,0.041589,13842.5547819105,0.0001675818
73,10.1016/j.actamat.2015.04.023,4591,3(a),5858,x=0.006,Mg2.994Na0.006Sb2,319.5,0.000072255,0.00024885,0.00012097,1.4816,0.042126,13839.8726731714,0.0001679603
73,10.1016/j.actamat.2015.04.023,4591,3(a),5858,x=0.006,Mg2.994Na0.006Sb2,320,0.000072269,0.00024926,0.0001211,1.4808,0.042662,13837.1916035921,0.0001683279
73,10.1016/j.actamat.2015.04.023,4591,3(a),5858,x=0.006,Mg2.994Na0.006Sb2,320.5,0.000072284,0.00024967,0.00012122,1.4799,0.043199,13834.3201815063,0.0001687073
73,10.1016/j.actamat.2015.04.023,4591,3(a),5858,x=0.006,Mg2.994Na0.006Sb2,321,0.000072298,0.00025008,0.00012134,1.4791,0.043735,13831.6412625522,0.0001690758
73,10.1016/j.actamat.2015.04.023,4591,3(a),5858,x=0.006,Mg2.994Na0.006Sb2,321.5,0.000072312,0.00025049,0.00012146,1.4782,0.044272,13828.963380905,0.0001694561
73,10.1016/j.actamat.2015.04.023,4591,3(a),5858,x=0.006,Mg2.994Na0.006Sb2,322,0.000072327,0.0002509,0.00012158,1.4774,0.044808,13826.0953724059,0.0001698254
73,10.1016/j.actamat.2015.04.023,4591,3(a),5858,x=0.006,Mg2.994Na0.006Sb2,322.5,0.000072341,0.00025131,0.0001217,1.4765,0.045345,13823.4196375499,0.0001702066
73,10.1016/j.actamat.2015.04.023,4591,3(a),5858,x=0.006,Mg2.994Na0.006Sb2,323,0.000072355,0.00025172,0.00012182,1.4757,0.045882,13820.7449381522,0.0001705767