sid,DOI,figureid,fignum,sampleid,samplename,composition,Temperature,Electrical resistivity,Power factor,Seebeck coefficient,Thermal conductivity,ZT,Electrical conductivity,Figure of merit Z
10954,10.1007/s11664-015-4303-6,5134,3(a),6472,x=1,Eu1Zn2Sb2,433.5,0.000013394,0.0015295,0.00014506,2.046,0.36606,74660.2956547708,0.0007475562
10954,10.1007/s11664-015-4303-6,5134,3(a),6472,x=1,Eu1Zn2Sb2,434,0.000013402,0.0015305,0.00014516,2.0446,0.36714,74615.7289956723,0.0007485572
10954,10.1007/s11664-015-4303-6,5134,3(a),6472,x=1,Eu1Zn2Sb2,434.5,0.00001341,0.0015315,0.00014527,2.0432,0.36822,74571.2155108128,0.0007495595
10954,10.1007/s11664-015-4303-6,5134,3(a),6472,x=1,Eu1Zn2Sb2,435,0.000013418,0.0015325,0.00014537,2.0417,0.3693,74526.7551050827,0.0007506
10954,10.1007/s11664-015-4303-6,5134,3(a),6472,x=1,Eu1Zn2Sb2,435.5,0.000013426,0.0015336,0.00014547,2.0403,0.37038,74482.347683599,0.0007516542
10954,10.1007/s11664-015-4303-6,5134,3(a),6472,x=1,Eu1Zn2Sb2,436,0.000013434,0.0015346,0.00014558,2.0389,0.37146,74437.9931517046,0.0007526607
10954,10.1007/s11664-015-4303-6,5134,3(a),6472,x=1,Eu1Zn2Sb2,436.5,0.000013442,0.0015356,0.00014568,2.0375,0.37254,74393.691414968,0.0007536687
10954,10.1007/s11664-015-4303-6,5134,3(a),6472,x=1,Eu1Zn2Sb2,437,0.00001345,0.0015367,0.00014579,2.0361,0.37362,74349.4423791822,0.0007547272
10954,10.1007/s11664-015-4303-6,5134,3(a),6472,x=1,Eu1Zn2Sb2,437.5,0.000013458,0.0015377,0.00014589,2.0347,0.3747,74305.2459503641,0.0007557379
10954,10.1007/s11664-015-4303-6,5134,3(a),6472,x=1,Eu1Zn2Sb2,438,0.000013466,0.0015387,0.000146,2.0332,0.37578,74261.1020347542,0.0007567873
10954,10.1007/s11664-015-4303-6,5134,3(a),6472,x=1,Eu1Zn2Sb2,438.5,0.000013474,0.0015398,0.0001461,2.0318,0.37686,74217.0105388155,0.0007578502
10954,10.1007/s11664-015-4303-6,5134,3(a),6472,x=1,Eu1Zn2Sb2,439,0.000013482,0.0015408,0.0001462,2.0304,0.37794,74172.971369233,0.0007588652
10954,10.1007/s11664-015-4303-6,5134,3(a),6472,x=1,Eu1Zn2Sb2,439.5,0.00001349,0.0015418,0.00014631,2.029,0.37902,74128.9844329133,0.0007598817
10954,10.1007/s11664-015-4303-6,5134,3(a),6472,x=1,Eu1Zn2Sb2,440,0.000013498,0.0015429,0.00014641,2.0276,0.3801,74085.0496369833,0.0007609489
10954,10.1007/s11664-015-4303-6,5134,3(a),6472,x=1,Eu1Zn2Sb2,440.5,0.000013506,0.0015439,0.00014652,2.0261,0.38118,74041.1668887902,0.0007620058
10954,10.1007/s11664-015-4303-6,5134,3(a),6472,x=1,Eu1Zn2Sb2,441,0.000013514,0.0015449,0.00014662,2.0247,0.38226,73997.3360959006,0.0007630266
10954,10.1007/s11664-015-4303-6,5134,3(a),6472,x=1,Eu1Zn2Sb2,441.5,0.000013522,0.0015459,0.00014672,2.0233,0.38334,73953.5571660997,0.0007640488
10954,10.1007/s11664-015-4303-6,5134,3(a),6472,x=1,Eu1Zn2Sb2,442,0.00001353,0.001547,0.00014683,2.0219,0.38442,73909.830007391,0.0007651219
10954,10.1007/s11664-015-4303-6,5134,3(a),6472,x=1,Eu1Zn2Sb2,442.5,0.000013538,0.001548,0.00014693,2.0205,0.3855,73866.1545279953,0.000766147
10954,10.1007/s11664-015-4303-6,5134,3(a),6472,x=1,Eu1Zn2Sb2,443,0.000013546,0.001549,0.00014703,2.0191,0.38658,73822.5306363502,0.0007671735
10954,10.1007/s11664-015-4303-6,5134,3(a),6472,x=1,Eu1Zn2Sb2,443.5,0.000013554,0.0015501,0.00014714,2.0176,0.38766,73778.9582411096,0.0007682891
10954,10.1007/s11664-015-4303-6,5134,3(a),6472,x=1,Eu1Zn2Sb2,444,0.000013562,0.0015511,0.00014724,2.0162,0.38874,73735.4372511429,0.0007693185
10954,10.1007/s11664-015-4303-6,5134,3(a),6472,x=1,Eu1Zn2Sb2,444.5,0.00001357,0.0015521,0.00014735,2.0148,0.38982,73691.9675755343,0.0007703494
10954,10.1007/s11664-015-4303-6,5134,3(a),6472,x=1,Eu1Zn2Sb2,445,0.000013578,0.0015532,0.00014745,2.0134,0.3909,73648.5491235823,0.0007714314
10954,10.1007/s11664-015-4303-6,5134,3(a),6472,x=1,Eu1Zn2Sb2,445.5,0.000013586,0.0015542,0.00014755,2.012,0.39198,73605.1818047991,0.0007724652
10954,10.1007/s11664-015-4303-6,5134,3(a),6472,x=1,Eu1Zn2Sb2,446,0.000013594,0.0015552,0.00014766,2.0105,0.39306,73561.8655289098,0.0007735389
10954,10.1007/s11664-015-4303-6,5134,3(a),6472,x=1,Eu1Zn2Sb2,446.5,0.000013602,0.0015563,0.00014776,2.0091,0.39413,73518.6002058521,0.0007746255
10954,10.1007/s11664-015-4303-6,5134,3(a),6472,x=1,Eu1Zn2Sb2,447,0.00001361,0.0015573,0.00014786,2.0077,0.39521,73475.3857457752,0.0007756637
10954,10.1007/s11664-015-4303-6,5134,3(a),6472,x=1,Eu1Zn2Sb2,447.5,0.000013618,0.0015583,0.00014796,2.0063,0.39629,73432.2220590395,0.0007767034
10954,10.1007/s11664-015-4303-6,5134,3(a),6472,x=1,Eu1Zn2Sb2,448,0.000013626,0.0015593,0.00014807,2.0049,0.39737,73389.1090562161,0.0007777445
10954,10.1007/s11664-015-4303-6,5134,3(a),6472,x=1,Eu1Zn2Sb2,448.5,0.000013635,0.0015604,0.00014817,2.0035,0.39845,73340.6674000733,0.000778837
10954,10.1007/s11664-015-4303-6,5134,3(a),6472,x=1,Eu1Zn2Sb2,449,0.000013643,0.0015614,0.00014827,2.002,0.39953,73297.6618045884,0.0007799201
10954,10.1007/s11664-015-4303-6,5134,3(a),6472,x=1,Eu1Zn2Sb2,449.5,0.000013651,0.0015624,0.00014838,2.0006,0.40061,73254.7066149,0.0007809657
10954,10.1007/s11664-015-4303-6,5134,3(a),6472,x=1,Eu1Zn2Sb2,450,0.000013659,0.0015635,0.00014848,1.9992,0.40169,73211.8017424409,0.0007820628
10954,10.1007/s11664-015-4303-6,5134,3(a),6472,x=1,Eu1Zn2Sb2,450.5,0.000013667,0.0015645,0.00014858,1.9978,0.40277,73168.9470988512,0.0007831114
10954,10.1007/s11664-015-4303-6,5134,3(a),6472,x=1,Eu1Zn2Sb2,451,0.000013675,0.0015655,0.00014869,1.9964,0.40385,73126.1425959781,0.0007841615
10954,10.1007/s11664-015-4303-6,5134,3(a),6472,x=1,Eu1Zn2Sb2,451.5,0.000013683,0.0015666,0.00014879,1.9949,0.40493,73083.3881458744,0.0007853025
10954,10.1007/s11664-015-4303-6,5134,3(a),6472,x=1,Eu1Zn2Sb2,452,0.000013691,0.0015676,0.00014889,1.9935,0.40601,73040.6836607991,0.0007863557
10954,10.1007/s11664-015-4303-6,5134,3(a),6472,x=1,Eu1Zn2Sb2,452.5,0.000013699,0.0015686,0.00014899,1.9921,0.40709,72998.0290532156,0.0007874103
10954,10.1007/s11664-015-4303-6,5134,3(a),6472,x=1,Eu1Zn2Sb2,453,0.000013707,0.0015696,0.0001491,1.9907,0.40817,72955.4242357919,0.0007884664
10954,10.1007/s11664-015-4303-6,5134,3(a),6472,x=1,Eu1Zn2Sb2,453.5,0.000013715,0.0015707,0.0001492,1.9893,0.40925,72912.8691213999,0.0007895742
10954,10.1007/s11664-015-4303-6,5134,3(a),6472,x=1,Eu1Zn2Sb2,454,0.000013723,0.0015717,0.0001493,1.9879,0.41033,72870.3636231145,0.0007906333
10954,10.1007/s11664-015-4303-6,5134,3(a),6472,x=1,Eu1Zn2Sb2,454.5,0.000013731,0.0015727,0.00014941,1.9864,0.41141,72827.9076542131,0.0007917338
10954,10.1007/s11664-015-4303-6,5134,3(a),6472,x=1,Eu1Zn2Sb2,455,0.000013739,0.0015738,0.00014951,1.985,0.41249,72785.5011281753,0.0007928463
10954,10.1007/s11664-015-4303-6,5134,3(a),6472,x=1,Eu1Zn2Sb2,455.5,0.000013747,0.0015748,0.00014961,1.9836,0.41357,72743.1439586819,0.0007939101
10954,10.1007/s11664-015-4303-6,5134,3(a),6472,x=1,Eu1Zn2Sb2,456,0.000013755,0.0015758,0.00014971,1.9822,0.41465,72700.8360596147,0.0007949753
10954,10.1007/s11664-015-4303-6,5134,3(a),6472,x=1,Eu1Zn2Sb2,456.5,0.000013763,0.0015769,0.00014981,1.9808,0.41573,72658.5773450556,0.0007960925
10954,10.1007/s11664-015-4303-6,5134,3(a),6472,x=1,Eu1Zn2Sb2,457,0.000013771,0.0015779,0.00014992,1.9793,0.41681,72616.3677292862,0.000797201
10954,10.1007/s11664-015-4303-6,5134,3(a),6472,x=1,Eu1Zn2Sb2,457.5,0.000013779,0.0015789,0.00015002,1.9779,0.41789,72574.2071267871,0.0007982709
10954,10.1007/s11664-015-4303-6,5134,3(a),6472,x=1,Eu1Zn2Sb2,458,0.000013787,0.00158,0.00015012,1.9765,0.41897,72532.0954522376,0.0007993929
10954,10.1007/s11664-015-4303-6,5134,3(a),6472,x=1,Eu1Zn2Sb2,458.5,0.000013795,0.001581,0.00015022,1.9751,0.42005,72490.0326205147,0.0008004658
10954,10.1007/s11664-015-4303-6,5134,3(a),6472,x=1,Eu1Zn2Sb2,459,0.000013803,0.001582,0.00015033,1.9737,0.42113,72448.0185466928,0.0008015403
10954,10.1007/s11664-015-4303-6,5134,3(a),6472,x=1,Eu1Zn2Sb2,459.5,0.000013811,0.001583,0.00015043,1.9723,0.42221,72406.053146043,0.0008026162
10954,10.1007/s11664-015-4303-6,5134,3(a),6472,x=1,Eu1Zn2Sb2,460,0.000013819,0.0015841,0.00015053,1.9708,0.42329,72364.1363340329,0.0008037853
10954,10.1007/s11664-015-4303-6,5134,3(a),6472,x=1,Eu1Zn2Sb2,460.5,0.000013827,0.0015851,0.00015063,1.9694,0.42437,72322.2680263253,0.0008048644
10954,10.1007/s11664-015-4303-6,5134,3(a),6472,x=1,Eu1Zn2Sb2,461,0.000013835,0.0015861,0.00015074,1.968,0.42545,72280.4481387785,0.0008059451
10954,10.1007/s11664-015-4303-6,5134,3(a),6472,x=1,Eu1Zn2Sb2,461.5,0.000013843,0.0015872,0.00015084,1.9666,0.42653,72238.6765874449,0.0008070782
10954,10.1007/s11664-015-4303-6,5134,3(a),6472,x=1,Eu1Zn2Sb2,462,0.000013851,0.0015882,0.00015094,1.9652,0.42761,72196.9532885712,0.000808162
10954,10.1007/s11664-015-4303-6,5134,3(a),6472,x=1,Eu1Zn2Sb2,462.5,0.000013859,0.0015892,0.00015104,1.9637,0.42869,72155.2781585973,0.0008092886
10954,10.1007/s11664-015-4303-6,5134,3(a),6472,x=1,Eu1Zn2Sb2,463,0.000013867,0.0015903,0.00015114,1.9623,0.42977,72113.6511141559,0.0008104265
10954,10.1007/s11664-015-4303-6,5134,3(a),6472,x=1,Eu1Zn2Sb2,463.5,0.000013876,0.0015913,0.00015125,1.9609,0.43084,72066.8780628423,0.0008115151
10954,10.1007/s11664-015-4303-6,5134,3(a),6472,x=1,Eu1Zn2Sb2,464,0.000013884,0.0015923,0.00015135,1.9595,0.43192,72025.3529242293,0.0008126053
10954,10.1007/s11664-015-4303-6,5134,3(a),6472,x=1,Eu1Zn2Sb2,464.5,0.000013892,0.0015934,0.00015145,1.9581,0.433,71983.8756118629,0.000813748
10954,10.1007/s11664-015-4303-6,5134,3(a),6472,x=1,Eu1Zn2Sb2,465,0.0000139,0.0015944,0.00015155,1.9567,0.43408,71942.4460431655,0.0008148413
10954,10.1007/s11664-015-4303-6,5134,3(a),6472,x=1,Eu1Zn2Sb2,465.5,0.000013908,0.0015954,0.00015165,1.9552,0.43516,71901.0641357492,0.0008159779
10954,10.1007/s11664-015-4303-6,5134,3(a),6472,x=1,Eu1Zn2Sb2,466,0.000013916,0.0015964,0.00015175,1.9538,0.43624,71859.7298074159,0.0008170744
10954,10.1007/s11664-015-4303-6,5134,3(a),6472,x=1,Eu1Zn2Sb2,466.5,0.000013924,0.0015975,0.00015186,1.9524,0.43732,71818.4429761563,0.0008182237
10954,10.1007/s11664-015-4303-6,5134,3(a),6472,x=1,Eu1Zn2Sb2,467,0.000013932,0.0015985,0.00015196,1.951,0.4384,71777.2035601493,0.0008193234
10954,10.1007/s11664-015-4303-6,5134,3(a),6472,x=1,Eu1Zn2Sb2,467.5,0.00001394,0.0015995,0.00015206,1.9496,0.43948,71736.0114777618,0.0008204247
10954,10.1007/s11664-015-4303-6,5134,3(a),6472,x=1,Eu1Zn2Sb2,468,0.000013948,0.0016006,0.00015216,1.9481,0.44056,71694.866647548,0.0008216211
10954,10.1007/s11664-015-4303-6,5134,3(a),6472,x=1,Eu1Zn2Sb2,468.5,0.000013956,0.0016016,0.00015226,1.9467,0.44164,71653.7689882488,0.0008227256
10954,10.1007/s11664-015-4303-6,5134,3(a),6472,x=1,Eu1Zn2Sb2,469,0.000013964,0.0016026,0.00015236,1.9453,0.44272,71612.7184187912,0.0008238318
10954,10.1007/s11664-015-4303-6,5134,3(a),6472,x=1,Eu1Zn2Sb2,469.5,0.000013972,0.0016037,0.00015247,1.9439,0.4438,71571.714858288,0.000824991
10954,10.1007/s11664-015-4303-6,5134,3(a),6472,x=1,Eu1Zn2Sb2,470,0.00001398,0.0016047,0.00015257,1.9425,0.44488,71530.7582260372,0.0008261004
10954,10.1007/s11664-015-4303-6,5134,3(a),6472,x=1,Eu1Zn2Sb2,470.5,0.000013988,0.0016057,0.00015267,1.9411,0.44596,71489.8484415213,0.0008272114
10954,10.1007/s11664-015-4303-6,5134,3(a),6472,x=1,Eu1Zn2Sb2,471,0.000013996,0.0016068,0.00015277,1.9396,0.44704,71448.985424407,0.0008284182
10954,10.1007/s11664-015-4303-6,5134,3(a),6472,x=1,Eu1Zn2Sb2,471.5,0.000014004,0.0016078,0.00015287,1.9382,0.44812,71408.1690945444,0.0008295326
10954,10.1007/s11664-015-4303-6,5134,3(a),6472,x=1,Eu1Zn2Sb2,472,0.000014012,0.0016088,0.00015297,1.9368,0.4492,71367.3993719669,0.0008306485
10954,10.1007/s11664-015-4303-6,5134,3(a),6472,x=1,Eu1Zn2Sb2,472.5,0.00001402,0.0016098,0.00015307,1.9354,0.45028,71326.6761768902,0.000831766
10954,10.1007/s11664-015-4303-6,5134,3(a),6472,x=1,Eu1Zn2Sb2,473,0.000014028,0.0016109,0.00015318,1.934,0.45136,71285.999429712,0.0008329369
10954,10.1007/s11664-015-4303-6,5134,3(a),6472,x=1,Eu1Zn2Sb2,473.5,0.000014036,0.0016119,0.00015328,1.9325,0.45244,71245.3690510117,0.0008341009
10954,10.1007/s11664-015-4303-6,5134,3(a),6472,x=1,Eu1Zn2Sb2,474,0.000014044,0.0016129,0.00015338,1.9311,0.45352,71204.7849615494,0.0008352234
10954,10.1007/s11664-015-4303-6,5134,3(a),6472,x=1,Eu1Zn2Sb2,474.5,0.000014052,0.001614,0.00015348,1.9297,0.4546,71164.2470822659,0.0008363994
10954,10.1007/s11664-015-4303-6,5134,3(a),6472,x=1,Eu1Zn2Sb2,475,0.00001406,0.001615,0.00015358,1.9283,0.45568,71123.7553342817,0.0008375253
10954,10.1007/s11664-015-4303-6,5134,3(a),6472,x=1,Eu1Zn2Sb2,475.5,0.000014068,0.001616,0.00015368,1.9269,0.45676,71083.3096388968,0.0008386528
10954,10.1007/s11664-015-4303-6,5134,3(a),6472,x=1,Eu1Zn2Sb2,476,0.000014076,0.0016171,0.00015378,1.9255,0.45784,71042.9099175902,0.0008398338
10954,10.1007/s11664-015-4303-6,5134,3(a),6472,x=1,Eu1Zn2Sb2,476.5,0.000014084,0.0016181,0.00015388,1.924,0.45892,71002.5560920193,0.0008410083
10954,10.1007/s11664-015-4303-6,5134,3(a),6472,x=1,Eu1Zn2Sb2,477,0.000014092,0.0016191,0.00015399,1.9226,0.46,70962.2480840193,0.0008421409
10954,10.1007/s11664-015-4303-6,5134,3(a),6472,x=1,Eu1Zn2Sb2,477.5,0.0000141,0.0016202,0.00015409,1.9212,0.46108,70921.9858156028,0.0008433271
10954,10.1007/s11664-015-4303-6,5134,3(a),6472,x=1,Eu1Zn2Sb2,478,0.000014108,0.0016212,0.00015419,1.9198,0.46216,70881.7692089595,0.000844463
10954,10.1007/s11664-015-4303-6,5134,3(a),6472,x=1,Eu1Zn2Sb2,478.5,0.000014117,0.0016222,0.00015429,1.9184,0.46324,70836.5800099171,0.0008456005
10954,10.1007/s11664-015-4303-6,5134,3(a),6472,x=1,Eu1Zn2Sb2,479,0.000014125,0.0016232,0.00015439,1.9169,0.46432,70796.4601769912,0.0008467839
10954,10.1007/s11664-015-4303-6,5134,3(a),6472,x=1,Eu1Zn2Sb2,479.5,0.000014133,0.0016243,0.00015449,1.9155,0.4654,70756.3857638152,0.000847977
10954,10.1007/s11664-015-4303-6,5134,3(a),6472,x=1,Eu1Zn2Sb2,480,0.000014141,0.0016253,0.00015459,1.9141,0.46648,70716.3566933032,0.0008491197
10954,10.1007/s11664-015-4303-6,5134,3(a),6472,x=1,Eu1Zn2Sb2,480.5,0.000014149,0.0016263,0.00015469,1.9127,0.46756,70676.3728885434,0.000850264
10954,10.1007/s11664-015-4303-6,5134,3(a),6472,x=1,Eu1Zn2Sb2,481,0.000014157,0.0016274,0.00015479,1.9113,0.46863,70636.4342727979,0.0008514624
10954,10.1007/s11664-015-4303-6,5134,3(a),6472,x=1,Eu1Zn2Sb2,481.5,0.000014165,0.0016284,0.00015489,1.9099,0.46971,70596.5407695023,0.0008526101
10954,10.1007/s11664-015-4303-6,5134,3(a),6472,x=1,Eu1Zn2Sb2,482,0.000014173,0.0016294,0.00015499,1.9084,0.47079,70556.6923022649,0.0008538042
10954,10.1007/s11664-015-4303-6,5134,3(a),6472,x=1,Eu1Zn2Sb2,482.5,0.000014181,0.0016305,0.0001551,1.907,0.47187,70516.8887948664,0.0008550079
10954,10.1007/s11664-015-4303-6,5134,3(a),6472,x=1,Eu1Zn2Sb2,483,0.000014189,0.0016315,0.0001552,1.9056,0.47295,70477.1301712594,0.0008561608
10954,10.1007/s11664-015-4303-6,5134,3(a),6472,x=1,Eu1Zn2Sb2,483.5,0.000014197,0.0016325,0.0001553,1.9042,0.47403,70437.4163555681,0.0008573154
10954,10.1007/s11664-015-4303-6,5134,3(a),6472,x=1,Eu1Zn2Sb2,484,0.000014205,0.0016336,0.0001554,1.9028,0.47511,70397.7472720873,0.0008585243
10954,10.1007/s11664-015-4303-6,5134,3(a),6472,x=1,Eu1Zn2Sb2,484.5,0.000014213,0.0016346,0.0001555,1.9013,0.47619,70358.1228452825,0.0008597276
10954,10.1007/s11664-015-4303-6,5134,3(a),6472,x=1,Eu1Zn2Sb2,485,0.000014221,0.0016356,0.0001556,1.8999,0.47727,70318.542999789,0.0008608874
10954,10.1007/s11664-015-4303-6,5134,3(a),6472,x=1,Eu1Zn2Sb2,485.5,0.000014229,0.0016366,0.0001557,1.8985,0.47835,70279.0076604118,0.000862049
10954,10.1007/s11664-015-4303-6,5134,3(a),6472,x=1,Eu1Zn2Sb2,486,0.000014237,0.0016377,0.0001558,1.8971,0.47943,70239.5167521247,0.000863265
10954,10.1007/s11664-015-4303-6,5134,3(a),6472,x=1,Eu1Zn2Sb2,486.5,0.000014245,0.0016387,0.0001559,1.8957,0.48051,70200.0702000702,0.00086443
10954,10.1007/s11664-015-4303-6,5134,3(a),6472,x=1,Eu1Zn2Sb2,487,0.000014253,0.0016397,0.000156,1.8943,0.48159,70160.6679295587,0.0008655968
10954,10.1007/s11664-015-4303-6,5134,3(a),6472,x=1,Eu1Zn2Sb2,487.5,0.000014261,0.0016408,0.0001561,1.8928,0.48267,70121.3098660683,0.0008668639
10954,10.1007/s11664-015-4303-6,5134,3(a),6472,x=1,Eu1Zn2Sb2,488,0.000014269,0.0016418,0.0001562,1.8914,0.48375,70081.9959352442,0.0008680343
10954,10.1007/s11664-015-4303-6,5134,3(a),6472,x=1,Eu1Zn2Sb2,488.5,0.000014277,0.0016428,0.0001563,1.89,0.48483,70042.7260628984,0.0008692063
10954,10.1007/s11664-015-4303-6,5134,3(a),6472,x=1,Eu1Zn2Sb2,489,0.000014285,0.0016439,0.0001564,1.8886,0.48591,70003.5001750088,0.0008704331
10954,10.1007/s11664-015-4303-6,5134,3(a),6472,x=1,Eu1Zn2Sb2,489.5,0.000014293,0.0016449,0.0001565,1.8872,0.48699,69964.3181977192,0.0008716087
10954,10.1007/s11664-015-4303-6,5134,3(a),6472,x=1,Eu1Zn2Sb2,490,0.000014301,0.0016459,0.0001566,1.8857,0.48807,69925.1800573386,0.0008728324
10954,10.1007/s11664-015-4303-6,5134,3(a),6472,x=1,Eu1Zn2Sb2,490.5,0.000014309,0.001647,0.0001567,1.8843,0.48915,69886.085680341,0.0008740646
10954,10.1007/s11664-015-4303-6,5134,3(a),6472,x=1,Eu1Zn2Sb2,491,0.000014317,0.001648,0.0001568,1.8829,0.49023,69847.0349933645,0.0008752456
10954,10.1007/s11664-015-4303-6,5134,3(a),6472,x=1,Eu1Zn2Sb2,491.5,0.000014325,0.001649,0.0001569,1.8815,0.49131,69808.0279232112,0.0008764284
10954,10.1007/s11664-015-4303-6,5134,3(a),6472,x=1,Eu1Zn2Sb2,492,0.000014333,0.00165,0.00015701,1.8801,0.49239,69769.0643968464,0.0008776129
10954,10.1007/s11664-015-4303-6,5134,3(a),6472,x=1,Eu1Zn2Sb2,492.5,0.000014341,0.0016511,0.00015711,1.8787,0.49347,69730.1443413988,0.0008788524
10954,10.1007/s11664-015-4303-6,5134,3(a),6472,x=1,Eu1Zn2Sb2,493,0.00001435,0.0016521,0.00015721,1.8772,0.49455,69686.4111498258,0.0008800874
10954,10.1007/s11664-015-4303-6,5134,3(a),6472,x=1,Eu1Zn2Sb2,493.5,0.000014358,0.0016531,0.00015731,1.8758,0.49563,69647.583228862,0.0008812773
10954,10.1007/s11664-015-4303-6,5134,3(a),6472,x=1,Eu1Zn2Sb2,494,0.000014366,0.0016542,0.00015741,1.8744,0.49671,69608.798552137,0.0008825224
10954,10.1007/s11664-015-4303-6,5134,3(a),6472,x=1,Eu1Zn2Sb2,494.5,0.000014374,0.0016552,0.00015751,1.873,0.49779,69570.0570474468,0.000883716
10954,10.1007/s11664-015-4303-6,5134,3(a),6472,x=1,Eu1Zn2Sb2,495,0.000014382,0.0016562,0.00015761,1.8716,0.49887,69531.3586427479,0.0008849113
10954,10.1007/s11664-015-4303-6,5134,3(a),6472,x=1,Eu1Zn2Sb2,495.5,0.00001439,0.0016573,0.00015771,1.8701,0.49995,69492.7032661571,0.0008862093
10954,10.1007/s11664-015-4303-6,5134,3(a),6472,x=1,Eu1Zn2Sb2,496,0.000014398,0.0016583,0.00015781,1.8687,0.50103,69454.0908459508,0.0008874084
10954,10.1007/s11664-015-4303-6,5134,3(a),6472,x=1,Eu1Zn2Sb2,496.5,0.000014406,0.0016593,0.00015791,1.8673,0.50211,69415.521310565,0.0008886092
10954,10.1007/s11664-015-4303-6,5134,3(a),6472,x=1,Eu1Zn2Sb2,497,0.000014414,0.0016604,0.00015801,1.8659,0.50319,69376.9945885944,0.0008898655
10954,10.1007/s11664-015-4303-6,5134,3(a),6472,x=1,Eu1Zn2Sb2,497.5,0.000014422,0.0016614,0.00015811,1.8645,0.50427,69338.5106087921,0.00089107
10954,10.1007/s11664-015-4303-6,5134,3(a),6472,x=1,Eu1Zn2Sb2,498,0.00001443,0.0016624,0.00015821,1.8631,0.50535,69300.0693000693,0.0008922763
10954,10.1007/s11664-015-4303-6,5134,3(a),6472,x=1,Eu1Zn2Sb2,498.5,0.000014438,0.0016634,0.00015831,1.8616,0.50642,69261.6705914947,0.0008935324
10954,10.1007/s11664-015-4303-6,5134,3(a),6472,x=1,Eu1Zn2Sb2,499,0.000014446,0.0016645,0.00015841,1.8602,0.5075,69223.3144122941,0.0008947963
10954,10.1007/s11664-015-4303-6,5134,3(a),6472,x=1,Eu1Zn2Sb2,499.5,0.000014454,0.0016655,0.00015851,1.8588,0.50858,69185.00069185,0.0008960082
10954,10.1007/s11664-015-4303-6,5134,3(a),6472,x=1,Eu1Zn2Sb2,500,0.000014462,0.0016665,0.00015861,1.8574,0.50966,69146.7293597013,0.0008972219
10954,10.1007/s11664-015-4303-6,5134,3(a),6472,x=1,Eu1Zn2Sb2,500.5,0.00001447,0.0016676,0.0001587,1.856,0.51074,69108.5003455425,0.0008984914
10954,10.1007/s11664-015-4303-6,5134,3(a),6472,x=1,Eu1Zn2Sb2,501,0.000014478,0.0016686,0.0001588,1.8545,0.51182,69070.3135792237,0.0008997573
10954,10.1007/s11664-015-4303-6,5134,3(a),6472,x=1,Eu1Zn2Sb2,501.5,0.000014486,0.0016696,0.0001589,1.8531,0.5129,69032.1689907497,0.0009009767
10954,10.1007/s11664-015-4303-6,5134,3(a),6472,x=1,Eu1Zn2Sb2,502,0.000014494,0.0016707,0.000159,1.8517,0.51398,68994.0665102801,0.000902252