sid,DOI,figureid,fignum,sampleid,samplename,composition,Temperature,Electrical resistivity,Power factor,Seebeck coefficient,Thermal conductivity,ZT,Electrical conductivity,Figure of merit Z
10954,10.1007/s11664-015-4303-6,5134,3(a),6467,x=0,Ca1Zn2Sb2,503.5,0.0000395,0.00065515,0.0001616,2.789,0.13399,25316.4556962025,0.000234905
10954,10.1007/s11664-015-4303-6,5134,3(a),6467,x=0,Ca1Zn2Sb2,504,0.000039522,0.00065553,0.00016169,2.7871,0.13426,25302.3632407267,0.0002352015
10954,10.1007/s11664-015-4303-6,5134,3(a),6467,x=0,Ca1Zn2Sb2,504.5,0.000039543,0.00065591,0.00016178,2.7852,0.13454,25288.9259793137,0.0002354983
10954,10.1007/s11664-015-4303-6,5134,3(a),6467,x=0,Ca1Zn2Sb2,505,0.000039565,0.00065629,0.00016187,2.7833,0.13481,25274.8641476052,0.0002357956
10954,10.1007/s11664-015-4303-6,5134,3(a),6467,x=0,Ca1Zn2Sb2,505.5,0.000039586,0.00065668,0.00016197,2.7813,0.13508,25261.4560703279,0.0002361054
10954,10.1007/s11664-015-4303-6,5134,3(a),6467,x=0,Ca1Zn2Sb2,506,0.000039608,0.00065706,0.00016206,2.7794,0.13536,25247.4247626742,0.0002364035
10954,10.1007/s11664-015-4303-6,5134,3(a),6467,x=0,Ca1Zn2Sb2,506.5,0.000039629,0.00065744,0.00016215,2.7775,0.13563,25234.045774559,0.0002367021
10954,10.1007/s11664-015-4303-6,5134,3(a),6467,x=0,Ca1Zn2Sb2,507,0.00003965,0.00065782,0.00016224,2.7756,0.1359,25220.6809583859,0.000237001
10954,10.1007/s11664-015-4303-6,5134,3(a),6467,x=0,Ca1Zn2Sb2,507.5,0.000039672,0.00065821,0.00016233,2.7737,0.13618,25206.694898165,0.000237304
10954,10.1007/s11664-015-4303-6,5134,3(a),6467,x=0,Ca1Zn2Sb2,508,0.000039693,0.00065859,0.00016242,2.7718,0.13645,25193.3590305595,0.0002376037
10954,10.1007/s11664-015-4303-6,5134,3(a),6467,x=0,Ca1Zn2Sb2,508.5,0.000039715,0.00065897,0.00016252,2.7698,0.13672,25179.403248143,0.0002379125
10954,10.1007/s11664-015-4303-6,5134,3(a),6467,x=0,Ca1Zn2Sb2,509,0.000039736,0.00065935,0.00016261,2.7679,0.137,25166.096235152,0.0002382131
10954,10.1007/s11664-015-4303-6,5134,3(a),6467,x=0,Ca1Zn2Sb2,509.5,0.000039757,0.00065974,0.0001627,2.766,0.13727,25152.8032799255,0.0002385177
10954,10.1007/s11664-015-4303-6,5134,3(a),6467,x=0,Ca1Zn2Sb2,510,0.000039779,0.00066012,0.00016279,2.7641,0.13755,25138.8923804017,0.0002388191
10954,10.1007/s11664-015-4303-6,5134,3(a),6467,x=0,Ca1Zn2Sb2,510.5,0.0000398,0.0006605,0.00016288,2.7622,0.13782,25125.6281407035,0.000239121
10954,10.1007/s11664-015-4303-6,5134,3(a),6467,x=0,Ca1Zn2Sb2,511,0.000039822,0.00066088,0.00016297,2.7603,0.13809,25111.7472753754,0.0002394233
10954,10.1007/s11664-015-4303-6,5134,3(a),6467,x=0,Ca1Zn2Sb2,511.5,0.000039843,0.00066127,0.00016307,2.7583,0.13837,25098.5116582587,0.0002397382
10954,10.1007/s11664-015-4303-6,5134,3(a),6467,x=0,Ca1Zn2Sb2,512,0.000039865,0.00066165,0.00016316,2.7564,0.13864,25084.6607299636,0.0002400414
10954,10.1007/s11664-015-4303-6,5134,3(a),6467,x=0,Ca1Zn2Sb2,512.5,0.000039886,0.00066203,0.00016325,2.7545,0.13891,25071.4536428822,0.0002403449
10954,10.1007/s11664-015-4303-6,5134,3(a),6467,x=0,Ca1Zn2Sb2,513,0.000039907,0.00066241,0.00016334,2.7526,0.13919,25058.2604555592,0.0002406488
10954,10.1007/s11664-015-4303-6,5134,3(a),6467,x=0,Ca1Zn2Sb2,513.5,0.000039929,0.00066279,0.00016343,2.7507,0.13946,25044.4539056826,0.0002409532
10954,10.1007/s11664-015-4303-6,5134,3(a),6467,x=0,Ca1Zn2Sb2,514,0.00003995,0.00066318,0.00016352,2.7488,0.13973,25031.2891113892,0.0002412616
10954,10.1007/s11664-015-4303-6,5134,3(a),6467,x=0,Ca1Zn2Sb2,514.5,0.000039972,0.00066356,0.00016362,2.7468,0.14001,25017.512258581,0.0002415757
10954,10.1007/s11664-015-4303-6,5134,3(a),6467,x=0,Ca1Zn2Sb2,515,0.000039993,0.00066394,0.00016371,2.7449,0.14028,25004.375765759,0.0002418813
10954,10.1007/s11664-015-4303-6,5134,3(a),6467,x=0,Ca1Zn2Sb2,515.5,0.000040015,0.00066432,0.0001638,2.743,0.14056,24990.6285143071,0.0002421874
10954,10.1007/s11664-015-4303-6,5134,3(a),6467,x=0,Ca1Zn2Sb2,516,0.000040036,0.00066471,0.00016389,2.7411,0.14083,24977.5202317914,0.0002424975
10954,10.1007/s11664-015-4303-6,5134,3(a),6467,x=0,Ca1Zn2Sb2,516.5,0.000040057,0.00066509,0.00016398,2.7392,0.1411,24964.4256933869,0.0002428045
10954,10.1007/s11664-015-4303-6,5134,3(a),6467,x=0,Ca1Zn2Sb2,517,0.000040079,0.00066547,0.00016407,2.7373,0.14138,24950.7223234113,0.0002431118
10954,10.1007/s11664-015-4303-6,5134,3(a),6467,x=0,Ca1Zn2Sb2,517.5,0.0000401,0.00066585,0.00016416,2.7353,0.14165,24937.6558603491,0.0002434285
10954,10.1007/s11664-015-4303-6,5134,3(a),6467,x=0,Ca1Zn2Sb2,518,0.000040122,0.00066624,0.00016426,2.7334,0.14192,24923.9818553412,0.0002437404
10954,10.1007/s11664-015-4303-6,5134,3(a),6467,x=0,Ca1Zn2Sb2,518.5,0.000040143,0.00066662,0.00016435,2.7315,0.1422,24910.9433774257,0.0002440491
10954,10.1007/s11664-015-4303-6,5134,3(a),6467,x=0,Ca1Zn2Sb2,519,0.000040164,0.000667,0.00016444,2.7296,0.14247,24897.9185340106,0.0002443581
10954,10.1007/s11664-015-4303-6,5134,3(a),6467,x=0,Ca1Zn2Sb2,519.5,0.000040186,0.00066738,0.00016453,2.7277,0.14274,24884.2880605186,0.0002446677
10954,10.1007/s11664-015-4303-6,5134,3(a),6467,x=0,Ca1Zn2Sb2,520,0.000040207,0.00066776,0.00016462,2.7258,0.14302,24871.2910687194,0.0002449776
10954,10.1007/s11664-015-4303-6,5134,3(a),6467,x=0,Ca1Zn2Sb2,520.5,0.000040229,0.00066815,0.00016471,2.7238,0.14329,24857.6897263168,0.0002453007
10954,10.1007/s11664-015-4303-6,5134,3(a),6467,x=0,Ca1Zn2Sb2,521,0.00004025,0.00066853,0.00016481,2.7219,0.14357,24844.7204968944,0.0002456115
10954,10.1007/s11664-015-4303-6,5134,3(a),6467,x=0,Ca1Zn2Sb2,521.5,0.000040272,0.00066891,0.0001649,2.72,0.14384,24831.1481922924,0.0002459228
10954,10.1007/s11664-015-4303-6,5134,3(a),6467,x=0,Ca1Zn2Sb2,522,0.000040293,0.00066929,0.00016499,2.7181,0.14411,24818.2066363885,0.0002462345
10954,10.1007/s11664-015-4303-6,5134,3(a),6467,x=0,Ca1Zn2Sb2,522.5,0.000040314,0.00066968,0.00016508,2.7162,0.14439,24805.2785632783,0.0002465503
10954,10.1007/s11664-015-4303-6,5134,3(a),6467,x=0,Ca1Zn2Sb2,523,0.000040336,0.00067006,0.00016517,2.7143,0.14466,24791.749305831,0.0002468629
10954,10.1007/s11664-015-4303-6,5134,3(a),6467,x=0,Ca1Zn2Sb2,523.5,0.000040357,0.00067044,0.00016526,2.7123,0.14493,24778.8487746859,0.000247185
10954,10.1007/s11664-015-4303-6,5134,3(a),6467,x=0,Ca1Zn2Sb2,524,0.000040379,0.00067082,0.00016536,2.7104,0.14521,24765.3483246242,0.0002474985
10954,10.1007/s11664-015-4303-6,5134,3(a),6467,x=0,Ca1Zn2Sb2,524.5,0.0000404,0.00067121,0.00016545,2.7085,0.14548,24752.4752475248,0.0002478161
10954,10.1007/s11664-015-4303-6,5134,3(a),6467,x=0,Ca1Zn2Sb2,525,0.000040422,0.00067159,0.00016554,2.7066,0.14575,24739.0035129385,0.0002481305
10954,10.1007/s11664-015-4303-6,5134,3(a),6467,x=0,Ca1Zn2Sb2,525.5,0.000040443,0.00067197,0.00016563,2.7047,0.14603,24726.1578023391,0.0002484453
10954,10.1007/s11664-015-4303-6,5134,3(a),6467,x=0,Ca1Zn2Sb2,526,0.000040464,0.00067235,0.00016572,2.7028,0.1463,24713.3254250692,0.0002487605
10954,10.1007/s11664-015-4303-6,5134,3(a),6467,x=0,Ca1Zn2Sb2,526.5,0.000040486,0.00067274,0.00016581,2.7009,0.14657,24699.8962604357,0.0002490799
10954,10.1007/s11664-015-4303-6,5134,3(a),6467,x=0,Ca1Zn2Sb2,527,0.000040507,0.00067312,0.00016591,2.6989,0.14685,24687.0911200533,0.0002494053
10954,10.1007/s11664-015-4303-6,5134,3(a),6467,x=0,Ca1Zn2Sb2,527.5,0.000040529,0.0006735,0.000166,2.697,0.14712,24673.6904438797,0.0002497219
10954,10.1007/s11664-015-4303-6,5134,3(a),6467,x=0,Ca1Zn2Sb2,528,0.00004055,0.00067388,0.00016609,2.6951,0.1474,24660.9124537608,0.000250039
10954,10.1007/s11664-015-4303-6,5134,3(a),6467,x=0,Ca1Zn2Sb2,528.5,0.000040571,0.00067426,0.00016618,2.6932,0.14767,24648.147691701,0.0002503565
10954,10.1007/s11664-015-4303-6,5134,3(a),6467,x=0,Ca1Zn2Sb2,529,0.000040593,0.00067465,0.00016627,2.6913,0.14794,24634.789249378,0.0002506781
10954,10.1007/s11664-015-4303-6,5134,3(a),6467,x=0,Ca1Zn2Sb2,529.5,0.000040614,0.00067503,0.00016636,2.6894,0.14822,24622.0515093318,0.0002509965
10954,10.1007/s11664-015-4303-6,5134,3(a),6467,x=0,Ca1Zn2Sb2,530,0.000040636,0.00067541,0.00016646,2.6874,0.14849,24608.7213308396,0.0002513247
10954,10.1007/s11664-015-4303-6,5134,3(a),6467,x=0,Ca1Zn2Sb2,530.5,0.000040657,0.00067579,0.00016655,2.6855,0.14876,24596.0105270925,0.000251644
10954,10.1007/s11664-015-4303-6,5134,3(a),6467,x=0,Ca1Zn2Sb2,531,0.000040679,0.00067618,0.00016664,2.6836,0.14904,24582.708522825,0.0002519675
10954,10.1007/s11664-015-4303-6,5134,3(a),6467,x=0,Ca1Zn2Sb2,531.5,0.0000407,0.00067656,0.00016673,2.6817,0.14931,24570.0245700246,0.0002522877
10954,10.1007/s11664-015-4303-6,5134,3(a),6467,x=0,Ca1Zn2Sb2,532,0.000040721,0.00067694,0.00016682,2.6798,0.14958,24557.3536995653,0.0002526084
10954,10.1007/s11664-015-4303-6,5134,3(a),6467,x=0,Ca1Zn2Sb2,532.5,0.000040743,0.00067732,0.00016691,2.6779,0.14986,24544.0934639079,0.0002529295
10954,10.1007/s11664-015-4303-6,5134,3(a),6467,x=0,Ca1Zn2Sb2,533,0.000040764,0.00067771,0.00016701,2.6759,0.15013,24531.4493180257,0.0002532643
10954,10.1007/s11664-015-4303-6,5134,3(a),6467,x=0,Ca1Zn2Sb2,533.5,0.000040786,0.00067809,0.0001671,2.674,0.15041,24518.2170352572,0.0002535864
10954,10.1007/s11664-015-4303-6,5134,3(a),6467,x=0,Ca1Zn2Sb2,534,0.000040807,0.00067847,0.00016719,2.6721,0.15068,24505.5995294925,0.0002539089
10954,10.1007/s11664-015-4303-6,5134,3(a),6467,x=0,Ca1Zn2Sb2,534.5,0.000040829,0.00067885,0.00016728,2.6702,0.15095,24492.3951113179,0.0002542319
10954,10.1007/s11664-015-4303-6,5134,3(a),6467,x=0,Ca1Zn2Sb2,535,0.00004085,0.00067923,0.00016737,2.6683,0.15123,24479.8041615667,0.0002545553
10954,10.1007/s11664-015-4303-6,5134,3(a),6467,x=0,Ca1Zn2Sb2,535.5,0.000040871,0.00067962,0.00016746,2.6664,0.1515,24467.2261505713,0.000254883
10954,10.1007/s11664-015-4303-6,5134,3(a),6467,x=0,Ca1Zn2Sb2,536,0.000040893,0.00068,0.00016756,2.6644,0.15177,24454.0630425745,0.0002552169
10954,10.1007/s11664-015-4303-6,5134,3(a),6467,x=0,Ca1Zn2Sb2,536.5,0.000040914,0.00068038,0.00016765,2.6625,0.15205,24441.5114630689,0.0002555418
10954,10.1007/s11664-015-4303-6,5134,3(a),6467,x=0,Ca1Zn2Sb2,537,0.000040936,0.00068076,0.00016774,2.6606,0.15232,24428.3760015634,0.0002558671
10954,10.1007/s11664-015-4303-6,5134,3(a),6467,x=0,Ca1Zn2Sb2,537.5,0.000040957,0.00068115,0.00016783,2.6587,0.15259,24415.8507703201,0.0002561966
10954,10.1007/s11664-015-4303-6,5134,3(a),6467,x=0,Ca1Zn2Sb2,538,0.000040979,0.00068153,0.00016792,2.6568,0.15287,24402.7428682984,0.0002565229
10954,10.1007/s11664-015-4303-6,5134,3(a),6467,x=0,Ca1Zn2Sb2,538.5,0.000041,0.00068191,0.00016801,2.6549,0.15314,24390.243902439,0.0002568496
10954,10.1007/s11664-015-4303-6,5134,3(a),6467,x=0,Ca1Zn2Sb2,539,0.000041021,0.00068229,0.00016811,2.6529,0.15342,24377.7577338436,0.0002571865
10954,10.1007/s11664-015-4303-6,5134,3(a),6467,x=0,Ca1Zn2Sb2,539.5,0.000041043,0.00068268,0.0001682,2.651,0.15369,24364.6906902517,0.0002575179
10954,10.1007/s11664-015-4303-6,5134,3(a),6467,x=0,Ca1Zn2Sb2,540,0.000041064,0.00068306,0.00016829,2.6491,0.15396,24352.2306643289,0.0002578461
10954,10.1007/s11664-015-4303-6,5134,3(a),6467,x=0,Ca1Zn2Sb2,540.5,0.000041086,0.00068344,0.00016838,2.6472,0.15424,24339.1909652923,0.0002581747
10954,10.1007/s11664-015-4303-6,5134,3(a),6467,x=0,Ca1Zn2Sb2,541,0.000041107,0.00068382,0.00016847,2.6453,0.15451,24326.7570000243,0.0002585038
10954,10.1007/s11664-015-4303-6,5134,3(a),6467,x=0,Ca1Zn2Sb2,541.5,0.000041128,0.00068421,0.00016856,2.6434,0.15478,24314.3357323478,0.0002588371
10954,10.1007/s11664-015-4303-6,5134,3(a),6467,x=0,Ca1Zn2Sb2,542,0.00004115,0.00068459,0.00016866,2.6414,0.15506,24301.3365735115,0.000259177
10954,10.1007/s11664-015-4303-6,5134,3(a),6467,x=0,Ca1Zn2Sb2,542.5,0.000041171,0.00068497,0.00016875,2.6395,0.15533,24288.9412450511,0.0002595075
10954,10.1007/s11664-015-4303-6,5134,3(a),6467,x=0,Ca1Zn2Sb2,543,0.000041193,0.00068535,0.00016884,2.6376,0.1556,24275.969218071,0.0002598385
10954,10.1007/s11664-015-4303-6,5134,3(a),6467,x=0,Ca1Zn2Sb2,543.5,0.000041214,0.00068573,0.00016893,2.6357,0.15588,24263.5997476586,0.00026017
10954,10.1007/s11664-015-4303-6,5134,3(a),6467,x=0,Ca1Zn2Sb2,544,0.000041236,0.00068612,0.00016902,2.6338,0.15615,24250.6547676787,0.0002605057
10954,10.1007/s11664-015-4303-6,5134,3(a),6467,x=0,Ca1Zn2Sb2,544.5,0.000041257,0.0006865,0.00016911,2.6319,0.15643,24238.3110744843,0.0002608382
10954,10.1007/s11664-015-4303-6,5134,3(a),6467,x=0,Ca1Zn2Sb2,545,0.000041278,0.00068688,0.00016921,2.6299,0.1567,24225.9799408886,0.000261181
10954,10.1007/s11664-015-4303-6,5134,3(a),6467,x=0,Ca1Zn2Sb2,545.5,0.0000413,0.00068726,0.0001693,2.628,0.15697,24213.0750605327,0.0002615145
10954,10.1007/s11664-015-4303-6,5134,3(a),6467,x=0,Ca1Zn2Sb2,546,0.000041321,0.00068765,0.00016939,2.6261,0.15725,24200.7695844728,0.0002618522
10954,10.1007/s11664-015-4303-6,5134,3(a),6467,x=0,Ca1Zn2Sb2,546.5,0.000041343,0.00068803,0.00016948,2.6242,0.15752,24187.8915414943,0.0002621866
10954,10.1007/s11664-015-4303-6,5134,3(a),6467,x=0,Ca1Zn2Sb2,547,0.000041364,0.00068841,0.00016957,2.6223,0.15779,24175.6116429746,0.0002625215
10954,10.1007/s11664-015-4303-6,5134,3(a),6467,x=0,Ca1Zn2Sb2,547.5,0.000041386,0.00068879,0.00016966,2.6204,0.15807,24162.7603537428,0.0002628568
10954,10.1007/s11664-015-4303-6,5134,3(a),6467,x=0,Ca1Zn2Sb2,548,0.000041407,0.00068918,0.00016976,2.6184,0.15834,24150.5059530997,0.0002632065
10954,10.1007/s11664-015-4303-6,5134,3(a),6467,x=0,Ca1Zn2Sb2,548.5,0.000041428,0.00068956,0.00016985,2.6165,0.15861,24138.2639760548,0.0002635429
10954,10.1007/s11664-015-4303-6,5134,3(a),6467,x=0,Ca1Zn2Sb2,549,0.00004145,0.00068994,0.00016994,2.6146,0.15889,24125.4523522316,0.0002638798
10954,10.1007/s11664-015-4303-6,5134,3(a),6467,x=0,Ca1Zn2Sb2,549.5,0.000041471,0.00069032,0.00017003,2.6127,0.15916,24113.235755106,0.0002642171
10954,10.1007/s11664-015-4303-6,5134,3(a),6467,x=0,Ca1Zn2Sb2,550,0.000041493,0.00069071,0.00017012,2.6108,0.15943,24100.4506784277,0.0002645588
10954,10.1007/s11664-015-4303-6,5134,3(a),6467,x=0,Ca1Zn2Sb2,550.5,0.000041514,0.00069109,0.00017021,2.6089,0.15971,24088.259382377,0.0002648971
10954,10.1007/s11664-015-4303-6,5134,3(a),6467,x=0,Ca1Zn2Sb2,551,0.000041535,0.00069147,0.0001703,2.6069,0.15998,24076.0804141086,0.0002652461
10954,10.1007/s11664-015-4303-6,5134,3(a),6467,x=0,Ca1Zn2Sb2,551.5,0.000041557,0.00069185,0.0001704,2.605,0.16026,24063.3346969223,0.0002655854
10954,10.1007/s11664-015-4303-6,5134,3(a),6467,x=0,Ca1Zn2Sb2,552,0.000041578,0.00069223,0.00017049,2.6031,0.16053,24051.1809129828,0.0002659252
10954,10.1007/s11664-015-4303-6,5134,3(a),6467,x=0,Ca1Zn2Sb2,552.5,0.0000416,0.00069262,0.00017058,2.6012,0.1608,24038.4615384615,0.0002662694
10954,10.1007/s11664-015-4303-6,5134,3(a),6467,x=0,Ca1Zn2Sb2,553,0.000041621,0.000693,0.00017067,2.5993,0.16108,24026.3328608155,0.0002666102
10954,10.1007/s11664-015-4303-6,5134,3(a),6467,x=0,Ca1Zn2Sb2,553.5,0.000041643,0.00069338,0.00017076,2.5974,0.16135,24013.6397473765,0.0002669516
10954,10.1007/s11664-015-4303-6,5134,3(a),6467,x=0,Ca1Zn2Sb2,554,0.000041664,0.00069376,0.00017085,2.5954,0.16162,24001.5360983103,0.0002673037
10954,10.1007/s11664-015-4303-6,5134,3(a),6467,x=0,Ca1Zn2Sb2,554.5,0.000041685,0.00069415,0.00017095,2.5935,0.1619,23989.4446443565,0.0002676499
10954,10.1007/s11664-015-4303-6,5134,3(a),6467,x=0,Ca1Zn2Sb2,555,0.000041707,0.00069453,0.00017104,2.5916,0.16217,23976.7904668281,0.0002679927
10954,10.1007/s11664-015-4303-6,5134,3(a),6467,x=0,Ca1Zn2Sb2,555.5,0.000041728,0.00069491,0.00017113,2.5897,0.16244,23964.7239263804,0.0002683361
10954,10.1007/s11664-015-4303-6,5134,3(a),6467,x=0,Ca1Zn2Sb2,556,0.00004175,0.00069529,0.00017122,2.5878,0.16272,23952.0958083832,0.00026868
10954,10.1007/s11664-015-4303-6,5134,3(a),6467,x=0,Ca1Zn2Sb2,556.5,0.000041771,0.00069568,0.00017131,2.5859,0.16299,23940.0541045223,0.0002690282
10954,10.1007/s11664-015-4303-6,5134,3(a),6467,x=0,Ca1Zn2Sb2,557,0.000041793,0.00069606,0.0001714,2.584,0.16327,23927.4519656402,0.0002693731
10954,10.1007/s11664-015-4303-6,5134,3(a),6467,x=0,Ca1Zn2Sb2,557.5,0.000041814,0.00069644,0.0001715,2.582,0.16354,23915.435021763,0.0002697289
10954,10.1007/s11664-015-4303-6,5134,3(a),6467,x=0,Ca1Zn2Sb2,558,0.000041835,0.00069682,0.00017159,2.5801,0.16381,23903.4301422254,0.0002700748
10954,10.1007/s11664-015-4303-6,5134,3(a),6467,x=0,Ca1Zn2Sb2,558.5,0.000041857,0.0006972,0.00017168,2.5782,0.16409,23890.8665217287,0.0002704212
10954,10.1007/s11664-015-4303-6,5134,3(a),6467,x=0,Ca1Zn2Sb2,559,0.000041878,0.00069759,0.00017177,2.5763,0.16436,23878.8862887435,0.000270772
10954,10.1007/s11664-015-4303-6,5134,3(a),6467,x=0,Ca1Zn2Sb2,559.5,0.0000419,0.00069797,0.00017186,2.5744,0.16463,23866.3484486873,0.0002711195
10954,10.1007/s11664-015-4303-6,5134,3(a),6467,x=0,Ca1Zn2Sb2,560,0.000041921,0.00069835,0.00017195,2.5725,0.16491,23854.3927864316,0.0002714674
10954,10.1007/s11664-015-4303-6,5134,3(a),6467,x=0,Ca1Zn2Sb2,560.5,0.000041942,0.00069873,0.00017205,2.5705,0.16518,23842.4490963712,0.0002718265
10954,10.1007/s11664-015-4303-6,5134,3(a),6467,x=0,Ca1Zn2Sb2,561,0.000041964,0.00069912,0.00017214,2.5686,0.16545,23829.9494805071,0.0002721794
10954,10.1007/s11664-015-4303-6,5134,3(a),6467,x=0,Ca1Zn2Sb2,561.5,0.000041985,0.0006995,0.00017223,2.5667,0.16573,23818.0302488984,0.0002725289
10954,10.1007/s11664-015-4303-6,5134,3(a),6467,x=0,Ca1Zn2Sb2,562,0.000042007,0.00069988,0.00017232,2.5648,0.166,23805.556216821,0.000272879
10954,10.1007/s11664-015-4303-6,5134,3(a),6467,x=0,Ca1Zn2Sb2,562.5,0.000042028,0.00070026,0.00017241,2.5629,0.16628,23793.6613686114,0.0002732295
10954,10.1007/s11664-015-4303-6,5134,3(a),6467,x=0,Ca1Zn2Sb2,563,0.00004205,0.00070065,0.0001725,2.561,0.16655,23781.2128418549,0.0002735845
10954,10.1007/s11664-015-4303-6,5134,3(a),6467,x=0,Ca1Zn2Sb2,563.5,0.000042071,0.00070103,0.0001726,2.559,0.16682,23769.3423022985,0.0002739469
10954,10.1007/s11664-015-4303-6,5134,3(a),6467,x=0,Ca1Zn2Sb2,564,0.000042092,0.00070141,0.00017269,2.5571,0.1671,23757.4836073363,0.000274299
10954,10.1007/s11664-015-4303-6,5134,3(a),6467,x=0,Ca1Zn2Sb2,564.5,0.000042114,0.00070179,0.00017278,2.5552,0.16737,23745.0728973738,0.0002746517
10954,10.1007/s11664-015-4303-6,5134,3(a),6467,x=0,Ca1Zn2Sb2,565,0.000042135,0.00070218,0.00017287,2.5533,0.16764,23733.2384003797,0.0002750088
10954,10.1007/s11664-015-4303-6,5134,3(a),6467,x=0,Ca1Zn2Sb2,565.5,0.000042157,0.00070256,0.00017296,2.5514,0.16792,23720.8530018739,0.0002753625
10954,10.1007/s11664-015-4303-6,5134,3(a),6467,x=0,Ca1Zn2Sb2,566,0.000042178,0.00070294,0.00017305,2.5495,0.16819,23709.0426288586,0.0002757168
10954,10.1007/s11664-015-4303-6,5134,3(a),6467,x=0,Ca1Zn2Sb2,566.5,0.0000422,0.00070332,0.00017315,2.5475,0.16846,23696.682464455,0.0002760824
10954,10.1007/s11664-015-4303-6,5134,3(a),6467,x=0,Ca1Zn2Sb2,567,0.000042221,0.0007037,0.00017324,2.5456,0.16874,23684.8961417304,0.0002764378
10954,10.1007/s11664-015-4303-6,5134,3(a),6467,x=0,Ca1Zn2Sb2,567.5,0.000042242,0.00070409,0.00017333,2.5437,0.16901,23673.121537806,0.0002767976
10954,10.1007/s11664-015-4303-6,5134,3(a),6467,x=0,Ca1Zn2Sb2,568,0.000042264,0.00070447,0.00017342,2.5418,0.16929,23660.7987885671,0.000277154
10954,10.1007/s11664-015-4303-6,5134,3(a),6467,x=0,Ca1Zn2Sb2,568.5,0.000042285,0.00070485,0.00017351,2.5399,0.16956,23649.0481258129,0.0002775109
10954,10.1007/s11664-015-4303-6,5134,3(a),6467,x=0,Ca1Zn2Sb2,569,0.000042307,0.00070523,0.0001736,2.538,0.16983,23636.7504195523,0.0002778684
10954,10.1007/s11664-015-4303-6,5134,3(a),6467,x=0,Ca1Zn2Sb2,569.5,0.000042328,0.00070562,0.0001737,2.536,0.17011,23625.0236250236,0.0002782413
10954,10.1007/s11664-015-4303-6,5134,3(a),6467,x=0,Ca1Zn2Sb2,570,0.00004235,0.000706,0.00017379,2.5341,0.17038,23612.7508854782,0.0002785999
10954,10.1007/s11664-015-4303-6,5134,3(a),6467,x=0,Ca1Zn2Sb2,570.5,0.000042371,0.00070638,0.00017388,2.5322,0.17065,23601.0478865262,0.000278959
10954,10.1007/s11664-015-4303-6,5134,3(a),6467,x=0,Ca1Zn2Sb2,571,0.000042392,0.00070676,0.00017397,2.5303,0.17093,23589.3564823552,0.0002793187
10954,10.1007/s11664-015-4303-6,5134,3(a),6467,x=0,Ca1Zn2Sb2,571.5,0.000042414,0.00070715,0.00017406,2.5284,0.1712,23577.1207620125,0.0002796828