sid,DOI,figureid,fignum,sampleid,samplename,composition,Temperature,Electrical resistivity,Power factor,Seebeck coefficient,Thermal conductivity,ZT,Electrical conductivity,Figure of merit Z
10954,10.1007/s11664-015-4303-6,5134,3(a),6467,x=0,Ca1Zn2Sb2,435,0.000036566,0.00060277,0.00014904,3.0516,0.096503,27347.8094404638,0.0001975259
10954,10.1007/s11664-015-4303-6,5134,3(a),6467,x=0,Ca1Zn2Sb2,435.5,0.000036587,0.00060315,0.00014914,3.0496,0.096777,27332.112498975,0.00019778
10954,10.1007/s11664-015-4303-6,5134,3(a),6467,x=0,Ca1Zn2Sb2,436,0.000036608,0.00060353,0.00014923,3.0477,0.09705,27316.4335664336,0.000198028
10954,10.1007/s11664-015-4303-6,5134,3(a),6467,x=0,Ca1Zn2Sb2,436.5,0.00003663,0.00060391,0.00014932,3.0458,0.097324,27300.0273000273,0.0001982763
10954,10.1007/s11664-015-4303-6,5134,3(a),6467,x=0,Ca1Zn2Sb2,437,0.000036651,0.0006043,0.00014941,3.0439,0.097597,27284.3851463807,0.0001985282
10954,10.1007/s11664-015-4303-6,5134,3(a),6467,x=0,Ca1Zn2Sb2,437.5,0.000036673,0.00060468,0.0001495,3.042,0.097871,27268.017342459,0.0001987771
10954,10.1007/s11664-015-4303-6,5134,3(a),6467,x=0,Ca1Zn2Sb2,438,0.000036694,0.00060506,0.00014959,3.0401,0.098145,27252.4118384477,0.0001990263
10954,10.1007/s11664-015-4303-6,5134,3(a),6467,x=0,Ca1Zn2Sb2,438.5,0.000036716,0.00060544,0.00014969,3.0381,0.098418,27236.0823619131,0.0001992824
10954,10.1007/s11664-015-4303-6,5134,3(a),6467,x=0,Ca1Zn2Sb2,439,0.000036737,0.00060583,0.00014978,3.0362,0.098692,27220.5133788823,0.0001995356
10954,10.1007/s11664-015-4303-6,5134,3(a),6467,x=0,Ca1Zn2Sb2,439.5,0.000036758,0.00060621,0.00014987,3.0343,0.098966,27204.9621851026,0.0001997858
10954,10.1007/s11664-015-4303-6,5134,3(a),6467,x=0,Ca1Zn2Sb2,440,0.00003678,0.00060659,0.00014996,3.0324,0.099239,27188.6895051659,0.0002000363
10954,10.1007/s11664-015-4303-6,5134,3(a),6467,x=0,Ca1Zn2Sb2,440.5,0.000036801,0.00060697,0.00015005,3.0305,0.099513,27173.1746419934,0.0002002871
10954,10.1007/s11664-015-4303-6,5134,3(a),6467,x=0,Ca1Zn2Sb2,441,0.000036823,0.00060736,0.00015014,3.0286,0.099786,27156.9399560058,0.0002005415
10954,10.1007/s11664-015-4303-6,5134,3(a),6467,x=0,Ca1Zn2Sb2,441.5,0.000036844,0.00060774,0.00015024,3.0266,0.10006,27141.4612962762,0.0002007996
10954,10.1007/s11664-015-4303-6,5134,3(a),6467,x=0,Ca1Zn2Sb2,442,0.000036866,0.00060812,0.00015033,3.0247,0.10033,27125.2644713286,0.0002010513
10954,10.1007/s11664-015-4303-6,5134,3(a),6467,x=0,Ca1Zn2Sb2,442.5,0.000036887,0.0006085,0.00015042,3.0228,0.10061,27109.8218884702,0.0002013034
10954,10.1007/s11664-015-4303-6,5134,3(a),6467,x=0,Ca1Zn2Sb2,443,0.000036908,0.00060888,0.00015051,3.0209,0.10088,27094.3968787255,0.0002015558
10954,10.1007/s11664-015-4303-6,5134,3(a),6467,x=0,Ca1Zn2Sb2,443.5,0.00003693,0.00060927,0.0001506,3.019,0.10115,27078.2561603033,0.0002018119
10954,10.1007/s11664-015-4303-6,5134,3(a),6467,x=0,Ca1Zn2Sb2,444,0.000036951,0.00060965,0.00015069,3.0171,0.10143,27062.8670401342,0.0002020649
10954,10.1007/s11664-015-4303-6,5134,3(a),6467,x=0,Ca1Zn2Sb2,444.5,0.000036973,0.00061003,0.00015079,3.0151,0.1017,27046.7638547048,0.000202325
10954,10.1007/s11664-015-4303-6,5134,3(a),6467,x=0,Ca1Zn2Sb2,445,0.000036994,0.00061041,0.00015088,3.0132,0.10198,27031.4104989998,0.0002025787
10954,10.1007/s11664-015-4303-6,5134,3(a),6467,x=0,Ca1Zn2Sb2,445.5,0.000037015,0.0006108,0.00015097,3.0113,0.10225,27016.0745643658,0.000202836
10954,10.1007/s11664-015-4303-6,5134,3(a),6467,x=0,Ca1Zn2Sb2,446,0.000037037,0.00061118,0.00015106,3.0094,0.10252,27000.027000027,0.0002030903
10954,10.1007/s11664-015-4303-6,5134,3(a),6467,x=0,Ca1Zn2Sb2,446.5,0.000037058,0.00061156,0.00015115,3.0075,0.1028,26984.7266447191,0.000203345
10954,10.1007/s11664-015-4303-6,5134,3(a),6467,x=0,Ca1Zn2Sb2,447,0.00003708,0.00061194,0.00015124,3.0056,0.10307,26968.7162891046,0.0002035999
10954,10.1007/s11664-015-4303-6,5134,3(a),6467,x=0,Ca1Zn2Sb2,447.5,0.000037101,0.00061233,0.00015133,3.0036,0.10334,26953.4513894504,0.0002038654
10954,10.1007/s11664-015-4303-6,5134,3(a),6467,x=0,Ca1Zn2Sb2,448,0.000037123,0.00061271,0.00015143,3.0017,0.10362,26937.478113299,0.000204121
10954,10.1007/s11664-015-4303-6,5134,3(a),6467,x=0,Ca1Zn2Sb2,448.5,0.000037144,0.00061309,0.00015152,2.9998,0.10389,26922.2485461986,0.000204377
10954,10.1007/s11664-015-4303-6,5134,3(a),6467,x=0,Ca1Zn2Sb2,449,0.000037165,0.00061347,0.00015161,2.9979,0.10416,26907.0361899637,0.0002046332
10954,10.1007/s11664-015-4303-6,5134,3(a),6467,x=0,Ca1Zn2Sb2,449.5,0.000037187,0.00061386,0.0001517,2.996,0.10444,26891.1178637696,0.0002048932
10954,10.1007/s11664-015-4303-6,5134,3(a),6467,x=0,Ca1Zn2Sb2,450,0.000037208,0.00061424,0.00015179,2.9941,0.10471,26875.940657923,0.0002051501
10954,10.1007/s11664-015-4303-6,5134,3(a),6467,x=0,Ca1Zn2Sb2,450.5,0.00003723,0.00061462,0.00015188,2.9921,0.10499,26860.05909213,0.0002054143
10954,10.1007/s11664-015-4303-6,5134,3(a),6467,x=0,Ca1Zn2Sb2,451,0.000037251,0.000615,0.00015198,2.9902,0.10526,26844.9169149822,0.0002056719
10954,10.1007/s11664-015-4303-6,5134,3(a),6467,x=0,Ca1Zn2Sb2,451.5,0.000037273,0.00061538,0.00015207,2.9883,0.10553,26829.0719824001,0.0002059298
10954,10.1007/s11664-015-4303-6,5134,3(a),6467,x=0,Ca1Zn2Sb2,452,0.000037294,0.00061577,0.00015216,2.9864,0.10581,26813.9647128224,0.0002061914
10954,10.1007/s11664-015-4303-6,5134,3(a),6467,x=0,Ca1Zn2Sb2,452.5,0.000037315,0.00061615,0.00015225,2.9845,0.10608,26798.8744472732,0.00020645
10954,10.1007/s11664-015-4303-6,5134,3(a),6467,x=0,Ca1Zn2Sb2,453,0.000037337,0.00061653,0.00015234,2.9826,0.10635,26783.0838042692,0.0002067089
10954,10.1007/s11664-015-4303-6,5134,3(a),6467,x=0,Ca1Zn2Sb2,453.5,0.000037358,0.00061691,0.00015243,2.9806,0.10663,26768.0282670379,0.0002069751
10954,10.1007/s11664-015-4303-6,5134,3(a),6467,x=0,Ca1Zn2Sb2,454,0.00003738,0.0006173,0.00015253,2.9787,0.1069,26752.2739432852,0.0002072381
10954,10.1007/s11664-015-4303-6,5134,3(a),6467,x=0,Ca1Zn2Sb2,454.5,0.000037401,0.00061768,0.00015262,2.9768,0.10717,26737.2530146253,0.000207498
10954,10.1007/s11664-015-4303-6,5134,3(a),6467,x=0,Ca1Zn2Sb2,455,0.000037422,0.00061806,0.00015271,2.9749,0.10745,26722.2489444712,0.0002077582
10954,10.1007/s11664-015-4303-6,5134,3(a),6467,x=0,Ca1Zn2Sb2,455.5,0.000037444,0.00061844,0.0001528,2.973,0.10772,26706.5484456789,0.0002080188
10954,10.1007/s11664-015-4303-6,5134,3(a),6467,x=0,Ca1Zn2Sb2,456,0.000037465,0.00061883,0.00015289,2.9711,0.10799,26691.5788068864,0.0002082831
10954,10.1007/s11664-015-4303-6,5134,3(a),6467,x=0,Ca1Zn2Sb2,456.5,0.000037487,0.00061921,0.00015298,2.9691,0.10827,26675.9143169632,0.0002085514
10954,10.1007/s11664-015-4303-6,5134,3(a),6467,x=0,Ca1Zn2Sb2,457,0.000037508,0.00061959,0.00015308,2.9672,0.10854,26660.9789911486,0.000208813
10954,10.1007/s11664-015-4303-6,5134,3(a),6467,x=0,Ca1Zn2Sb2,457.5,0.00003753,0.00061997,0.00015317,2.9653,0.10882,26645.3503863576,0.000209075
10954,10.1007/s11664-015-4303-6,5134,3(a),6467,x=0,Ca1Zn2Sb2,458,0.000037551,0.00062035,0.00015326,2.9634,0.10909,26630.4492556789,0.0002093372
10954,10.1007/s11664-015-4303-6,5134,3(a),6467,x=0,Ca1Zn2Sb2,458.5,0.000037572,0.00062074,0.00015335,2.9615,0.10936,26615.5647822847,0.0002096032
10954,10.1007/s11664-015-4303-6,5134,3(a),6467,x=0,Ca1Zn2Sb2,459,0.000037594,0.00062112,0.00015344,2.9596,0.10964,26599.9893600043,0.0002098662
10954,10.1007/s11664-015-4303-6,5134,3(a),6467,x=0,Ca1Zn2Sb2,459.5,0.000037615,0.0006215,0.00015353,2.9576,0.10991,26585.1389073508,0.0002101366
10954,10.1007/s11664-015-4303-6,5134,3(a),6467,x=0,Ca1Zn2Sb2,460,0.000037637,0.00062188,0.00015363,2.9557,0.11018,26569.5990647501,0.0002104002
10954,10.1007/s11664-015-4303-6,5134,3(a),6467,x=0,Ca1Zn2Sb2,460.5,0.000037658,0.00062227,0.00015372,2.9538,0.11046,26554.7825163312,0.0002106676
10954,10.1007/s11664-015-4303-6,5134,3(a),6467,x=0,Ca1Zn2Sb2,461,0.00003768,0.00062265,0.00015381,2.9519,0.11073,26539.2781316348,0.0002109319
10954,10.1007/s11664-015-4303-6,5134,3(a),6467,x=0,Ca1Zn2Sb2,461.5,0.000037701,0.00062303,0.0001539,2.95,0.111,26524.4953714756,0.0002111966
10954,10.1007/s11664-015-4303-6,5134,3(a),6467,x=0,Ca1Zn2Sb2,462,0.000037722,0.00062341,0.00015399,2.9481,0.11128,26509.7290705689,0.0002114616
10954,10.1007/s11664-015-4303-6,5134,3(a),6467,x=0,Ca1Zn2Sb2,462.5,0.000037744,0.0006238,0.00015408,2.9462,0.11155,26494.277236117,0.0002117304
10954,10.1007/s11664-015-4303-6,5134,3(a),6467,x=0,Ca1Zn2Sb2,463,0.000037765,0.00062418,0.00015418,2.9442,0.11183,26479.5445518337,0.0002120033
10954,10.1007/s11664-015-4303-6,5134,3(a),6467,x=0,Ca1Zn2Sb2,463.5,0.000037787,0.00062456,0.00015427,2.9423,0.1121,26464.1278746659,0.0002122693
10954,10.1007/s11664-015-4303-6,5134,3(a),6467,x=0,Ca1Zn2Sb2,464,0.000037808,0.00062494,0.00015436,2.9404,0.11237,26449.4286923402,0.0002125357
10954,10.1007/s11664-015-4303-6,5134,3(a),6467,x=0,Ca1Zn2Sb2,464.5,0.00003783,0.00062533,0.00015445,2.9385,0.11265,26434.0470526038,0.0002128059
10954,10.1007/s11664-015-4303-6,5134,3(a),6467,x=0,Ca1Zn2Sb2,465,0.000037851,0.00062571,0.00015454,2.9366,0.11292,26419.3812580909,0.0002130729
10954,10.1007/s11664-015-4303-6,5134,3(a),6467,x=0,Ca1Zn2Sb2,465.5,0.000037872,0.00062609,0.00015463,2.9347,0.11319,26404.7317279256,0.0002133404
10954,10.1007/s11664-015-4303-6,5134,3(a),6467,x=0,Ca1Zn2Sb2,466,0.000037894,0.00062647,0.00015473,2.9327,0.11347,26389.4020161503,0.0002136154
10954,10.1007/s11664-015-4303-6,5134,3(a),6467,x=0,Ca1Zn2Sb2,466.5,0.000037915,0.00062685,0.00015482,2.9308,0.11374,26374.7857048661,0.0002138836
10954,10.1007/s11664-015-4303-6,5134,3(a),6467,x=0,Ca1Zn2Sb2,467,0.000037937,0.00062724,0.00015491,2.9289,0.11401,26359.490734639,0.0002141555
10954,10.1007/s11664-015-4303-6,5134,3(a),6467,x=0,Ca1Zn2Sb2,467.5,0.000037958,0.00062762,0.000155,2.927,0.11429,26344.9075293746,0.0002144243
10954,10.1007/s11664-015-4303-6,5134,3(a),6467,x=0,Ca1Zn2Sb2,468,0.000037979,0.000628,0.00015509,2.9251,0.11456,26330.340451302,0.0002146935
10954,10.1007/s11664-015-4303-6,5134,3(a),6467,x=0,Ca1Zn2Sb2,468.5,0.000038001,0.00062838,0.00015518,2.9232,0.11484,26315.0969711323,0.0002149631
10954,10.1007/s11664-015-4303-6,5134,3(a),6467,x=0,Ca1Zn2Sb2,469,0.000038022,0.00062877,0.00015528,2.9212,0.11511,26300.5628320446,0.0002152437
10954,10.1007/s11664-015-4303-6,5134,3(a),6467,x=0,Ca1Zn2Sb2,469.5,0.000038044,0.00062915,0.00015537,2.9193,0.11538,26285.3538008622,0.000215514
10954,10.1007/s11664-015-4303-6,5134,3(a),6467,x=0,Ca1Zn2Sb2,470,0.000038065,0.00062953,0.00015546,2.9174,0.11566,26270.8524891633,0.0002157846
10954,10.1007/s11664-015-4303-6,5134,3(a),6467,x=0,Ca1Zn2Sb2,470.5,0.000038087,0.00062991,0.00015555,2.9155,0.11593,26255.6777903222,0.0002160556
10954,10.1007/s11664-015-4303-6,5134,3(a),6467,x=0,Ca1Zn2Sb2,471,0.000038108,0.0006303,0.00015564,2.9136,0.1162,26241.2091949197,0.0002163303
10954,10.1007/s11664-015-4303-6,5134,3(a),6467,x=0,Ca1Zn2Sb2,471.5,0.000038129,0.00063068,0.00015573,2.9117,0.11648,26226.7565370191,0.000216602
10954,10.1007/s11664-015-4303-6,5134,3(a),6467,x=0,Ca1Zn2Sb2,472,0.000038151,0.00063106,0.00015583,2.9097,0.11675,26211.6327226023,0.0002168815
10954,10.1007/s11664-015-4303-6,5134,3(a),6467,x=0,Ca1Zn2Sb2,472.5,0.000038172,0.00063144,0.00015592,2.9078,0.11702,26197.2126165776,0.0002171539
10954,10.1007/s11664-015-4303-6,5134,3(a),6467,x=0,Ca1Zn2Sb2,473,0.000038194,0.00063182,0.00015601,2.9059,0.1173,26182.1228465204,0.0002174266
10954,10.1007/s11664-015-4303-6,5134,3(a),6467,x=0,Ca1Zn2Sb2,473.5,0.000038215,0.00063221,0.0001561,2.904,0.11757,26167.73518252,0.0002177032
10954,10.1007/s11664-015-4303-6,5134,3(a),6467,x=0,Ca1Zn2Sb2,474,0.000038237,0.00063259,0.00015619,2.9021,0.11785,26152.6793419986,0.0002179766
10954,10.1007/s11664-015-4303-6,5134,3(a),6467,x=0,Ca1Zn2Sb2,474.5,0.000038258,0.00063297,0.00015628,2.9002,0.11812,26138.3240106644,0.0002182505
10954,10.1007/s11664-015-4303-6,5134,3(a),6467,x=0,Ca1Zn2Sb2,475,0.000038279,0.00063335,0.00015638,2.8982,0.11839,26123.9844301053,0.0002185322
10954,10.1007/s11664-015-4303-6,5134,3(a),6467,x=0,Ca1Zn2Sb2,475.5,0.000038301,0.00063374,0.00015647,2.8963,0.11867,26108.9788778361,0.0002188102
10954,10.1007/s11664-015-4303-6,5134,3(a),6467,x=0,Ca1Zn2Sb2,476,0.000038322,0.00063412,0.00015656,2.8944,0.11894,26094.6714680862,0.0002190851
10954,10.1007/s11664-015-4303-6,5134,3(a),6467,x=0,Ca1Zn2Sb2,476.5,0.000038344,0.0006345,0.00015665,2.8925,0.11921,26079.699561861,0.0002193604
10954,10.1007/s11664-015-4303-6,5134,3(a),6467,x=0,Ca1Zn2Sb2,477,0.000038365,0.00063488,0.00015674,2.8906,0.11949,26065.4242147791,0.0002196361
10954,10.1007/s11664-015-4303-6,5134,3(a),6467,x=0,Ca1Zn2Sb2,477.5,0.000038386,0.00063527,0.00015683,2.8887,0.11976,26051.1644870526,0.0002199155
10954,10.1007/s11664-015-4303-6,5134,3(a),6467,x=0,Ca1Zn2Sb2,478,0.000038408,0.00063565,0.00015693,2.8867,0.12003,26036.2424494897,0.0002201995
10954,10.1007/s11664-015-4303-6,5134,3(a),6467,x=0,Ca1Zn2Sb2,478.5,0.000038429,0.00063603,0.00015702,2.8848,0.12031,26022.0146243722,0.0002204763
10954,10.1007/s11664-015-4303-6,5134,3(a),6467,x=0,Ca1Zn2Sb2,479,0.000038451,0.00063641,0.00015711,2.8829,0.12058,26007.125952511,0.0002207534
10954,10.1007/s11664-015-4303-6,5134,3(a),6467,x=0,Ca1Zn2Sb2,479.5,0.000038472,0.0006368,0.0001572,2.881,0.12085,25992.9299230609,0.0002210344
10954,10.1007/s11664-015-4303-6,5134,3(a),6467,x=0,Ca1Zn2Sb2,480,0.000038494,0.00063718,0.00015729,2.8791,0.12113,25978.0745051177,0.0002213122
10954,10.1007/s11664-015-4303-6,5134,3(a),6467,x=0,Ca1Zn2Sb2,480.5,0.000038515,0.00063756,0.00015738,2.8772,0.1214,25963.9101648708,0.0002215904
10954,10.1007/s11664-015-4303-6,5134,3(a),6467,x=0,Ca1Zn2Sb2,481,0.000038536,0.00063794,0.00015747,2.8752,0.12168,25949.7612621964,0.0002218767
10954,10.1007/s11664-015-4303-6,5134,3(a),6467,x=0,Ca1Zn2Sb2,481.5,0.000038558,0.00063832,0.00015757,2.8733,0.12195,25934.9551325276,0.0002221557
10954,10.1007/s11664-015-4303-6,5134,3(a),6467,x=0,Ca1Zn2Sb2,482,0.000038579,0.00063871,0.00015766,2.8714,0.12222,25920.8377614765,0.0002224385
10954,10.1007/s11664-015-4303-6,5134,3(a),6467,x=0,Ca1Zn2Sb2,482.5,0.000038601,0.00063909,0.00015775,2.8695,0.1225,25906.0646097251,0.0002227182
10954,10.1007/s11664-015-4303-6,5134,3(a),6467,x=0,Ca1Zn2Sb2,483,0.000038622,0.00063947,0.00015784,2.8676,0.12277,25891.9786650096,0.0002229983
10954,10.1007/s11664-015-4303-6,5134,3(a),6467,x=0,Ca1Zn2Sb2,483.5,0.000038644,0.00063985,0.00015793,2.8657,0.12304,25877.23838112,0.0002232788
10954,10.1007/s11664-015-4303-6,5134,3(a),6467,x=0,Ca1Zn2Sb2,484,0.000038665,0.00064024,0.00015802,2.8637,0.12332,25863.1837579206,0.0002235709
10954,10.1007/s11664-015-4303-6,5134,3(a),6467,x=0,Ca1Zn2Sb2,484.5,0.000038686,0.00064062,0.00015812,2.8618,0.12359,25849.1443933206,0.0002238521
10954,10.1007/s11664-015-4303-6,5134,3(a),6467,x=0,Ca1Zn2Sb2,485,0.000038708,0.000641,0.00015821,2.8599,0.12386,25834.4528262891,0.0002241337
10954,10.1007/s11664-015-4303-6,5134,3(a),6467,x=0,Ca1Zn2Sb2,485.5,0.000038729,0.00064138,0.0001583,2.858,0.12414,25820.4446280565,0.0002244157
10954,10.1007/s11664-015-4303-6,5134,3(a),6467,x=0,Ca1Zn2Sb2,486,0.000038751,0.00064177,0.00015839,2.8561,0.12441,25805.7856571443,0.0002247015
10954,10.1007/s11664-015-4303-6,5134,3(a),6467,x=0,Ca1Zn2Sb2,486.5,0.000038772,0.00064215,0.00015848,2.8542,0.12469,25791.8085216135,0.0002249842
10954,10.1007/s11664-015-4303-6,5134,3(a),6467,x=0,Ca1Zn2Sb2,487,0.000038793,0.00064253,0.00015857,2.8522,0.12496,25777.8465187018,0.0002252752
10954,10.1007/s11664-015-4303-6,5134,3(a),6467,x=0,Ca1Zn2Sb2,487.5,0.000038815,0.00064291,0.00015867,2.8503,0.12523,25763.2358624243,0.0002255587
10954,10.1007/s11664-015-4303-6,5134,3(a),6467,x=0,Ca1Zn2Sb2,488,0.000038836,0.0006433,0.00015876,2.8484,0.12551,25749.3047687712,0.0002258461
10954,10.1007/s11664-015-4303-6,5134,3(a),6467,x=0,Ca1Zn2Sb2,488.5,0.000038858,0.00064368,0.00015885,2.8465,0.12578,25734.7264398579,0.0002261303
10954,10.1007/s11664-015-4303-6,5134,3(a),6467,x=0,Ca1Zn2Sb2,489,0.000038879,0.00064406,0.00015894,2.8446,0.12605,25720.826152936,0.000226415
10954,10.1007/s11664-015-4303-6,5134,3(a),6467,x=0,Ca1Zn2Sb2,489.5,0.000038901,0.00064444,0.00015903,2.8427,0.12633,25706.2800442148,0.0002267
10954,10.1007/s11664-015-4303-6,5134,3(a),6467,x=0,Ca1Zn2Sb2,490,0.000038922,0.00064482,0.00015912,2.8407,0.1266,25692.4104619495,0.0002269933
10954,10.1007/s11664-015-4303-6,5134,3(a),6467,x=0,Ca1Zn2Sb2,490.5,0.000038943,0.00064521,0.00015922,2.8388,0.12687,25678.5558380197,0.0002272827
10954,10.1007/s11664-015-4303-6,5134,3(a),6467,x=0,Ca1Zn2Sb2,491,0.000038965,0.00064559,0.00015931,2.8369,0.12715,25664.0574874888,0.0002275688
10954,10.1007/s11664-015-4303-6,5134,3(a),6467,x=0,Ca1Zn2Sb2,491.5,0.000038986,0.00064597,0.0001594,2.835,0.12742,25650.2334171241,0.0002278554
10954,10.1007/s11664-015-4303-6,5134,3(a),6467,x=0,Ca1Zn2Sb2,492,0.000039008,0.00064635,0.00015949,2.8331,0.1277,25635.7670221493,0.0002281423
10954,10.1007/s11664-015-4303-6,5134,3(a),6467,x=0,Ca1Zn2Sb2,492.5,0.000039029,0.00064674,0.00015958,2.8312,0.12797,25621.9734043916,0.0002284332
10954,10.1007/s11664-015-4303-6,5134,3(a),6467,x=0,Ca1Zn2Sb2,493,0.000039051,0.00064712,0.00015967,2.8292,0.12824,25607.5388594402,0.000228729
10954,10.1007/s11664-015-4303-6,5134,3(a),6467,x=0,Ca1Zn2Sb2,493.5,0.000039072,0.0006475,0.00015977,2.8273,0.12852,25593.7755937756,0.0002290171
10954,10.1007/s11664-015-4303-6,5134,3(a),6467,x=0,Ca1Zn2Sb2,494,0.000039093,0.00064788,0.00015986,2.8254,0.12879,25580.0271148287,0.0002293056
10954,10.1007/s11664-015-4303-6,5134,3(a),6467,x=0,Ca1Zn2Sb2,494.5,0.000039115,0.00064827,0.00015995,2.8235,0.12906,25565.6397801355,0.000229598
10954,10.1007/s11664-015-4303-6,5134,3(a),6467,x=0,Ca1Zn2Sb2,495,0.000039136,0.00064865,0.00016004,2.8216,0.12934,25551.9215044971,0.0002298873
10954,10.1007/s11664-015-4303-6,5134,3(a),6467,x=0,Ca1Zn2Sb2,495.5,0.000039158,0.00064903,0.00016013,2.8197,0.12961,25537.5657592318,0.000230177
10954,10.1007/s11664-015-4303-6,5134,3(a),6467,x=0,Ca1Zn2Sb2,496,0.000039179,0.00064941,0.00016022,2.8178,0.12988,25523.8775874831,0.000230467
10954,10.1007/s11664-015-4303-6,5134,3(a),6467,x=0,Ca1Zn2Sb2,496.5,0.0000392,0.00064979,0.00016032,2.8158,0.13016,25510.2040816327,0.0002307657
10954,10.1007/s11664-015-4303-6,5134,3(a),6467,x=0,Ca1Zn2Sb2,497,0.000039222,0.00065018,0.00016041,2.8139,0.13043,25495.8951608791,0.0002310601
10954,10.1007/s11664-015-4303-6,5134,3(a),6467,x=0,Ca1Zn2Sb2,497.5,0.000039243,0.00065056,0.0001605,2.812,0.13071,25482.2516117524,0.0002313514
10954,10.1007/s11664-015-4303-6,5134,3(a),6467,x=0,Ca1Zn2Sb2,498,0.000039265,0.00065094,0.00016059,2.8101,0.13098,25467.9740226665,0.000231643
10954,10.1007/s11664-015-4303-6,5134,3(a),6467,x=0,Ca1Zn2Sb2,498.5,0.000039286,0.00065132,0.00016068,2.8082,0.13125,25454.3603319249,0.000231935
10954,10.1007/s11664-015-4303-6,5134,3(a),6467,x=0,Ca1Zn2Sb2,499,0.000039308,0.00065171,0.00016077,2.8063,0.13153,25440.1139717106,0.0002322311
10954,10.1007/s11664-015-4303-6,5134,3(a),6467,x=0,Ca1Zn2Sb2,499.5,0.000039329,0.00065209,0.00016087,2.8043,0.1318,25426.5300414452,0.0002325322
10954,10.1007/s11664-015-4303-6,5134,3(a),6467,x=0,Ca1Zn2Sb2,500,0.00003935,0.00065247,0.00016096,2.8024,0.13207,25412.9606099111,0.0002328254
10954,10.1007/s11664-015-4303-6,5134,3(a),6467,x=0,Ca1Zn2Sb2,500.5,0.000039372,0.00065285,0.00016105,2.8005,0.13235,25398.7605404856,0.0002331191
10954,10.1007/s11664-015-4303-6,5134,3(a),6467,x=0,Ca1Zn2Sb2,501,0.000039393,0.00065324,0.00016114,2.7986,0.13262,25385.2207244942,0.0002334167
10954,10.1007/s11664-015-4303-6,5134,3(a),6467,x=0,Ca1Zn2Sb2,501.5,0.000039415,0.00065362,0.00016123,2.7967,0.13289,25371.0516300901,0.0002337112
10954,10.1007/s11664-015-4303-6,5134,3(a),6467,x=0,Ca1Zn2Sb2,502,0.000039436,0.000654,0.00016132,2.7948,0.13317,25357.5413327924,0.000234006
10954,10.1007/s11664-015-4303-6,5134,3(a),6467,x=0,Ca1Zn2Sb2,502.5,0.000039458,0.00065438,0.00016142,2.7928,0.13344,25343.4031121699,0.0002343097
10954,10.1007/s11664-015-4303-6,5134,3(a),6467,x=0,Ca1Zn2Sb2,503,0.000039479,0.00065477,0.00016151,2.7909,0.13371,25329.9222371387,0.0002346089