sid,DOI,figureid,fignum,sampleid,samplename,composition,Temperature,Electrical resistivity,Power factor,Seebeck coefficient,Thermal conductivity,ZT,Electrical conductivity,Figure of merit Z
73,10.1016/j.actamat.2015.04.023,4591,3(a),5857,x=0,Mg3Sb2,305.5,0.41377,-0.000037452,0.0009071,1.2708,-0.042112,2.4168016048,-0.0000294712
73,10.1016/j.actamat.2015.04.023,4591,3(a),5857,x=0,Mg3Sb2,306,0.41313,-0.000037127,0.00090641,1.2701,-0.041808,2.420545591,-0.0000292316
73,10.1016/j.actamat.2015.04.023,4591,3(a),5857,x=0,Mg3Sb2,306.5,0.41249,-0.000036802,0.00090572,1.2695,-0.041505,2.4243011952,-0.0000289894
73,10.1016/j.actamat.2015.04.023,4591,3(a),5857,x=0,Mg3Sb2,307,0.41184,-0.000036477,0.00090503,1.2689,-0.041201,2.4281274281,-0.0000287469
73,10.1016/j.actamat.2015.04.023,4591,3(a),5857,x=0,Mg3Sb2,307.5,0.4112,-0.000036153,0.00090435,1.2682,-0.040898,2.4319066148,-0.0000285073
73,10.1016/j.actamat.2015.04.023,4591,3(a),5857,x=0,Mg3Sb2,308,0.41056,-0.000035828,0.00090366,1.2676,-0.040594,2.4356975838,-0.0000282644
73,10.1016/j.actamat.2015.04.023,4591,3(a),5857,x=0,Mg3Sb2,308.5,0.40992,-0.000035503,0.00090297,1.267,-0.040291,2.4395003903,-0.0000280213
73,10.1016/j.actamat.2015.04.023,4591,3(a),5857,x=0,Mg3Sb2,309,0.40928,-0.000035178,0.00090228,1.2663,-0.039987,2.4433150899,-0.0000277801
73,10.1016/j.actamat.2015.04.023,4591,3(a),5857,x=0,Mg3Sb2,309.5,0.40864,-0.000034854,0.00090159,1.2657,-0.039684,2.4471417384,-0.0000275373
73,10.1016/j.actamat.2015.04.023,4591,3(a),5857,x=0,Mg3Sb2,310,0.408,-0.000034529,0.0009009,1.2651,-0.03938,2.4509803922,-0.0000272935
73,10.1016/j.actamat.2015.04.023,4591,3(a),5857,x=0,Mg3Sb2,310.5,0.40736,-0.000034204,0.00090021,1.2644,-0.039077,2.4548311076,-0.0000270516
73,10.1016/j.actamat.2015.04.023,4591,3(a),5857,x=0,Mg3Sb2,311,0.40672,-0.000033879,0.00089952,1.2638,-0.038773,2.4586939418,-0.0000268072
73,10.1016/j.actamat.2015.04.023,4591,3(a),5857,x=0,Mg3Sb2,311.5,0.40607,-0.000033555,0.00089883,1.2632,-0.03847,2.4626295959,-0.0000265635
73,10.1016/j.actamat.2015.04.023,4591,3(a),5857,x=0,Mg3Sb2,312,0.40543,-0.00003323,0.00089814,1.2625,-0.038166,2.4665170313,-0.0000263208
73,10.1016/j.actamat.2015.04.023,4591,3(a),5857,x=0,Mg3Sb2,312.5,0.40479,-0.000032905,0.00089745,1.2619,-0.037863,2.4704167593,-0.0000260758
73,10.1016/j.actamat.2015.04.023,4591,3(a),5857,x=0,Mg3Sb2,313,0.40415,-0.00003258,0.00089676,1.2613,-0.037559,2.4743288383,-0.0000258305
73,10.1016/j.actamat.2015.04.023,4591,3(a),5857,x=0,Mg3Sb2,313.5,0.40351,-0.000032256,0.00089607,1.2606,-0.037255,2.4782533271,-0.0000255878
73,10.1016/j.actamat.2015.04.023,4591,3(a),5857,x=0,Mg3Sb2,314,0.40287,-0.000031931,0.00089538,1.26,-0.036952,2.4821902847,-0.0000253421
73,10.1016/j.actamat.2015.04.023,4591,3(a),5857,x=0,Mg3Sb2,314.5,0.40223,-0.000031606,0.00089469,1.2594,-0.036648,2.4861397708,-0.0000250961
73,10.1016/j.actamat.2015.04.023,4591,3(a),5857,x=0,Mg3Sb2,315,0.40159,-0.000031281,0.000894,1.2588,-0.036345,2.4901018452,-0.0000248499
73,10.1016/j.actamat.2015.04.023,4591,3(a),5857,x=0,Mg3Sb2,315.5,0.40095,-0.000030957,0.00089331,1.2581,-0.036041,2.4940765682,-0.0000246062
73,10.1016/j.actamat.2015.04.023,4591,3(a),5857,x=0,Mg3Sb2,316,0.40031,-0.000030632,0.00089262,1.2575,-0.035738,2.4980640004,-0.0000243594
73,10.1016/j.actamat.2015.04.023,4591,3(a),5857,x=0,Mg3Sb2,316.5,0.39966,-0.000030307,0.00089193,1.2569,-0.035434,2.5021268078,-0.0000241125
73,10.1016/j.actamat.2015.04.023,4591,3(a),5857,x=0,Mg3Sb2,317,0.39902,-0.000029982,0.00089124,1.2562,-0.035131,2.5061400431,-0.0000238672
73,10.1016/j.actamat.2015.04.023,4591,3(a),5857,x=0,Mg3Sb2,317.5,0.39838,-0.000029658,0.00089055,1.2556,-0.034827,2.510166173,-0.0000236206
73,10.1016/j.actamat.2015.04.023,4591,3(a),5857,x=0,Mg3Sb2,318,0.39774,-0.000029333,0.00088986,1.255,-0.034524,2.5142052597,-0.0000233729
73,10.1016/j.actamat.2015.04.023,4591,3(a),5857,x=0,Mg3Sb2,318.5,0.3971,-0.000029008,0.00088917,1.2543,-0.03422,2.5182573659,-0.0000231268
73,10.1016/j.actamat.2015.04.023,4591,3(a),5857,x=0,Mg3Sb2,319,0.39646,-0.000028683,0.00088848,1.2537,-0.033917,2.5223225546,-0.0000228787
73,10.1016/j.actamat.2015.04.023,4591,3(a),5857,x=0,Mg3Sb2,319.5,0.39582,-0.000028359,0.0008878,1.2531,-0.033613,2.5264008893,-0.0000226311
73,10.1016/j.actamat.2015.04.023,4591,3(a),5857,x=0,Mg3Sb2,320,0.39518,-0.000028034,0.00088711,1.2524,-0.03331,2.5304924338,-0.0000223842
73,10.1016/j.actamat.2015.04.023,4591,3(a),5857,x=0,Mg3Sb2,320.5,0.39454,-0.000027709,0.00088642,1.2518,-0.033006,2.5345972525,-0.0000221353
73,10.1016/j.actamat.2015.04.023,4591,3(a),5857,x=0,Mg3Sb2,321,0.39389,-0.000027384,0.00088573,1.2512,-0.032702,2.5387798624,-0.0000218862
73,10.1016/j.actamat.2015.04.023,4591,3(a),5857,x=0,Mg3Sb2,321.5,0.39325,-0.00002706,0.00088504,1.2505,-0.032399,2.5429116338,-0.0000216393
73,10.1016/j.actamat.2015.04.023,4591,3(a),5857,x=0,Mg3Sb2,322,0.39261,-0.000026735,0.00088435,1.2499,-0.032095,2.5470568758,-0.0000213897
73,10.1016/j.actamat.2015.04.023,4591,3(a),5857,x=0,Mg3Sb2,322.5,0.39197,-0.00002641,0.00088366,1.2493,-0.031792,2.5512156543,-0.0000211398
73,10.1016/j.actamat.2015.04.023,4591,3(a),5857,x=0,Mg3Sb2,323,0.39133,-0.000026085,0.00088297,1.2486,-0.031488,2.5553880357,-0.0000208914
73,10.1016/j.actamat.2015.04.023,4591,3(a),5857,x=0,Mg3Sb2,323.5,0.39069,-0.000025761,0.00088228,1.248,-0.031185,2.5595740869,-0.0000206418
73,10.1016/j.actamat.2015.04.023,4591,3(a),5857,x=0,Mg3Sb2,324,0.39005,-0.000025436,0.00088159,1.2474,-0.030881,2.5637738751,-0.0000203912
73,10.1016/j.actamat.2015.04.023,4591,3(a),5857,x=0,Mg3Sb2,324.5,0.38941,-0.000025111,0.0008809,1.2467,-0.030578,2.5679874682,-0.000020142
73,10.1016/j.actamat.2015.04.023,4591,3(a),5857,x=0,Mg3Sb2,325,0.38877,-0.000024786,0.00088021,1.2461,-0.030274,2.5722149343,-0.0000198909
73,10.1016/j.actamat.2015.04.023,4591,3(a),5857,x=0,Mg3Sb2,325.5,0.38813,-0.000024462,0.00087952,1.2455,-0.029971,2.5764563419,-0.0000196403
73,10.1016/j.actamat.2015.04.023,4591,3(a),5857,x=0,Mg3Sb2,326,0.38748,-0.000024137,0.00087883,1.2448,-0.029667,2.5807783628,-0.0000193903
73,10.1016/j.actamat.2015.04.023,4591,3(a),5857,x=0,Mg3Sb2,326.5,0.38684,-0.000023812,0.00087814,1.2442,-0.029364,2.5850480819,-0.0000191384
73,10.1016/j.actamat.2015.04.023,4591,3(a),5857,x=0,Mg3Sb2,327,0.3862,-0.000023487,0.00087745,1.2436,-0.02906,2.5893319524,-0.0000188863
73,10.1016/j.actamat.2015.04.023,4591,3(a),5857,x=0,Mg3Sb2,327.5,0.38556,-0.000023163,0.00087676,1.2429,-0.028757,2.5936300446,-0.0000186363
73,10.1016/j.actamat.2015.04.023,4591,3(a),5857,x=0,Mg3Sb2,328,0.38492,-0.000022838,0.00087607,1.2423,-0.028453,2.5979424296,-0.0000183836
73,10.1016/j.actamat.2015.04.023,4591,3(a),5857,x=0,Mg3Sb2,328.5,0.38428,-0.000022513,0.00087538,1.2417,-0.028149,2.6022691787,-0.0000181308
73,10.1016/j.actamat.2015.04.023,4591,3(a),5857,x=0,Mg3Sb2,329,0.38364,-0.000022188,0.00087469,1.241,-0.027846,2.6066103639,-0.0000178791
73,10.1016/j.actamat.2015.04.023,4591,3(a),5857,x=0,Mg3Sb2,329.5,0.383,-0.000021864,0.000874,1.2404,-0.027542,2.6109660574,-0.0000176266
73,10.1016/j.actamat.2015.04.023,4591,3(a),5857,x=0,Mg3Sb2,330,0.38236,-0.000021539,0.00087331,1.2398,-0.027239,2.6153363323,-0.000017373
73,10.1016/j.actamat.2015.04.023,4591,3(a),5857,x=0,Mg3Sb2,330.5,0.38171,-0.000021214,0.00087262,1.2391,-0.026935,2.6197898929,-0.0000171205
73,10.1016/j.actamat.2015.04.023,4591,3(a),5857,x=0,Mg3Sb2,331,0.38107,-0.000020889,0.00087193,1.2385,-0.026632,2.6241897814,-0.0000168664
73,10.1016/j.actamat.2015.04.023,4591,3(a),5857,x=0,Mg3Sb2,331.5,0.38043,-0.000020565,0.00087125,1.2379,-0.026328,2.6286044739,-0.0000166128
73,10.1016/j.actamat.2015.04.023,4591,3(a),5857,x=0,Mg3Sb2,332,0.37979,-0.00002024,0.00087056,1.2372,-0.026025,2.6330340451,-0.0000163595
73,10.1016/j.actamat.2015.04.023,4591,3(a),5857,x=0,Mg3Sb2,332.5,0.37915,-0.000019915,0.00086987,1.2366,-0.025721,2.6374785705,-0.0000161046
73,10.1016/j.actamat.2015.04.023,4591,3(a),5857,x=0,Mg3Sb2,333,0.37851,-0.00001959,0.00086918,1.236,-0.025418,2.6419381258,-0.0000158495
73,10.1016/j.actamat.2015.04.023,4591,3(a),5857,x=0,Mg3Sb2,333.5,0.37787,-0.000019266,0.00086849,1.2353,-0.025114,2.6464127875,-0.0000155962
73,10.1016/j.actamat.2015.04.023,4591,3(a),5857,x=0,Mg3Sb2,334,0.37723,-0.000018941,0.0008678,1.2347,-0.024811,2.6509026323,-0.0000153406
73,10.1016/j.actamat.2015.04.023,4591,3(a),5857,x=0,Mg3Sb2,334.5,0.37659,-0.000018616,0.00086711,1.2341,-0.024507,2.6554077379,-0.0000150847
73,10.1016/j.actamat.2015.04.023,4591,3(a),5857,x=0,Mg3Sb2,335,0.37595,-0.000018291,0.00086642,1.2334,-0.024204,2.6599281819,-0.0000148297
73,10.1016/j.actamat.2015.04.023,4591,3(a),5857,x=0,Mg3Sb2,335.5,0.3753,-0.000017967,0.00086573,1.2328,-0.0239,2.6645350386,-0.0000145741
73,10.1016/j.actamat.2015.04.023,4591,3(a),5857,x=0,Mg3Sb2,336,0.37466,-0.000017642,0.00086504,1.2322,-0.023596,2.6690866386,-0.0000143175
73,10.1016/j.actamat.2015.04.023,4591,3(a),5857,x=0,Mg3Sb2,336.5,0.37402,-0.000017317,0.00086435,1.2316,-0.023293,2.6736538153,-0.0000140606
73,10.1016/j.actamat.2015.04.023,4591,3(a),5857,x=0,Mg3Sb2,337,0.37338,-0.000016992,0.00086366,1.2309,-0.022989,2.678236649,-0.0000138045
73,10.1016/j.actamat.2015.04.023,4591,3(a),5857,x=0,Mg3Sb2,337.5,0.37274,-0.000016668,0.00086297,1.2303,-0.022686,2.6828352203,-0.0000135479
73,10.1016/j.actamat.2015.04.023,4591,3(a),5857,x=0,Mg3Sb2,338,0.3721,-0.000016343,0.00086228,1.2297,-0.022382,2.6874496103,-0.0000132902
73,10.1016/j.actamat.2015.04.023,4591,3(a),5857,x=0,Mg3Sb2,338.5,0.37146,-0.000016018,0.00086159,1.229,-0.022079,2.6920799009,-0.0000130334
73,10.1016/j.actamat.2015.04.023,4591,3(a),5857,x=0,Mg3Sb2,339,0.37082,-0.000015693,0.0008609,1.2284,-0.021775,2.6967261744,-0.0000127752
73,10.1016/j.actamat.2015.04.023,4591,3(a),5857,x=0,Mg3Sb2,339.5,0.37018,-0.000015369,0.00086021,1.2278,-0.021472,2.7013885137,-0.0000125175
73,10.1016/j.actamat.2015.04.023,4591,3(a),5857,x=0,Mg3Sb2,340,0.36953,-0.000015044,0.00085952,1.2271,-0.021168,2.7061402322,-0.0000122598
73,10.1016/j.actamat.2015.04.023,4591,3(a),5857,x=0,Mg3Sb2,340.5,0.36889,-0.000014719,0.00085883,1.2265,-0.020865,2.7108352083,-0.0000120008
73,10.1016/j.actamat.2015.04.023,4591,3(a),5857,x=0,Mg3Sb2,341,0.36825,-0.000014394,0.00085814,1.2259,-0.020561,2.7155465037,-0.0000117416
73,10.1016/j.actamat.2015.04.023,4591,3(a),5857,x=0,Mg3Sb2,341.5,0.36761,-0.00001407,0.00085745,1.2252,-0.020258,2.7202742036,-0.0000114838
73,10.1016/j.actamat.2015.04.023,4591,3(a),5857,x=0,Mg3Sb2,342,0.36697,-0.000013745,0.00085676,1.2246,-0.019954,2.7250183939,-0.0000112241
73,10.1016/j.actamat.2015.04.023,4591,3(a),5857,x=0,Mg3Sb2,342.5,0.36633,-0.00001342,0.00085607,1.224,-0.019651,2.7297791609,-0.0000109641
73,10.1016/j.actamat.2015.04.023,4591,3(a),5857,x=0,Mg3Sb2,343,0.36569,-0.000013095,0.00085538,1.2233,-0.019347,2.7345565916,-0.0000107047
73,10.1016/j.actamat.2015.04.023,4591,3(a),5857,x=0,Mg3Sb2,343.5,0.36505,-0.000012771,0.0008547,1.2227,-0.019043,2.7393507739,-0.0000104449
73,10.1016/j.actamat.2015.04.023,4591,3(a),5857,x=0,Mg3Sb2,344,0.36441,-0.000012446,0.00085401,1.2221,-0.01874,2.7441617958,-0.0000101841
73,10.1016/j.actamat.2015.04.023,4591,3(a),5857,x=0,Mg3Sb2,344.5,0.36376,-0.000012121,0.00085332,1.2214,-0.018436,2.7490653178,-0.0000099239
73,10.1016/j.actamat.2015.04.023,4591,3(a),5857,x=0,Mg3Sb2,345,0.36312,-0.000011797,0.00085263,1.2208,-0.018133,2.753910553,-0.0000096633
73,10.1016/j.actamat.2015.04.023,4591,3(a),5857,x=0,Mg3Sb2,345.5,0.36248,-0.000011472,0.00085194,1.2202,-0.017829,2.7587728978,-0.0000094017
73,10.1016/j.actamat.2015.04.023,4591,3(a),5857,x=0,Mg3Sb2,346,0.36184,-0.000011147,0.00085125,1.2195,-0.017526,2.7636524431,-0.0000091406
73,10.1016/j.actamat.2015.04.023,4591,3(a),5857,x=0,Mg3Sb2,346.5,0.3612,-0.000010822,0.00085056,1.2189,-0.017222,2.7685492802,-0.0000088785
73,10.1016/j.actamat.2015.04.023,4591,3(a),5857,x=0,Mg3Sb2,347,0.36056,-0.000010498,0.00084987,1.2183,-0.016919,2.7734635012,-0.0000086169
73,10.1016/j.actamat.2015.04.023,4591,3(a),5857,x=0,Mg3Sb2,347.5,0.35992,-0.000010173,0.00084918,1.2176,-0.016615,2.7783951989,-0.000008355
73,10.1016/j.actamat.2015.04.023,4591,3(a),5857,x=0,Mg3Sb2,348,0.35928,-0.000009848,0.00084849,1.217,-0.016312,2.7833444667,-0.000008092
73,10.1016/j.actamat.2015.04.023,4591,3(a),5857,x=0,Mg3Sb2,348.5,0.35864,-0.0000095233,0.0008478,1.2164,-0.016008,2.7883113986,-0.0000078291
73,10.1016/j.actamat.2015.04.023,4591,3(a),5857,x=0,Mg3Sb2,349,0.358,-0.0000091985,0.00084711,1.2157,-0.015705,2.7932960894,-0.0000075664
73,10.1016/j.actamat.2015.04.023,4591,3(a),5857,x=0,Mg3Sb2,349.5,0.35735,-0.0000088738,0.00084642,1.2151,-0.015401,2.7983769414,-0.0000073029
73,10.1016/j.actamat.2015.04.023,4591,3(a),5857,x=0,Mg3Sb2,350,0.35671,-0.000008549,0.00084573,1.2145,-0.015098,2.803397718,-0.0000070391
73,10.1016/j.actamat.2015.04.023,4591,3(a),5857,x=0,Mg3Sb2,350.5,0.35607,-0.0000082243,0.00084504,1.2138,-0.014794,2.8084365434,-0.0000067757
73,10.1016/j.actamat.2015.04.023,4591,3(a),5857,x=0,Mg3Sb2,351,0.35543,-0.0000078995,0.00084435,1.2132,-0.01449,2.8134935149,-0.0000065113
73,10.1016/j.actamat.2015.04.023,4591,3(a),5857,x=0,Mg3Sb2,351.5,0.35479,-0.0000075748,0.00084366,1.2126,-0.014187,2.8185687308,-0.0000062467
73,10.1016/j.actamat.2015.04.023,4591,3(a),5857,x=0,Mg3Sb2,352,0.35415,-0.00000725,0.00084297,1.2119,-0.013883,2.82366229,-0.0000059823
73,10.1016/j.actamat.2015.04.023,4591,3(a),5857,x=0,Mg3Sb2,352.5,0.35351,-0.0000069253,0.00084228,1.2113,-0.01358,2.8287742921,-0.0000057172
73,10.1016/j.actamat.2015.04.023,4591,3(a),5857,x=0,Mg3Sb2,353,0.35287,-0.0000066005,0.00084159,1.2107,-0.013276,2.8339048375,-0.0000054518
73,10.1016/j.actamat.2015.04.023,4591,3(a),5857,x=0,Mg3Sb2,353.5,0.35223,-0.0000062758,0.0008409,1.21,-0.012973,2.8390540272,-0.0000051866
73,10.1016/j.actamat.2015.04.023,4591,3(a),5857,x=0,Mg3Sb2,354,0.35158,-0.000005951,0.00084021,1.2094,-0.012669,2.8443028614,-0.0000049206
73,10.1016/j.actamat.2015.04.023,4591,3(a),5857,x=0,Mg3Sb2,354.5,0.35094,-0.0000056263,0.00083952,1.2088,-0.012366,2.8494899413,-0.0000046545
73,10.1016/j.actamat.2015.04.023,4591,3(a),5857,x=0,Mg3Sb2,355,0.3503,-0.0000053015,0.00083883,1.2081,-0.012062,2.8546959749,-0.0000043883
73,10.1016/j.actamat.2015.04.023,4591,3(a),5857,x=0,Mg3Sb2,355.5,0.34966,-0.0000049768,0.00083814,1.2075,-0.011759,2.8599210662,-0.0000041216
73,10.1016/j.actamat.2015.04.023,4591,3(a),5857,x=0,Mg3Sb2,356,0.34902,-0.0000046521,0.00083746,1.2069,-0.011455,2.86516532,-0.0000038546
73,10.1016/j.actamat.2015.04.023,4591,3(a),5857,x=0,Mg3Sb2,356.5,0.34838,-0.0000043273,0.00083677,1.2062,-0.011152,2.8704288421,-0.0000035875
73,10.1016/j.actamat.2015.04.023,4591,3(a),5857,x=0,Mg3Sb2,357,0.34774,-0.0000040026,0.00083608,1.2056,-0.010848,2.8757117387,-0.00000332
73,10.1016/j.actamat.2015.04.023,4591,3(a),5857,x=0,Mg3Sb2,357.5,0.3471,-0.0000036778,0.00083539,1.205,-0.010545,2.881014117,-0.0000030521
73,10.1016/j.actamat.2015.04.023,4591,3(a),5857,x=0,Mg3Sb2,358,0.34646,-0.0000033531,0.0008347,1.2044,-0.010241,2.886336085,-0.000002784
73,10.1016/j.actamat.2015.04.023,4591,3(a),5857,x=0,Mg3Sb2,358.5,0.34582,-0.0000030283,0.00083401,1.2037,-0.0099374,2.8916777514,-0.0000025158
73,10.1016/j.actamat.2015.04.023,4591,3(a),5857,x=0,Mg3Sb2,359,0.34517,-0.0000027036,0.00083332,1.2031,-0.0096339,2.8971231567,-0.0000022472
73,10.1016/j.actamat.2015.04.023,4591,3(a),5857,x=0,Mg3Sb2,359.5,0.34453,-0.0000023788,0.00083263,1.2025,-0.0093304,2.9025048617,-0.0000019782
73,10.1016/j.actamat.2015.04.023,4591,3(a),5857,x=0,Mg3Sb2,360,0.34389,-0.0000020541,0.00083194,1.2018,-0.0090268,2.907906598,-0.0000017092
73,10.1016/j.actamat.2015.04.023,4591,3(a),5857,x=0,Mg3Sb2,360.5,0.34325,-0.0000017293,0.00083125,1.2012,-0.0087233,2.9133284778,-0.0000014396
73,10.1016/j.actamat.2015.04.023,4591,3(a),5857,x=0,Mg3Sb2,361,0.34261,-0.0000014046,0.00083056,1.2006,-0.0084198,2.9187706138,-0.0000011699
73,10.1016/j.actamat.2015.04.023,4591,3(a),5857,x=0,Mg3Sb2,361.5,0.34197,-0.0000010798,0.00082987,1.1999,-0.0081162,2.9242331199,-8.999e-7
73,10.1016/j.actamat.2015.04.023,4591,3(a),5857,x=0,Mg3Sb2,362,0.34133,-7.551e-7,0.00082918,1.1993,-0.0078127,2.9297161105,-6.296e-7
73,10.1016/j.actamat.2015.04.023,4591,3(a),5857,x=0,Mg3Sb2,362.5,0.34069,-4.303e-7,0.00082849,1.1987,-0.0075092,2.9352197012,-3.59e-7
73,10.1016/j.actamat.2015.04.023,4591,3(a),5857,x=0,Mg3Sb2,363,0.34005,-1.056e-7,0.0008278,1.198,-0.0072056,2.9407440082,-8.81e-8
73,10.1016/j.actamat.2015.04.023,4591,3(a),5857,x=0,Mg3Sb2,363.5,0.3394,2.192e-7,0.00082711,1.1974,-0.0069021,2.9463759576,1.83e-7
73,10.1016/j.actamat.2015.04.023,4591,3(a),5857,x=0,Mg3Sb2,364,0.33876,5.439e-7,0.00082642,1.1968,-0.0065986,2.9519423781,4.545e-7
73,10.1016/j.actamat.2015.04.023,4591,3(a),5857,x=0,Mg3Sb2,364.5,0.33812,8.687e-7,0.00082573,1.1961,-0.006295,2.9575298711,7.262e-7
73,10.1016/j.actamat.2015.04.023,4591,3(a),5857,x=0,Mg3Sb2,365,0.33748,0.0000011934,0.00082504,1.1955,-0.0059915,2.9631385564,9.982e-7
73,10.1016/j.actamat.2015.04.023,4591,3(a),5857,x=0,Mg3Sb2,365.5,0.33684,0.0000015182,0.00082435,1.1949,-0.005688,2.9687685548,0.0000012706
73,10.1016/j.actamat.2015.04.023,4591,3(a),5857,x=0,Mg3Sb2,366,0.3362,0.0000018429,0.00082366,1.1942,-0.0053844,2.9744199881,0.0000015432
73,10.1016/j.actamat.2015.04.023,4591,3(a),5857,x=0,Mg3Sb2,366.5,0.33556,0.0000021676,0.00082297,1.1936,-0.0050809,2.9800929789,0.000001816
73,10.1016/j.actamat.2015.04.023,4591,3(a),5857,x=0,Mg3Sb2,367,0.33492,0.0000024924,0.00082228,1.193,-0.0047774,2.9857876508,0.0000020892
73,10.1016/j.actamat.2015.04.023,4591,3(a),5857,x=0,Mg3Sb2,367.5,0.33428,0.0000028171,0.00082159,1.1923,-0.0044738,2.9915041283,0.0000023627
73,10.1016/j.actamat.2015.04.023,4591,3(a),5857,x=0,Mg3Sb2,368,0.33364,0.0000031419,0.00082091,1.1917,-0.0041703,2.9972425369,0.0000026365
73,10.1016/j.actamat.2015.04.023,4591,3(a),5857,x=0,Mg3Sb2,368.5,0.33299,0.0000034666,0.00082022,1.1911,-0.0038668,3.003093186,0.0000029104
73,10.1016/j.actamat.2015.04.023,4591,3(a),5857,x=0,Mg3Sb2,369,0.33235,0.0000037914,0.00081953,1.1904,-0.0035632,3.0088761847,0.000003185
73,10.1016/j.actamat.2015.04.023,4591,3(a),5857,x=0,Mg3Sb2,369.5,0.33171,0.0000041161,0.00081884,1.1898,-0.0032597,3.0146814989,0.0000034595
73,10.1016/j.actamat.2015.04.023,4591,3(a),5857,x=0,Mg3Sb2,370,0.33107,0.0000044409,0.00081815,1.1892,-0.0029562,3.0205092579,0.0000037344
73,10.1016/j.actamat.2015.04.023,4591,3(a),5857,x=0,Mg3Sb2,370.5,0.33043,0.0000047656,0.00081746,1.1885,-0.0026526,3.026359592,0.0000040098
73,10.1016/j.actamat.2015.04.023,4591,3(a),5857,x=0,Mg3Sb2,371,0.32979,0.0000050904,0.00081677,1.1879,-0.0023491,3.0322326329,0.0000042852
73,10.1016/j.actamat.2015.04.023,4591,3(a),5857,x=0,Mg3Sb2,371.5,0.32915,0.0000054151,0.00081608,1.1873,-0.0020456,3.0381285128,0.0000045609
73,10.1016/j.actamat.2015.04.023,4591,3(a),5857,x=0,Mg3Sb2,372,0.32851,0.0000057399,0.00081539,1.1866,-0.001742,3.0440473654,0.0000048373
73,10.1016/j.actamat.2015.04.023,4591,3(a),5857,x=0,Mg3Sb2,372.5,0.32787,0.0000060646,0.0008147,1.186,-0.0014385,3.049989325,0.0000051135
73,10.1016/j.actamat.2015.04.023,4591,3(a),5857,x=0,Mg3Sb2,373,0.32722,0.0000063894,0.00081401,1.1854,-0.001135,3.0560479188,0.0000053901
73,10.1016/j.actamat.2015.04.023,4591,3(a),5857,x=0,Mg3Sb2,373.5,0.32658,0.0000067141,0.00081332,1.1847,-0.00083144,3.0620368669,0.0000056673
73,10.1016/j.actamat.2015.04.023,4591,3(a),5857,x=0,Mg3Sb2,374,0.32594,0.0000070389,0.00081263,1.1841,-0.00052791,3.0680493342,0.0000059445
73,10.1016/j.actamat.2015.04.023,4591,3(a),5857,x=0,Mg3Sb2,374.5,0.3253,0.0000073636,0.00081194,1.1835,-0.00022438,3.0740854596,0.0000062219
73,10.1016/j.actamat.2015.04.023,4591,3(a),5857,x=0,Mg3Sb2,375,0.32466,0.0000076884,0.00081125,1.1828,0.000079156,3.0801453829,0.0000065002
73,10.1016/j.actamat.2015.04.023,4591,3(a),5857,x=0,Mg3Sb2,375.5,0.32402,0.0000080131,0.00081056,1.1822,0.00038269,3.0862292451,0.0000067781
73,10.1016/j.actamat.2015.04.023,4591,3(a),5857,x=0,Mg3Sb2,376,0.32338,0.0000083379,0.00080987,1.1816,0.00068622,3.0923371884,0.0000070564