sid,DOI,figureid,fignum,sampleid,samplename,composition,Temperature,Electrical resistivity,Power factor,Seebeck coefficient,Thermal conductivity,ZT,Electrical conductivity,Figure of merit Z
10954,10.1007/s11664-015-4303-6,5134,3(a),6468,x=0.1,Ca0.9Eu0.1Zn2Sb2,551,0.00002246,0.0010852,0.00015614,2.227,0.29521,44523.5975066785,0.0004872923
10954,10.1007/s11664-015-4303-6,5134,3(a),6468,x=0.1,Ca0.9Eu0.1Zn2Sb2,551.5,0.000022475,0.0010858,0.00015623,2.2251,0.29574,44493.8820912125,0.0004879781
10954,10.1007/s11664-015-4303-6,5134,3(a),6468,x=0.1,Ca0.9Eu0.1Zn2Sb2,552,0.00002249,0.0010864,0.00015632,2.2231,0.29627,44464.2063139173,0.000488687
10954,10.1007/s11664-015-4303-6,5134,3(a),6468,x=0.1,Ca0.9Eu0.1Zn2Sb2,552.5,0.000022505,0.0010869,0.00015641,2.2212,0.2968,44434.5700955343,0.0004893301
10954,10.1007/s11664-015-4303-6,5134,3(a),6468,x=0.1,Ca0.9Eu0.1Zn2Sb2,553,0.00002252,0.0010875,0.00015651,2.2192,0.29732,44404.973357016,0.0004900415
10954,10.1007/s11664-015-4303-6,5134,3(a),6468,x=0.1,Ca0.9Eu0.1Zn2Sb2,553.5,0.000022536,0.0010881,0.0001566,2.2173,0.29785,44373.4469293575,0.000490732
10954,10.1007/s11664-015-4303-6,5134,3(a),6468,x=0.1,Ca0.9Eu0.1Zn2Sb2,554,0.000022551,0.0010886,0.00015669,2.2153,0.29838,44343.9315329697,0.0004914007
10954,10.1007/s11664-015-4303-6,5134,3(a),6468,x=0.1,Ca0.9Eu0.1Zn2Sb2,554.5,0.000022566,0.0010892,0.00015678,2.2133,0.29891,44314.4553753434,0.0004921158
10954,10.1007/s11664-015-4303-6,5134,3(a),6468,x=0.1,Ca0.9Eu0.1Zn2Sb2,555,0.000022581,0.0010898,0.00015687,2.2114,0.29943,44285.0183782826,0.00049281
10954,10.1007/s11664-015-4303-6,5134,3(a),6468,x=0.1,Ca0.9Eu0.1Zn2Sb2,555.5,0.000022596,0.0010903,0.00015697,2.2094,0.29996,44255.6204637989,0.0004934824
10954,10.1007/s11664-015-4303-6,5134,3(a),6468,x=0.1,Ca0.9Eu0.1Zn2Sb2,556,0.000022611,0.0010909,0.00015706,2.2075,0.30049,44226.2615541108,0.0004941789
10954,10.1007/s11664-015-4303-6,5134,3(a),6468,x=0.1,Ca0.9Eu0.1Zn2Sb2,556.5,0.000022626,0.0010915,0.00015715,2.2055,0.30102,44196.9415716432,0.0004948991
10954,10.1007/s11664-015-4303-6,5134,3(a),6468,x=0.1,Ca0.9Eu0.1Zn2Sb2,557,0.000022641,0.0010921,0.00015724,2.2036,0.30155,44167.6604390265,0.0004955981
10954,10.1007/s11664-015-4303-6,5134,3(a),6468,x=0.1,Ca0.9Eu0.1Zn2Sb2,557.5,0.000022657,0.0010926,0.00015733,2.2016,0.30207,44136.4699651322,0.0004962754
10954,10.1007/s11664-015-4303-6,5134,3(a),6468,x=0.1,Ca0.9Eu0.1Zn2Sb2,558,0.000022672,0.0010932,0.00015743,2.1997,0.3026,44107.2688779111,0.0004969769
10954,10.1007/s11664-015-4303-6,5134,3(a),6468,x=0.1,Ca0.9Eu0.1Zn2Sb2,558.5,0.000022687,0.0010938,0.00015752,2.1977,0.30313,44078.1064045489,0.0004977021
10954,10.1007/s11664-015-4303-6,5134,3(a),6468,x=0.1,Ca0.9Eu0.1Zn2Sb2,559,0.000022702,0.0010943,0.00015761,2.1958,0.30366,44048.982468505,0.0004983605
10954,10.1007/s11664-015-4303-6,5134,3(a),6468,x=0.1,Ca0.9Eu0.1Zn2Sb2,559.5,0.000022717,0.0010949,0.0001577,2.1938,0.30418,44019.896993441,0.0004990883
10954,10.1007/s11664-015-4303-6,5134,3(a),6468,x=0.1,Ca0.9Eu0.1Zn2Sb2,560,0.000022732,0.0010955,0.00015779,2.1919,0.30471,43990.8499032201,0.0004997947
10954,10.1007/s11664-015-4303-6,5134,3(a),6468,x=0.1,Ca0.9Eu0.1Zn2Sb2,560.5,0.000022747,0.001096,0.00015789,2.1899,0.30524,43961.8411219062,0.0005004795
10954,10.1007/s11664-015-4303-6,5134,3(a),6468,x=0.1,Ca0.9Eu0.1Zn2Sb2,561,0.000022762,0.0010966,0.00015798,2.188,0.30577,43932.8705737633,0.0005011883
10954,10.1007/s11664-015-4303-6,5134,3(a),6468,x=0.1,Ca0.9Eu0.1Zn2Sb2,561.5,0.000022778,0.0010972,0.00015807,2.186,0.30629,43902.0107120906,0.0005019213
10954,10.1007/s11664-015-4303-6,5134,3(a),6468,x=0.1,Ca0.9Eu0.1Zn2Sb2,562,0.000022793,0.0010977,0.00015816,2.1841,0.30682,43873.1189400254,0.0005025869
10954,10.1007/s11664-015-4303-6,5134,3(a),6468,x=0.1,Ca0.9Eu0.1Zn2Sb2,562.5,0.000022808,0.0010983,0.00015825,2.1821,0.30735,43844.2651701158,0.0005033225
10954,10.1007/s11664-015-4303-6,5134,3(a),6468,x=0.1,Ca0.9Eu0.1Zn2Sb2,563,0.000022823,0.0010989,0.00015834,2.1802,0.30788,43815.4493274328,0.0005040363
10954,10.1007/s11664-015-4303-6,5134,3(a),6468,x=0.1,Ca0.9Eu0.1Zn2Sb2,563.5,0.000022838,0.0010994,0.00015844,2.1782,0.3084,43786.6713372449,0.0005047287
10954,10.1007/s11664-015-4303-6,5134,3(a),6468,x=0.1,Ca0.9Eu0.1Zn2Sb2,564,0.000022853,0.0011,0.00015853,2.1763,0.30893,43757.9311250164,0.000505445
10954,10.1007/s11664-015-4303-6,5134,3(a),6468,x=0.1,Ca0.9Eu0.1Zn2Sb2,564.5,0.000022868,0.0011006,0.00015862,2.1743,0.30946,43729.2286164072,0.0005061859
10954,10.1007/s11664-015-4303-6,5134,3(a),6468,x=0.1,Ca0.9Eu0.1Zn2Sb2,565,0.000022883,0.0011011,0.00015871,2.1723,0.30999,43700.5637372722,0.0005068821
10954,10.1007/s11664-015-4303-6,5134,3(a),6468,x=0.1,Ca0.9Eu0.1Zn2Sb2,565.5,0.000022898,0.0011017,0.0001588,2.1704,0.31052,43671.9364136606,0.0005076023
10954,10.1007/s11664-015-4303-6,5134,3(a),6468,x=0.1,Ca0.9Eu0.1Zn2Sb2,566,0.000022914,0.0011023,0.0001589,2.1684,0.31104,43641.4419132408,0.0005083472
10954,10.1007/s11664-015-4303-6,5134,3(a),6468,x=0.1,Ca0.9Eu0.1Zn2Sb2,566.5,0.000022929,0.0011028,0.00015899,2.1665,0.31157,43612.8919708666,0.0005090238
10954,10.1007/s11664-015-4303-6,5134,3(a),6468,x=0.1,Ca0.9Eu0.1Zn2Sb2,567,0.000022944,0.0011034,0.00015908,2.1645,0.3121,43584.3793584379,0.0005097713
10954,10.1007/s11664-015-4303-6,5134,3(a),6468,x=0.1,Ca0.9Eu0.1Zn2Sb2,567.5,0.000022959,0.001104,0.00015917,2.1626,0.31263,43555.9040027876,0.0005104966
10954,10.1007/s11664-015-4303-6,5134,3(a),6468,x=0.1,Ca0.9Eu0.1Zn2Sb2,568,0.000022974,0.0011045,0.00015926,2.1606,0.31315,43527.4658309393,0.0005112006
10954,10.1007/s11664-015-4303-6,5134,3(a),6468,x=0.1,Ca0.9Eu0.1Zn2Sb2,568.5,0.000022989,0.0011051,0.00015936,2.1587,0.31368,43499.0647701074,0.0005119285
10954,10.1007/s11664-015-4303-6,5134,3(a),6468,x=0.1,Ca0.9Eu0.1Zn2Sb2,569,0.000023004,0.0011057,0.00015945,2.1567,0.31421,43470.7007476961,0.0005126814
10954,10.1007/s11664-015-4303-6,5134,3(a),6468,x=0.1,Ca0.9Eu0.1Zn2Sb2,569.5,0.000023019,0.0011063,0.00015954,2.1548,0.31474,43442.3736912985,0.0005134119
10954,10.1007/s11664-015-4303-6,5134,3(a),6468,x=0.1,Ca0.9Eu0.1Zn2Sb2,570,0.000023035,0.0011068,0.00015963,2.1528,0.31526,43412.1988278706,0.0005141211
10954,10.1007/s11664-015-4303-6,5134,3(a),6468,x=0.1,Ca0.9Eu0.1Zn2Sb2,570.5,0.00002305,0.0011074,0.00015972,2.1509,0.31579,43383.9479392625,0.0005148542
10954,10.1007/s11664-015-4303-6,5134,3(a),6468,x=0.1,Ca0.9Eu0.1Zn2Sb2,571,0.000023065,0.001108,0.00015982,2.1489,0.31632,43355.7337957945,0.0005156126
10954,10.1007/s11664-015-4303-6,5134,3(a),6468,x=0.1,Ca0.9Eu0.1Zn2Sb2,571.5,0.00002308,0.0011085,0.00015991,2.147,0.31685,43327.5563258232,0.0005163018
10954,10.1007/s11664-015-4303-6,5134,3(a),6468,x=0.1,Ca0.9Eu0.1Zn2Sb2,572,0.000023095,0.0011091,0.00016,2.145,0.31737,43299.4154578913,0.0005170629
10954,10.1007/s11664-015-4303-6,5134,3(a),6468,x=0.1,Ca0.9Eu0.1Zn2Sb2,572.5,0.00002311,0.0011097,0.00016009,2.1431,0.3179,43271.311120727,0.0005178013
10954,10.1007/s11664-015-4303-6,5134,3(a),6468,x=0.1,Ca0.9Eu0.1Zn2Sb2,573,0.000023125,0.0011102,0.00016018,2.1411,0.31843,43243.2432432432,0.0005185185
10954,10.1007/s11664-015-4303-6,5134,3(a),6468,x=0.1,Ca0.9Eu0.1Zn2Sb2,573.5,0.00002314,0.0011108,0.00016027,2.1392,0.31896,43215.2117545376,0.0005192595
10954,10.1007/s11664-015-4303-6,5134,3(a),6468,x=0.1,Ca0.9Eu0.1Zn2Sb2,574,0.000023155,0.0011114,0.00016037,2.1372,0.31949,43187.2165838912,0.0005200262
10954,10.1007/s11664-015-4303-6,5134,3(a),6468,x=0.1,Ca0.9Eu0.1Zn2Sb2,574.5,0.000023171,0.0011119,0.00016046,2.1352,0.32001,43157.3950196366,0.0005207475
10954,10.1007/s11664-015-4303-6,5134,3(a),6468,x=0.1,Ca0.9Eu0.1Zn2Sb2,575,0.000023186,0.0011125,0.00016055,2.1333,0.32054,43129.4746829984,0.0005214925
10954,10.1007/s11664-015-4303-6,5134,3(a),6468,x=0.1,Ca0.9Eu0.1Zn2Sb2,575.5,0.000023201,0.0011131,0.00016064,2.1313,0.32107,43101.5904486876,0.0005222634
10954,10.1007/s11664-015-4303-6,5134,3(a),6468,x=0.1,Ca0.9Eu0.1Zn2Sb2,576,0.000023216,0.0011136,0.00016073,2.1294,0.3216,43073.7422467264,0.0005229642
10954,10.1007/s11664-015-4303-6,5134,3(a),6468,x=0.1,Ca0.9Eu0.1Zn2Sb2,576.5,0.000023231,0.0011142,0.00016083,2.1274,0.32212,43045.9300073178,0.0005237379
10954,10.1007/s11664-015-4303-6,5134,3(a),6468,x=0.1,Ca0.9Eu0.1Zn2Sb2,577,0.000023246,0.0011148,0.00016092,2.1255,0.32265,43018.1536608449,0.0005244884
10954,10.1007/s11664-015-4303-6,5134,3(a),6468,x=0.1,Ca0.9Eu0.1Zn2Sb2,577.5,0.000023261,0.0011153,0.00016101,2.1235,0.32318,42990.4131378703,0.0005252178
10954,10.1007/s11664-015-4303-6,5134,3(a),6468,x=0.1,Ca0.9Eu0.1Zn2Sb2,578,0.000023276,0.0011159,0.0001611,2.1216,0.32371,42962.7083691356,0.000525971
10954,10.1007/s11664-015-4303-6,5134,3(a),6468,x=0.1,Ca0.9Eu0.1Zn2Sb2,578.5,0.000023292,0.0011165,0.00016119,2.1196,0.32423,42933.1959471063,0.0005267503
10954,10.1007/s11664-015-4303-6,5134,3(a),6468,x=0.1,Ca0.9Eu0.1Zn2Sb2,579,0.000023307,0.001117,0.00016129,2.1177,0.32476,42905.5648517613,0.000527459
10954,10.1007/s11664-015-4303-6,5134,3(a),6468,x=0.1,Ca0.9Eu0.1Zn2Sb2,579.5,0.000023322,0.0011176,0.00016138,2.1157,0.32529,42877.969299374,0.0005282412
10954,10.1007/s11664-015-4303-6,5134,3(a),6468,x=0.1,Ca0.9Eu0.1Zn2Sb2,580,0.000023337,0.0011182,0.00016147,2.1138,0.32582,42850.4092214081,0.0005289999
10954,10.1007/s11664-015-4303-6,5134,3(a),6468,x=0.1,Ca0.9Eu0.1Zn2Sb2,580.5,0.000023352,0.0011187,0.00016156,2.1118,0.32635,42822.8845495033,0.0005297377
10954,10.1007/s11664-015-4303-6,5134,3(a),6468,x=0.1,Ca0.9Eu0.1Zn2Sb2,581,0.000023367,0.0011193,0.00016165,2.1099,0.32687,42795.3952154748,0.0005304991
10954,10.1007/s11664-015-4303-6,5134,3(a),6468,x=0.1,Ca0.9Eu0.1Zn2Sb2,581.5,0.000023382,0.0011199,0.00016175,2.1079,0.3274,42767.941151313,0.0005312871
10954,10.1007/s11664-015-4303-6,5134,3(a),6468,x=0.1,Ca0.9Eu0.1Zn2Sb2,582,0.000023397,0.0011205,0.00016184,2.106,0.32793,42740.5222891824,0.0005320513
10954,10.1007/s11664-015-4303-6,5134,3(a),6468,x=0.1,Ca0.9Eu0.1Zn2Sb2,582.5,0.000023413,0.001121,0.00016193,2.104,0.32846,42711.3142271388,0.0005327947
10954,10.1007/s11664-015-4303-6,5134,3(a),6468,x=0.1,Ca0.9Eu0.1Zn2Sb2,583,0.000023428,0.0011216,0.00016202,2.1021,0.32898,42683.9679016561,0.0005335617
10954,10.1007/s11664-015-4303-6,5134,3(a),6468,x=0.1,Ca0.9Eu0.1Zn2Sb2,583.5,0.000023443,0.0011222,0.00016211,2.1001,0.32951,42656.6565712579,0.0005343555
10954,10.1007/s11664-015-4303-6,5134,3(a),6468,x=0.1,Ca0.9Eu0.1Zn2Sb2,584,0.000023458,0.0011227,0.0001622,2.0982,0.33004,42629.3801688123,0.0005350777
10954,10.1007/s11664-015-4303-6,5134,3(a),6468,x=0.1,Ca0.9Eu0.1Zn2Sb2,584.5,0.000023473,0.0011233,0.0001623,2.0962,0.33057,42602.1386273591,0.0005358744
10954,10.1007/s11664-015-4303-6,5134,3(a),6468,x=0.1,Ca0.9Eu0.1Zn2Sb2,585,0.000023488,0.0011239,0.00016239,2.0942,0.33109,42574.931880109,0.0005366727
10954,10.1007/s11664-015-4303-6,5134,3(a),6468,x=0.1,Ca0.9Eu0.1Zn2Sb2,585.5,0.000023503,0.0011244,0.00016248,2.0923,0.33162,42547.7598604434,0.000537399
10954,10.1007/s11664-015-4303-6,5134,3(a),6468,x=0.1,Ca0.9Eu0.1Zn2Sb2,586,0.000023518,0.001125,0.00016257,2.0903,0.33215,42520.6225019134,0.0005382003
10954,10.1007/s11664-015-4303-6,5134,3(a),6468,x=0.1,Ca0.9Eu0.1Zn2Sb2,586.5,0.000023533,0.0011256,0.00016266,2.0884,0.33268,42493.5197382399,0.0005389772
10954,10.1007/s11664-015-4303-6,5134,3(a),6468,x=0.1,Ca0.9Eu0.1Zn2Sb2,587,0.000023549,0.0011261,0.00016276,2.0864,0.3332,42464.6481803898,0.0005397335
10954,10.1007/s11664-015-4303-6,5134,3(a),6468,x=0.1,Ca0.9Eu0.1Zn2Sb2,587.5,0.000023564,0.0011267,0.00016285,2.0845,0.33373,42437.6167034459,0.0005405133
10954,10.1007/s11664-015-4303-6,5134,3(a),6468,x=0.1,Ca0.9Eu0.1Zn2Sb2,588,0.000023579,0.0011273,0.00016294,2.0825,0.33426,42410.6196191526,0.0005413205
10954,10.1007/s11664-015-4303-6,5134,3(a),6468,x=0.1,Ca0.9Eu0.1Zn2Sb2,588.5,0.000023594,0.0011278,0.00016303,2.0806,0.33479,42383.656861914,0.0005420552
10954,10.1007/s11664-015-4303-6,5134,3(a),6468,x=0.1,Ca0.9Eu0.1Zn2Sb2,589,0.000023609,0.0011284,0.00016312,2.0786,0.33532,42356.728366301,0.0005428654
10954,10.1007/s11664-015-4303-6,5134,3(a),6468,x=0.1,Ca0.9Eu0.1Zn2Sb2,589.5,0.000023624,0.001129,0.00016322,2.0767,0.33584,42329.8340670505,0.000543651
10954,10.1007/s11664-015-4303-6,5134,3(a),6468,x=0.1,Ca0.9Eu0.1Zn2Sb2,590,0.000023639,0.0011295,0.00016331,2.0747,0.33637,42302.9738990651,0.0005444161
10954,10.1007/s11664-015-4303-6,5134,3(a),6468,x=0.1,Ca0.9Eu0.1Zn2Sb2,590.5,0.000023654,0.0011301,0.0001634,2.0728,0.3369,42276.1477974127,0.0005452046
10954,10.1007/s11664-015-4303-6,5134,3(a),6468,x=0.1,Ca0.9Eu0.1Zn2Sb2,591,0.00002367,0.0011307,0.00016349,2.0708,0.33743,42247.570764681,0.0005460209
10954,10.1007/s11664-015-4303-6,5134,3(a),6468,x=0.1,Ca0.9Eu0.1Zn2Sb2,591.5,0.000023685,0.0011312,0.00016358,2.0689,0.33795,42220.8148617268,0.000546764
10954,10.1007/s11664-015-4303-6,5134,3(a),6468,x=0.1,Ca0.9Eu0.1Zn2Sb2,592,0.0000237,0.0011318,0.00016368,2.0669,0.33848,42194.0928270042,0.0005475833
10954,10.1007/s11664-015-4303-6,5134,3(a),6468,x=0.1,Ca0.9Eu0.1Zn2Sb2,592.5,0.000023715,0.0011324,0.00016377,2.065,0.33901,42167.4045962471,0.0005483777
10954,10.1007/s11664-015-4303-6,5134,3(a),6468,x=0.1,Ca0.9Eu0.1Zn2Sb2,593,0.00002373,0.001133,0.00016386,2.063,0.33954,42140.7501053519,0.0005492002
10954,10.1007/s11664-015-4303-6,5134,3(a),6468,x=0.1,Ca0.9Eu0.1Zn2Sb2,593.5,0.000023745,0.0011335,0.00016395,2.0611,0.34006,42114.1292903769,0.0005499491
10954,10.1007/s11664-015-4303-6,5134,3(a),6468,x=0.1,Ca0.9Eu0.1Zn2Sb2,594,0.00002376,0.0011341,0.00016404,2.0591,0.34059,42087.5420875421,0.0005507746
10954,10.1007/s11664-015-4303-6,5134,3(a),6468,x=0.1,Ca0.9Eu0.1Zn2Sb2,594.5,0.000023775,0.0011347,0.00016413,2.0572,0.34112,42060.9884332282,0.000551575
10954,10.1007/s11664-015-4303-6,5134,3(a),6468,x=0.1,Ca0.9Eu0.1Zn2Sb2,595,0.00002379,0.0011352,0.00016423,2.0552,0.34165,42034.4682639765,0.000552355
10954,10.1007/s11664-015-4303-6,5134,3(a),6468,x=0.1,Ca0.9Eu0.1Zn2Sb2,595.5,0.000023806,0.0011358,0.00016432,2.0532,0.34217,42006.2169201042,0.0005531853
10954,10.1007/s11664-015-4303-6,5134,3(a),6468,x=0.1,Ca0.9Eu0.1Zn2Sb2,596,0.000023821,0.0011364,0.00016441,2.0513,0.3427,41979.7657529071,0.0005539902
10954,10.1007/s11664-015-4303-6,5134,3(a),6468,x=0.1,Ca0.9Eu0.1Zn2Sb2,596.5,0.000023836,0.0011369,0.0001645,2.0493,0.34323,41953.3478771606,0.0005547748
10954,10.1007/s11664-015-4303-6,5134,3(a),6468,x=0.1,Ca0.9Eu0.1Zn2Sb2,597,0.000023851,0.0011375,0.00016459,2.0474,0.34376,41926.9632300532,0.0005555827
10954,10.1007/s11664-015-4303-6,5134,3(a),6468,x=0.1,Ca0.9Eu0.1Zn2Sb2,597.5,0.000023866,0.0011381,0.00016469,2.0454,0.34429,41900.6117489315,0.0005564193
10954,10.1007/s11664-015-4303-6,5134,3(a),6468,x=0.1,Ca0.9Eu0.1Zn2Sb2,598,0.000023881,0.0011386,0.00016478,2.0435,0.34481,41874.2933712994,0.0005571813
10954,10.1007/s11664-015-4303-6,5134,3(a),6468,x=0.1,Ca0.9Eu0.1Zn2Sb2,598.5,0.000023896,0.0011392,0.00016487,2.0415,0.34534,41848.0080348175,0.0005580211
10954,10.1007/s11664-015-4303-6,5134,3(a),6468,x=0.1,Ca0.9Eu0.1Zn2Sb2,599,0.000023911,0.0011398,0.00016496,2.0396,0.34587,41821.7556773033,0.0005588351
10954,10.1007/s11664-015-4303-6,5134,3(a),6468,x=0.1,Ca0.9Eu0.1Zn2Sb2,599.5,0.000023927,0.0011403,0.00016505,2.0376,0.3464,41793.7894428888,0.000559629
10954,10.1007/s11664-015-4303-6,5134,3(a),6468,x=0.1,Ca0.9Eu0.1Zn2Sb2,600,0.000023942,0.0011409,0.00016515,2.0357,0.34692,41767.6050455267,0.000560446
10954,10.1007/s11664-015-4303-6,5134,3(a),6468,x=0.1,Ca0.9Eu0.1Zn2Sb2,600.5,0.000023957,0.0011415,0.00016524,2.0337,0.34745,41741.4534374087,0.0005612922
10954,10.1007/s11664-015-4303-6,5134,3(a),6468,x=0.1,Ca0.9Eu0.1Zn2Sb2,601,0.000023972,0.001142,0.00016533,2.0318,0.34798,41715.3345569831,0.0005620632
10954,10.1007/s11664-015-4303-6,5134,3(a),6468,x=0.1,Ca0.9Eu0.1Zn2Sb2,601.5,0.000023987,0.0011426,0.00016542,2.0298,0.34851,41689.2483428524,0.0005629126
10954,10.1007/s11664-015-4303-6,5134,3(a),6468,x=0.1,Ca0.9Eu0.1Zn2Sb2,602,0.000024002,0.0011432,0.00016551,2.0279,0.34903,41663.1947337722,0.0005637359
10954,10.1007/s11664-015-4303-6,5134,3(a),6468,x=0.1,Ca0.9Eu0.1Zn2Sb2,602.5,0.000024017,0.0011437,0.00016561,2.0259,0.34956,41637.1736686514,0.0005645392
10954,10.1007/s11664-015-4303-6,5134,3(a),6468,x=0.1,Ca0.9Eu0.1Zn2Sb2,603,0.000024032,0.0011443,0.0001657,2.024,0.35009,41611.1850865513,0.0005653656
10954,10.1007/s11664-015-4303-6,5134,3(a),6468,x=0.1,Ca0.9Eu0.1Zn2Sb2,603.5,0.000024047,0.0011449,0.00016579,2.022,0.35062,41585.2289266852,0.0005662216
10954,10.1007/s11664-015-4303-6,5134,3(a),6468,x=0.1,Ca0.9Eu0.1Zn2Sb2,604,0.000024063,0.0011454,0.00016588,2.0201,0.35114,41557.5780243527,0.0005670016
10954,10.1007/s11664-015-4303-6,5134,3(a),6468,x=0.1,Ca0.9Eu0.1Zn2Sb2,604.5,0.000024078,0.001146,0.00016597,2.0181,0.35167,41531.6886784617,0.0005678609
10954,10.1007/s11664-015-4303-6,5134,3(a),6468,x=0.1,Ca0.9Eu0.1Zn2Sb2,605,0.000024093,0.0011466,0.00016606,2.0161,0.3522,41505.8315693355,0.0005687218
10954,10.1007/s11664-015-4303-6,5134,3(a),6468,x=0.1,Ca0.9Eu0.1Zn2Sb2,605.5,0.000024108,0.0011472,0.00016616,2.0142,0.35273,41480.0066368011,0.0005695562
10954,10.1007/s11664-015-4303-6,5134,3(a),6468,x=0.1,Ca0.9Eu0.1Zn2Sb2,606,0.000024123,0.0011477,0.00016625,2.0122,0.35326,41454.2138208349,0.0005703707
10954,10.1007/s11664-015-4303-6,5134,3(a),6468,x=0.1,Ca0.9Eu0.1Zn2Sb2,606.5,0.000024138,0.0011483,0.00016634,2.0103,0.35378,41428.4530615627,0.0005712083
10954,10.1007/s11664-015-4303-6,5134,3(a),6468,x=0.1,Ca0.9Eu0.1Zn2Sb2,607,0.000024153,0.0011489,0.00016643,2.0083,0.35431,41402.7242992589,0.0005720759
10954,10.1007/s11664-015-4303-6,5134,3(a),6468,x=0.1,Ca0.9Eu0.1Zn2Sb2,607.5,0.000024168,0.0011494,0.00016652,2.0064,0.35484,41377.0274743462,0.0005728668
10954,10.1007/s11664-015-4303-6,5134,3(a),6468,x=0.1,Ca0.9Eu0.1Zn2Sb2,608,0.000024184,0.00115,0.00016662,2.0044,0.35537,41349.6526629176,0.0005737378
10954,10.1007/s11664-015-4303-6,5134,3(a),6468,x=0.1,Ca0.9Eu0.1Zn2Sb2,608.5,0.000024199,0.0011506,0.00016671,2.0025,0.35589,41324.0216537873,0.0005745818
10954,10.1007/s11664-015-4303-6,5134,3(a),6468,x=0.1,Ca0.9Eu0.1Zn2Sb2,609,0.000024214,0.0011511,0.0001668,2.0005,0.35642,41298.4224002643,0.0005754061
10954,10.1007/s11664-015-4303-6,5134,3(a),6468,x=0.1,Ca0.9Eu0.1Zn2Sb2,609.5,0.000024229,0.0011517,0.00016689,1.9986,0.35695,41272.8548433695,0.0005762534
10954,10.1007/s11664-015-4303-6,5134,3(a),6468,x=0.1,Ca0.9Eu0.1Zn2Sb2,610,0.000024244,0.0011523,0.00016698,1.9966,0.35748,41247.3189242699,0.0005771311
10954,10.1007/s11664-015-4303-6,5134,3(a),6468,x=0.1,Ca0.9Eu0.1Zn2Sb2,610.5,0.000024259,0.0011528,0.00016708,1.9947,0.358,41221.814584278,0.0005779315
10954,10.1007/s11664-015-4303-6,5134,3(a),6468,x=0.1,Ca0.9Eu0.1Zn2Sb2,611,0.000024274,0.0011534,0.00016717,1.9927,0.35853,41196.3417648513,0.0005788127
10954,10.1007/s11664-015-4303-6,5134,3(a),6468,x=0.1,Ca0.9Eu0.1Zn2Sb2,611.5,0.000024289,0.001154,0.00016726,1.9908,0.35906,41170.9004075919,0.0005796665
10954,10.1007/s11664-015-4303-6,5134,3(a),6468,x=0.1,Ca0.9Eu0.1Zn2Sb2,612,0.000024305,0.0011545,0.00016735,1.9888,0.35959,41143.7975725159,0.0005805008
10954,10.1007/s11664-015-4303-6,5134,3(a),6468,x=0.1,Ca0.9Eu0.1Zn2Sb2,612.5,0.00002432,0.0011551,0.00016744,1.9869,0.36011,41118.4210526316,0.0005813579
10954,10.1007/s11664-015-4303-6,5134,3(a),6468,x=0.1,Ca0.9Eu0.1Zn2Sb2,613,0.000024335,0.0011557,0.00016754,1.9849,0.36064,41093.0758167249,0.000582246
10954,10.1007/s11664-015-4303-6,5134,3(a),6468,x=0.1,Ca0.9Eu0.1Zn2Sb2,613.5,0.00002435,0.0011562,0.00016763,1.983,0.36117,41067.7618069815,0.000583056
10954,10.1007/s11664-015-4303-6,5134,3(a),6468,x=0.1,Ca0.9Eu0.1Zn2Sb2,614,0.000024365,0.0011568,0.00016772,1.981,0.3617,41042.4789657295,0.0005839475
10954,10.1007/s11664-015-4303-6,5134,3(a),6468,x=0.1,Ca0.9Eu0.1Zn2Sb2,614.5,0.00002438,0.0011574,0.00016781,1.9791,0.36223,41017.2272354389,0.0005848113
10954,10.1007/s11664-015-4303-6,5134,3(a),6468,x=0.1,Ca0.9Eu0.1Zn2Sb2,615,0.000024395,0.0011579,0.0001679,1.9771,0.36275,40992.006558721,0.0005856558
10954,10.1007/s11664-015-4303-6,5134,3(a),6468,x=0.1,Ca0.9Eu0.1Zn2Sb2,615.5,0.00002441,0.0011585,0.00016799,1.9751,0.36328,40966.8168783286,0.0005865526