sid,DOI,figureid,fignum,sampleid,samplename,composition,Temperature,Electrical resistivity,Power factor,Seebeck coefficient,Thermal conductivity,ZT,Electrical conductivity,Figure of merit Z
73,10.1016/j.actamat.2015.04.023,4591,3(a),5858,x=0.006,Mg2.994Na0.006Sb2,386,0.000074158,0.00030348,0.00013706,1.369,0.11349,13484.7218101891,0.0002216801
73,10.1016/j.actamat.2015.04.023,4591,3(a),5858,x=0.006,Mg2.994Na0.006Sb2,386.5,0.000074172,0.00030389,0.00013718,1.3682,0.11402,13482.1765625843,0.0002221093
73,10.1016/j.actamat.2015.04.023,4591,3(a),5858,x=0.006,Mg2.994Na0.006Sb2,387,0.000074186,0.0003043,0.0001373,1.3673,0.11456,13479.6322756315,0.0002225554
73,10.1016/j.actamat.2015.04.023,4591,3(a),5858,x=0.006,Mg2.994Na0.006Sb2,387.5,0.000074201,0.00030471,0.00013742,1.3665,0.1151,13476.9073193084,0.0002229857
73,10.1016/j.actamat.2015.04.023,4591,3(a),5858,x=0.006,Mg2.994Na0.006Sb2,388,0.000074215,0.00030512,0.00013754,1.3656,0.11563,13474.3650205484,0.0002234329
73,10.1016/j.actamat.2015.04.023,4591,3(a),5858,x=0.006,Mg2.994Na0.006Sb2,388.5,0.000074229,0.00030553,0.00013766,1.3648,0.11617,13471.8236807717,0.0002238643
73,10.1016/j.actamat.2015.04.023,4591,3(a),5858,x=0.006,Mg2.994Na0.006Sb2,389,0.000074243,0.00030594,0.00013778,1.3639,0.11671,13469.2832994356,0.0002243126
73,10.1016/j.actamat.2015.04.023,4591,3(a),5858,x=0.006,Mg2.994Na0.006Sb2,389.5,0.000074258,0.00030635,0.00013791,1.3631,0.11724,13466.5625252498,0.0002247451
73,10.1016/j.actamat.2015.04.023,4591,3(a),5858,x=0.006,Mg2.994Na0.006Sb2,390,0.000074272,0.00030676,0.00013803,1.3623,0.11778,13464.0241275312,0.000225178
73,10.1016/j.actamat.2015.04.023,4591,3(a),5858,x=0.006,Mg2.994Na0.006Sb2,390.5,0.000074286,0.00030717,0.00013815,1.3614,0.11831,13461.4866865897,0.000225628
73,10.1016/j.actamat.2015.04.023,4591,3(a),5858,x=0.006,Mg2.994Na0.006Sb2,391,0.000074301,0.00030758,0.00013827,1.3606,0.11885,13458.7690609817,0.000226062
73,10.1016/j.actamat.2015.04.023,4591,3(a),5858,x=0.006,Mg2.994Na0.006Sb2,391.5,0.000074315,0.00030799,0.00013839,1.3597,0.11939,13456.2336002153,0.0002265132
73,10.1016/j.actamat.2015.04.023,4591,3(a),5858,x=0.006,Mg2.994Na0.006Sb2,392,0.000074329,0.00030841,0.00013851,1.3589,0.11992,13453.6990945661,0.0002269556
73,10.1016/j.actamat.2015.04.023,4591,3(a),5858,x=0.006,Mg2.994Na0.006Sb2,392.5,0.000074344,0.00030882,0.00013863,1.358,0.12046,13450.9846120736,0.000227408
73,10.1016/j.actamat.2015.04.023,4591,3(a),5858,x=0.006,Mg2.994Na0.006Sb2,393,0.000074358,0.00030923,0.00013875,1.3572,0.121,13448.4520831652,0.0002278441
73,10.1016/j.actamat.2015.04.023,4591,3(a),5858,x=0.006,Mg2.994Na0.006Sb2,393.5,0.000074372,0.00030964,0.00013887,1.3563,0.12153,13445.920507718,0.0002282976
73,10.1016/j.actamat.2015.04.023,4591,3(a),5858,x=0.006,Mg2.994Na0.006Sb2,394,0.000074387,0.00031005,0.00013899,1.3555,0.12207,13443.2091628914,0.0002287348
73,10.1016/j.actamat.2015.04.023,4591,3(a),5858,x=0.006,Mg2.994Na0.006Sb2,394.5,0.000074401,0.00031046,0.00013912,1.3546,0.12261,13440.6795607586,0.0002291894
73,10.1016/j.actamat.2015.04.023,4591,3(a),5858,x=0.006,Mg2.994Na0.006Sb2,395,0.000074415,0.00031087,0.00013924,1.3538,0.12314,13438.1509104347,0.0002296277
73,10.1016/j.actamat.2015.04.023,4591,3(a),5858,x=0.006,Mg2.994Na0.006Sb2,395.5,0.000074429,0.00031128,0.00013936,1.3529,0.12368,13435.6232113827,0.0002300835
73,10.1016/j.actamat.2015.04.023,4591,3(a),5858,x=0.006,Mg2.994Na0.006Sb2,396,0.000074444,0.00031169,0.00013948,1.3521,0.12422,13432.9160174091,0.0002305229
73,10.1016/j.actamat.2015.04.023,4591,3(a),5858,x=0.006,Mg2.994Na0.006Sb2,396.5,0.000074458,0.0003121,0.0001396,1.3512,0.12475,13430.3902871417,0.0002309799
73,10.1016/j.actamat.2015.04.023,4591,3(a),5858,x=0.006,Mg2.994Na0.006Sb2,397,0.000074472,0.00031251,0.00013972,1.3504,0.12529,13427.8655064991,0.0002314203
73,10.1016/j.actamat.2015.04.023,4591,3(a),5858,x=0.006,Mg2.994Na0.006Sb2,397.5,0.000074487,0.00031292,0.00013984,1.3496,0.12583,13425.1614375663,0.0002318613
73,10.1016/j.actamat.2015.04.023,4591,3(a),5858,x=0.006,Mg2.994Na0.006Sb2,398,0.000074501,0.00031333,0.00013996,1.3487,0.12636,13422.6386223004,0.00023232
73,10.1016/j.actamat.2015.04.023,4591,3(a),5858,x=0.006,Mg2.994Na0.006Sb2,398.5,0.000074515,0.00031375,0.00014008,1.3479,0.1269,13420.1167550158,0.0002327695
73,10.1016/j.actamat.2015.04.023,4591,3(a),5858,x=0.006,Mg2.994Na0.006Sb2,399,0.00007453,0.00031416,0.0001402,1.347,0.12744,13417.4158057158,0.0002332294
73,10.1016/j.actamat.2015.04.023,4591,3(a),5858,x=0.006,Mg2.994Na0.006Sb2,399.5,0.000074544,0.00031457,0.00014032,1.3462,0.12797,13414.8959004078,0.0002336726
73,10.1016/j.actamat.2015.04.023,4591,3(a),5858,x=0.006,Mg2.994Na0.006Sb2,400,0.000074558,0.00031498,0.00014045,1.3453,0.12851,13412.3769414416,0.0002341337
73,10.1016/j.actamat.2015.04.023,4591,3(a),5858,x=0.006,Mg2.994Na0.006Sb2,400.5,0.000074572,0.00031539,0.00014057,1.3445,0.12905,13409.8589282841,0.0002345779
73,10.1016/j.actamat.2015.04.023,4591,3(a),5858,x=0.006,Mg2.994Na0.006Sb2,401,0.000074587,0.0003158,0.00014069,1.3436,0.12958,13407.162105997,0.0002350402
73,10.1016/j.actamat.2015.04.023,4591,3(a),5858,x=0.006,Mg2.994Na0.006Sb2,401.5,0.000074601,0.00031621,0.00014081,1.3428,0.13012,13404.646050321,0.0002354856
73,10.1016/j.actamat.2015.04.023,4591,3(a),5858,x=0.006,Mg2.994Na0.006Sb2,402,0.000074615,0.00031662,0.00014093,1.3419,0.13066,13402.1309388193,0.000235949
73,10.1016/j.actamat.2015.04.023,4591,3(a),5858,x=0.006,Mg2.994Na0.006Sb2,402.5,0.00007463,0.00031703,0.00014105,1.3411,0.13119,13399.4372236366,0.0002363955
73,10.1016/j.actamat.2015.04.023,4591,3(a),5858,x=0.006,Mg2.994Na0.006Sb2,403,0.000074644,0.00031744,0.00014117,1.3402,0.13173,13396.9240662344,0.0002368602
73,10.1016/j.actamat.2015.04.023,4591,3(a),5858,x=0.006,Mg2.994Na0.006Sb2,403.5,0.000074658,0.00031785,0.00014129,1.3394,0.13227,13394.4118513756,0.0002373077
73,10.1016/j.actamat.2015.04.023,4591,3(a),5858,x=0.006,Mg2.994Na0.006Sb2,404,0.000074673,0.00031826,0.00014141,1.3386,0.1328,13391.7212379307,0.0002377559
73,10.1016/j.actamat.2015.04.023,4591,3(a),5858,x=0.006,Mg2.994Na0.006Sb2,404.5,0.000074687,0.00031867,0.00014153,1.3377,0.13334,13389.2109737973,0.0002382223
73,10.1016/j.actamat.2015.04.023,4591,3(a),5858,x=0.006,Mg2.994Na0.006Sb2,405,0.000074701,0.00031908,0.00014166,1.3369,0.13387,13386.7016505803,0.0002386716
73,10.1016/j.actamat.2015.04.023,4591,3(a),5858,x=0.006,Mg2.994Na0.006Sb2,405.5,0.000074716,0.0003195,0.00014178,1.336,0.13441,13384.0141335189,0.0002391467
73,10.1016/j.actamat.2015.04.023,4591,3(a),5858,x=0.006,Mg2.994Na0.006Sb2,406,0.00007473,0.00031991,0.0001419,1.3352,0.13495,13381.5067576609,0.0002395971
73,10.1016/j.actamat.2015.04.023,4591,3(a),5858,x=0.006,Mg2.994Na0.006Sb2,406.5,0.000074744,0.00032032,0.00014202,1.3343,0.13548,13379.000321096,0.000240066
73,10.1016/j.actamat.2015.04.023,4591,3(a),5858,x=0.006,Mg2.994Na0.006Sb2,407,0.000074758,0.00032073,0.00014214,1.3335,0.13602,13376.4948232965,0.0002405174
73,10.1016/j.actamat.2015.04.023,4591,3(a),5858,x=0.006,Mg2.994Na0.006Sb2,407.5,0.000074773,0.00032114,0.00014226,1.3326,0.13656,13373.8114025116,0.0002409875
73,10.1016/j.actamat.2015.04.023,4591,3(a),5858,x=0.006,Mg2.994Na0.006Sb2,408,0.000074787,0.00032155,0.00014238,1.3318,0.13709,13371.3078476206,0.0002414402
73,10.1016/j.actamat.2015.04.023,4591,3(a),5858,x=0.006,Mg2.994Na0.006Sb2,408.5,0.000074801,0.00032196,0.0001425,1.3309,0.13763,13368.8052298766,0.0002419115
73,10.1016/j.actamat.2015.04.023,4591,3(a),5858,x=0.006,Mg2.994Na0.006Sb2,409,0.000074816,0.00032237,0.00014262,1.3301,0.13817,13366.124893071,0.0002423652
73,10.1016/j.actamat.2015.04.023,4591,3(a),5858,x=0.006,Mg2.994Na0.006Sb2,409.5,0.00007483,0.00032278,0.00014274,1.3292,0.1387,13363.6242148871,0.0002428378
73,10.1016/j.actamat.2015.04.023,4591,3(a),5858,x=0.006,Mg2.994Na0.006Sb2,410,0.000074844,0.00032319,0.00014286,1.3284,0.13924,13361.1244722356,0.0002432927
73,10.1016/j.actamat.2015.04.023,4591,3(a),5858,x=0.006,Mg2.994Na0.006Sb2,410.5,0.000074859,0.0003236,0.00014299,1.3275,0.13978,13358.4472140958,0.0002437665
73,10.1016/j.actamat.2015.04.023,4591,3(a),5858,x=0.006,Mg2.994Na0.006Sb2,411,0.000074873,0.00032401,0.00014311,1.3267,0.14031,13355.9494076636,0.0002442225
73,10.1016/j.actamat.2015.04.023,4591,3(a),5858,x=0.006,Mg2.994Na0.006Sb2,411.5,0.000074887,0.00032442,0.00014323,1.3259,0.14085,13353.452535153,0.0002446791
73,10.1016/j.actamat.2015.04.023,4591,3(a),5858,x=0.006,Mg2.994Na0.006Sb2,412,0.000074902,0.00032484,0.00014335,1.325,0.14139,13350.7783503778,0.0002451623
73,10.1016/j.actamat.2015.04.023,4591,3(a),5858,x=0.006,Mg2.994Na0.006Sb2,412.5,0.000074916,0.00032525,0.00014347,1.3242,0.14192,13348.2834107534,0.00024562
73,10.1016/j.actamat.2015.04.023,4591,3(a),5858,x=0.006,Mg2.994Na0.006Sb2,413,0.00007493,0.00032566,0.00014359,1.3233,0.14246,13345.7894034432,0.0002460969
73,10.1016/j.actamat.2015.04.023,4591,3(a),5858,x=0.006,Mg2.994Na0.006Sb2,413.5,0.000074944,0.00032607,0.00014371,1.3225,0.143,13343.2963279248,0.0002465558
73,10.1016/j.actamat.2015.04.023,4591,3(a),5858,x=0.006,Mg2.994Na0.006Sb2,414,0.000074959,0.00032648,0.00014383,1.3216,0.14353,13340.6262089943,0.0002470339
73,10.1016/j.actamat.2015.04.023,4591,3(a),5858,x=0.006,Mg2.994Na0.006Sb2,414.5,0.000074973,0.00032689,0.00014395,1.3208,0.14407,13338.1350619556,0.0002474939
73,10.1016/j.actamat.2015.04.023,4591,3(a),5858,x=0.006,Mg2.994Na0.006Sb2,415,0.000074987,0.0003273,0.00014407,1.3199,0.14461,13335.6448451065,0.0002479733
73,10.1016/j.actamat.2015.04.023,4591,3(a),5858,x=0.006,Mg2.994Na0.006Sb2,415.5,0.000075002,0.00032771,0.00014419,1.3191,0.14514,13332.977787259,0.0002484345
73,10.1016/j.actamat.2015.04.023,4591,3(a),5858,x=0.006,Mg2.994Na0.006Sb2,416,0.000075016,0.00032812,0.00014432,1.3182,0.14568,13330.4894955743,0.0002489152
73,10.1016/j.actamat.2015.04.023,4591,3(a),5858,x=0.006,Mg2.994Na0.006Sb2,416.5,0.00007503,0.00032853,0.00014444,1.3174,0.14622,13328.0021324803,0.0002493776
73,10.1016/j.actamat.2015.04.023,4591,3(a),5858,x=0.006,Mg2.994Na0.006Sb2,417,0.000075045,0.00032894,0.00014456,1.3165,0.14675,13325.3381304551,0.0002498595
73,10.1016/j.actamat.2015.04.023,4591,3(a),5858,x=0.006,Mg2.994Na0.006Sb2,417.5,0.000075059,0.00032935,0.00014468,1.3157,0.14729,13322.8526892178,0.000250323
73,10.1016/j.actamat.2015.04.023,4591,3(a),5858,x=0.006,Mg2.994Na0.006Sb2,418,0.000075073,0.00032976,0.0001448,1.3148,0.14782,13320.3681749764,0.0002508062
73,10.1016/j.actamat.2015.04.023,4591,3(a),5858,x=0.006,Mg2.994Na0.006Sb2,418.5,0.000075087,0.00033018,0.00014492,1.314,0.14836,13317.8845872122,0.0002512785
73,10.1016/j.actamat.2015.04.023,4591,3(a),5858,x=0.006,Mg2.994Na0.006Sb2,419,0.000075102,0.00033059,0.00014504,1.3132,0.1489,13315.2246278395,0.0002517438
73,10.1016/j.actamat.2015.04.023,4591,3(a),5858,x=0.006,Mg2.994Na0.006Sb2,419.5,0.000075116,0.000331,0.00014516,1.3123,0.14943,13312.742957559,0.0002522289
73,10.1016/j.actamat.2015.04.023,4591,3(a),5858,x=0.006,Mg2.994Na0.006Sb2,420,0.00007513,0.00033141,0.00014528,1.3115,0.14997,13310.2622121656,0.0002526954
73,10.1016/j.actamat.2015.04.023,4591,3(a),5858,x=0.006,Mg2.994Na0.006Sb2,420.5,0.000075145,0.00033182,0.0001454,1.3106,0.15051,13307.6052964269,0.0002531817
73,10.1016/j.actamat.2015.04.023,4591,3(a),5858,x=0.006,Mg2.994Na0.006Sb2,421,0.000075159,0.00033223,0.00014553,1.3098,0.15104,13305.1264652271,0.0002536494
73,10.1016/j.actamat.2015.04.023,4591,3(a),5858,x=0.006,Mg2.994Na0.006Sb2,421.5,0.000075173,0.00033264,0.00014565,1.3089,0.15158,13302.6485573278,0.0002541371
73,10.1016/j.actamat.2015.04.023,4591,3(a),5858,x=0.006,Mg2.994Na0.006Sb2,422,0.000075188,0.00033305,0.00014577,1.3081,0.15212,13299.9946800021,0.0002546059
73,10.1016/j.actamat.2015.04.023,4591,3(a),5858,x=0.006,Mg2.994Na0.006Sb2,422.5,0.000075202,0.00033346,0.00014589,1.3072,0.15265,13297.5186830137,0.0002550949
73,10.1016/j.actamat.2015.04.023,4591,3(a),5858,x=0.006,Mg2.994Na0.006Sb2,423,0.000075216,0.00033387,0.00014601,1.3064,0.15319,13295.043607743,0.0002555649
73,10.1016/j.actamat.2015.04.023,4591,3(a),5858,x=0.006,Mg2.994Na0.006Sb2,423.5,0.000075231,0.00033428,0.00014613,1.3055,0.15373,13292.3927636214,0.0002560552
73,10.1016/j.actamat.2015.04.023,4591,3(a),5858,x=0.006,Mg2.994Na0.006Sb2,424,0.000075245,0.00033469,0.00014625,1.3047,0.15426,13289.9195959864,0.0002565264
73,10.1016/j.actamat.2015.04.023,4591,3(a),5858,x=0.006,Mg2.994Na0.006Sb2,424.5,0.000075259,0.0003351,0.00014637,1.3038,0.1548,13287.4473484899,0.0002570179
73,10.1016/j.actamat.2015.04.023,4591,3(a),5858,x=0.006,Mg2.994Na0.006Sb2,425,0.000075273,0.00033552,0.00014649,1.303,0.15534,13284.9760206183,0.0002574981
73,10.1016/j.actamat.2015.04.023,4591,3(a),5858,x=0.006,Mg2.994Na0.006Sb2,425.5,0.000075288,0.00033593,0.00014661,1.3022,0.15587,13282.3291892466,0.0002579711
73,10.1016/j.actamat.2015.04.023,4591,3(a),5858,x=0.006,Mg2.994Na0.006Sb2,426,0.000075302,0.00033634,0.00014673,1.3013,0.15641,13279.8597646809,0.0002584646
73,10.1016/j.actamat.2015.04.023,4591,3(a),5858,x=0.006,Mg2.994Na0.006Sb2,426.5,0.000075316,0.00033675,0.00014686,1.3005,0.15695,13277.3912581656,0.0002589389
73,10.1016/j.actamat.2015.04.023,4591,3(a),5858,x=0.006,Mg2.994Na0.006Sb2,427,0.000075331,0.00033716,0.00014698,1.2996,0.15748,13274.7474479298,0.0002594337
73,10.1016/j.actamat.2015.04.023,4591,3(a),5858,x=0.006,Mg2.994Na0.006Sb2,427.5,0.000075345,0.00033757,0.0001471,1.2988,0.15802,13272.2808414626,0.0002599091
73,10.1016/j.actamat.2015.04.023,4591,3(a),5858,x=0.006,Mg2.994Na0.006Sb2,428,0.000075359,0.00033798,0.00014722,1.2979,0.15856,13269.8151514749,0.0002604053
73,10.1016/j.actamat.2015.04.023,4591,3(a),5858,x=0.006,Mg2.994Na0.006Sb2,428.5,0.000075374,0.00033839,0.00014734,1.2971,0.15909,13267.1743572054,0.000260882
73,10.1016/j.actamat.2015.04.023,4591,3(a),5858,x=0.006,Mg2.994Na0.006Sb2,429,0.000075388,0.0003388,0.00014746,1.2962,0.15963,13264.7105640155,0.0002613794
73,10.1016/j.actamat.2015.04.023,4591,3(a),5858,x=0.006,Mg2.994Na0.006Sb2,429.5,0.000075402,0.00033921,0.00014758,1.2954,0.16017,13262.2476857378,0.0002618573
73,10.1016/j.actamat.2015.04.023,4591,3(a),5858,x=0.006,Mg2.994Na0.006Sb2,430,0.000075416,0.00033962,0.0001477,1.2945,0.1607,13259.7857218627,0.0002623561
73,10.1016/j.actamat.2015.04.023,4591,3(a),5858,x=0.006,Mg2.994Na0.006Sb2,430.5,0.000075431,0.00034003,0.00014782,1.2937,0.16124,13257.1489175538,0.0002628353
73,10.1016/j.actamat.2015.04.023,4591,3(a),5858,x=0.006,Mg2.994Na0.006Sb2,431,0.000075445,0.00034044,0.00014794,1.2928,0.16177,13254.6888461793,0.0002633354
73,10.1016/j.actamat.2015.04.023,4591,3(a),5858,x=0.006,Mg2.994Na0.006Sb2,431.5,0.000075459,0.00034085,0.00014806,1.292,0.16231,13252.2296876449,0.0002638158
73,10.1016/j.actamat.2015.04.023,4591,3(a),5858,x=0.006,Mg2.994Na0.006Sb2,432,0.000075474,0.00034127,0.00014819,1.2911,0.16285,13249.5958873254,0.000264325
73,10.1016/j.actamat.2015.04.023,4591,3(a),5858,x=0.006,Mg2.994Na0.006Sb2,432.5,0.000075488,0.00034168,0.00014831,1.2903,0.16338,13247.1386180585,0.0002648066
73,10.1016/j.actamat.2015.04.023,4591,3(a),5858,x=0.006,Mg2.994Na0.006Sb2,433,0.000075502,0.00034209,0.00014843,1.2895,0.16392,13244.6822600726,0.0002652889
73,10.1016/j.actamat.2015.04.023,4591,3(a),5858,x=0.006,Mg2.994Na0.006Sb2,433.5,0.000075517,0.0003425,0.00014855,1.2886,0.16446,13242.051458612,0.0002657923
73,10.1016/j.actamat.2015.04.023,4591,3(a),5858,x=0.006,Mg2.994Na0.006Sb2,434,0.000075531,0.00034291,0.00014867,1.2878,0.16499,13239.5969866677,0.0002662758
73,10.1016/j.actamat.2015.04.023,4591,3(a),5858,x=0.006,Mg2.994Na0.006Sb2,434.5,0.000075545,0.00034332,0.00014879,1.2869,0.16553,13237.143424449,0.0002667806
73,10.1016/j.actamat.2015.04.023,4591,3(a),5858,x=0.006,Mg2.994Na0.006Sb2,435,0.00007556,0.00034373,0.00014891,1.2861,0.16607,13234.5156167284,0.0002672654
73,10.1016/j.actamat.2015.04.023,4591,3(a),5858,x=0.006,Mg2.994Na0.006Sb2,435.5,0.000075574,0.00034414,0.00014903,1.2852,0.1666,13232.0639373329,0.0002677716
73,10.1016/j.actamat.2015.04.023,4591,3(a),5858,x=0.006,Mg2.994Na0.006Sb2,436,0.000075588,0.00034455,0.00014915,1.2844,0.16714,13229.613166111,0.0002682576
73,10.1016/j.actamat.2015.04.023,4591,3(a),5858,x=0.006,Mg2.994Na0.006Sb2,436.5,0.000075602,0.00034496,0.00014927,1.2835,0.16768,13227.1633025581,0.0002687651
73,10.1016/j.actamat.2015.04.023,4591,3(a),5858,x=0.006,Mg2.994Na0.006Sb2,437,0.000075617,0.00034537,0.0001494,1.2827,0.16821,13224.5394554135,0.0002692524
73,10.1016/j.actamat.2015.04.023,4591,3(a),5858,x=0.006,Mg2.994Na0.006Sb2,437.5,0.000075631,0.00034578,0.00014952,1.2818,0.16875,13222.0914704288,0.0002697613
73,10.1016/j.actamat.2015.04.023,4591,3(a),5858,x=0.006,Mg2.994Na0.006Sb2,438,0.000075645,0.00034619,0.00014964,1.281,0.16929,13219.6443915659,0.0002702498
73,10.1016/j.actamat.2015.04.023,4591,3(a),5858,x=0.006,Mg2.994Na0.006Sb2,438.5,0.00007566,0.00034661,0.00014976,1.2801,0.16982,13217.0235263019,0.0002707679
73,10.1016/j.actamat.2015.04.023,4591,3(a),5858,x=0.006,Mg2.994Na0.006Sb2,439,0.000075674,0.00034702,0.00014988,1.2793,0.17036,13214.5783228057,0.0002712577
73,10.1016/j.actamat.2015.04.023,4591,3(a),5858,x=0.006,Mg2.994Na0.006Sb2,439.5,0.000075688,0.00034743,0.00015,1.2784,0.1709,13212.1340238875,0.0002717694
73,10.1016/j.actamat.2015.04.023,4591,3(a),5858,x=0.006,Mg2.994Na0.006Sb2,440,0.000075703,0.00034784,0.00015012,1.2776,0.17143,13209.516135424,0.0002722605
73,10.1016/j.actamat.2015.04.023,4591,3(a),5858,x=0.006,Mg2.994Na0.006Sb2,440.5,0.000075717,0.00034825,0.00015024,1.2768,0.17197,13207.0737086784,0.0002727522
73,10.1016/j.actamat.2015.04.023,4591,3(a),5858,x=0.006,Mg2.994Na0.006Sb2,441,0.000075731,0.00034866,0.00015036,1.2759,0.17251,13204.6321849705,0.0002732659
73,10.1016/j.actamat.2015.04.023,4591,3(a),5858,x=0.006,Mg2.994Na0.006Sb2,441.5,0.000075745,0.00034907,0.00015048,1.2751,0.17304,13202.1915637996,0.0002737589
73,10.1016/j.actamat.2015.04.023,4591,3(a),5858,x=0.006,Mg2.994Na0.006Sb2,442,0.00007576,0.00034948,0.0001506,1.2742,0.17358,13199.5776135164,0.0002742741
73,10.1016/j.actamat.2015.04.023,4591,3(a),5858,x=0.006,Mg2.994Na0.006Sb2,442.5,0.000075774,0.00034989,0.00015073,1.2734,0.17412,13197.1388602951,0.0002747683
73,10.1016/j.actamat.2015.04.023,4591,3(a),5858,x=0.006,Mg2.994Na0.006Sb2,443,0.000075788,0.0003503,0.00015085,1.2725,0.17465,13194.7010080752,0.0002752849
73,10.1016/j.actamat.2015.04.023,4591,3(a),5858,x=0.006,Mg2.994Na0.006Sb2,443.5,0.000075803,0.00035071,0.00015097,1.2717,0.17519,13192.0900228223,0.0002757805
73,10.1016/j.actamat.2015.04.023,4591,3(a),5858,x=0.006,Mg2.994Na0.006Sb2,444,0.000075817,0.00035112,0.00015109,1.2708,0.17573,13189.6540353747,0.0002762984
73,10.1016/j.actamat.2015.04.023,4591,3(a),5858,x=0.006,Mg2.994Na0.006Sb2,444.5,0.000075831,0.00035153,0.00015121,1.27,0.17626,13187.2189473962,0.0002767953
73,10.1016/j.actamat.2015.04.023,4591,3(a),5858,x=0.006,Mg2.994Na0.006Sb2,445,0.000075846,0.00035195,0.00015133,1.2691,0.1768,13184.6109221317,0.0002773225
73,10.1016/j.actamat.2015.04.023,4591,3(a),5858,x=0.006,Mg2.994Na0.006Sb2,445.5,0.00007586,0.00035236,0.00015145,1.2683,0.17733,13182.1776957553,0.0002778207
73,10.1016/j.actamat.2015.04.023,4591,3(a),5858,x=0.006,Mg2.994Na0.006Sb2,446,0.000075874,0.00035277,0.00015157,1.2674,0.17787,13179.7453673195,0.0002783415
73,10.1016/j.actamat.2015.04.023,4591,3(a),5858,x=0.006,Mg2.994Na0.006Sb2,446.5,0.000075889,0.00035318,0.00015169,1.2666,0.17841,13177.1402970127,0.000278841
73,10.1016/j.actamat.2015.04.023,4591,3(a),5858,x=0.006,Mg2.994Na0.006Sb2,447,0.000075903,0.00035359,0.00015181,1.2658,0.17894,13174.7098270161,0.0002793411
73,10.1016/j.actamat.2015.04.023,4591,3(a),5858,x=0.006,Mg2.994Na0.006Sb2,447.5,0.000075917,0.000354,0.00015194,1.2649,0.17948,13172.2802534347,0.000279864
73,10.1016/j.actamat.2015.04.023,4591,3(a),5858,x=0.006,Mg2.994Na0.006Sb2,448,0.000075931,0.00035441,0.00015206,1.2641,0.18002,13169.8515757727,0.0002803655