sid,DOI,figureid,fignum,sampleid,samplename,composition,Temperature,Electrical resistivity,Power factor,Seebeck coefficient,Thermal conductivity,ZT,Electrical conductivity,Figure of merit Z
10954,10.1007/s11664-015-4303-6,5134,3(a),6471,x=0.9,Ca0.1Eu0.9Zn2Sb2,326,0.000011816,0.0011832,0.00011785,2.6254,0.098175,84631.0088016249,0.0004506742
10954,10.1007/s11664-015-4303-6,5134,3(a),6471,x=0.9,Ca0.1Eu0.9Zn2Sb2,326.5,0.000011827,0.0011839,0.00011795,2.6238,0.098999,84552.2955948254,0.0004512158
10954,10.1007/s11664-015-4303-6,5134,3(a),6471,x=0.9,Ca0.1Eu0.9Zn2Sb2,327,0.000011838,0.0011846,0.00011805,2.6222,0.099823,84473.7286703835,0.0004517581
10954,10.1007/s11664-015-4303-6,5134,3(a),6471,x=0.9,Ca0.1Eu0.9Zn2Sb2,327.5,0.000011849,0.0011853,0.00011814,2.6207,0.10065,84395.3076208963,0.0004522837
10954,10.1007/s11664-015-4303-6,5134,3(a),6471,x=0.9,Ca0.1Eu0.9Zn2Sb2,328,0.000011859,0.001186,0.00011824,2.6191,0.10147,84324.1420018551,0.0004528273
10954,10.1007/s11664-015-4303-6,5134,3(a),6471,x=0.9,Ca0.1Eu0.9Zn2Sb2,328.5,0.00001187,0.0011867,0.00011834,2.6175,0.1023,84245.99831508,0.0004533715
10954,10.1007/s11664-015-4303-6,5134,3(a),6471,x=0.9,Ca0.1Eu0.9Zn2Sb2,329,0.000011881,0.0011874,0.00011844,2.6159,0.10312,84167.999326656,0.0004539164
10954,10.1007/s11664-015-4303-6,5134,3(a),6471,x=0.9,Ca0.1Eu0.9Zn2Sb2,329.5,0.000011892,0.0011881,0.00011854,2.6143,0.10394,84090.1446350488,0.000454462
10954,10.1007/s11664-015-4303-6,5134,3(a),6471,x=0.9,Ca0.1Eu0.9Zn2Sb2,330,0.000011903,0.0011888,0.00011864,2.6128,0.10477,84012.4338402084,0.0004549908
10954,10.1007/s11664-015-4303-6,5134,3(a),6471,x=0.9,Ca0.1Eu0.9Zn2Sb2,330.5,0.000011913,0.0011895,0.00011874,2.6112,0.10559,83941.9121967598,0.0004555377
10954,10.1007/s11664-015-4303-6,5134,3(a),6471,x=0.9,Ca0.1Eu0.9Zn2Sb2,331,0.000011924,0.0011902,0.00011884,2.6096,0.10642,83864.4750083864,0.0004560852
10954,10.1007/s11664-015-4303-6,5134,3(a),6471,x=0.9,Ca0.1Eu0.9Zn2Sb2,331.5,0.000011935,0.0011909,0.00011893,2.608,0.10724,83787.1805613741,0.0004566334
10954,10.1007/s11664-015-4303-6,5134,3(a),6471,x=0.9,Ca0.1Eu0.9Zn2Sb2,332,0.000011946,0.0011916,0.00011903,2.6064,0.10806,83710.0284614097,0.0004571823
10954,10.1007/s11664-015-4303-6,5134,3(a),6471,x=0.9,Ca0.1Eu0.9Zn2Sb2,332.5,0.000011957,0.0011923,0.00011913,2.6049,0.10889,83633.018315631,0.0004577143
10954,10.1007/s11664-015-4303-6,5134,3(a),6471,x=0.9,Ca0.1Eu0.9Zn2Sb2,333,0.000011967,0.001193,0.00011923,2.6033,0.10971,83563.1319461853,0.0004582645
10954,10.1007/s11664-015-4303-6,5134,3(a),6471,x=0.9,Ca0.1Eu0.9Zn2Sb2,333.5,0.000011978,0.0011937,0.00011933,2.6017,0.11054,83486.3917181499,0.0004588154
10954,10.1007/s11664-015-4303-6,5134,3(a),6471,x=0.9,Ca0.1Eu0.9Zn2Sb2,334,0.000011989,0.0011945,0.00011943,2.6001,0.11136,83409.7923096171,0.0004594054
10954,10.1007/s11664-015-4303-6,5134,3(a),6471,x=0.9,Ca0.1Eu0.9Zn2Sb2,334.5,0.000012,0.0011952,0.00011953,2.5986,0.11218,83333.3333333333,0.00045994
10954,10.1007/s11664-015-4303-6,5134,3(a),6471,x=0.9,Ca0.1Eu0.9Zn2Sb2,335,0.000012011,0.0011959,0.00011963,2.597,0.11301,83257.0144034635,0.0004604929
10954,10.1007/s11664-015-4303-6,5134,3(a),6471,x=0.9,Ca0.1Eu0.9Zn2Sb2,335.5,0.000012022,0.0011966,0.00011972,2.5954,0.11383,83180.8351355848,0.0004610465
10954,10.1007/s11664-015-4303-6,5134,3(a),6471,x=0.9,Ca0.1Eu0.9Zn2Sb2,336,0.000012033,0.0011973,0.00011982,2.5938,0.11466,83104.79514668,0.0004616007
10954,10.1007/s11664-015-4303-6,5134,3(a),6471,x=0.9,Ca0.1Eu0.9Zn2Sb2,336.5,0.000012044,0.001198,0.00011992,2.5922,0.11548,83028.8940551312,0.0004621557
10954,10.1007/s11664-015-4303-6,5134,3(a),6471,x=0.9,Ca0.1Eu0.9Zn2Sb2,337,0.000012054,0.0011987,0.00012002,2.5907,0.1163,82960.0132736021,0.0004626935
10954,10.1007/s11664-015-4303-6,5134,3(a),6471,x=0.9,Ca0.1Eu0.9Zn2Sb2,337.5,0.000012065,0.0011994,0.00012012,2.5891,0.11713,82884.3762950684,0.0004632498
10954,10.1007/s11664-015-4303-6,5134,3(a),6471,x=0.9,Ca0.1Eu0.9Zn2Sb2,338,0.000012076,0.0012001,0.00012022,2.5875,0.11795,82808.8771116264,0.0004638068
10954,10.1007/s11664-015-4303-6,5134,3(a),6471,x=0.9,Ca0.1Eu0.9Zn2Sb2,338.5,0.000012087,0.0012008,0.00012032,2.5859,0.11878,82733.5153470671,0.0004643644
10954,10.1007/s11664-015-4303-6,5134,3(a),6471,x=0.9,Ca0.1Eu0.9Zn2Sb2,339,0.000012098,0.0012015,0.00012042,2.5843,0.1196,82658.2906265498,0.0004649228
10954,10.1007/s11664-015-4303-6,5134,3(a),6471,x=0.9,Ca0.1Eu0.9Zn2Sb2,339.5,0.000012109,0.0012022,0.00012051,2.5828,0.12043,82583.2025765959,0.0004654638
10954,10.1007/s11664-015-4303-6,5134,3(a),6471,x=0.9,Ca0.1Eu0.9Zn2Sb2,340,0.00001212,0.0012029,0.00012061,2.5812,0.12125,82508.2508250825,0.0004660236
10954,10.1007/s11664-015-4303-6,5134,3(a),6471,x=0.9,Ca0.1Eu0.9Zn2Sb2,340.5,0.000012131,0.0012036,0.00012071,2.5796,0.12207,82433.4350012365,0.000466584
10954,10.1007/s11664-015-4303-6,5134,3(a),6471,x=0.9,Ca0.1Eu0.9Zn2Sb2,341,0.000012142,0.0012043,0.00012081,2.578,0.1229,82358.7547356284,0.0004671451
10954,10.1007/s11664-015-4303-6,5134,3(a),6471,x=0.9,Ca0.1Eu0.9Zn2Sb2,341.5,0.000012153,0.001205,0.00012091,2.5765,0.12372,82284.2096601662,0.0004676887
10954,10.1007/s11664-015-4303-6,5134,3(a),6471,x=0.9,Ca0.1Eu0.9Zn2Sb2,342,0.000012164,0.0012057,0.00012101,2.5749,0.12455,82209.7994080894,0.0004682512
10954,10.1007/s11664-015-4303-6,5134,3(a),6471,x=0.9,Ca0.1Eu0.9Zn2Sb2,342.5,0.000012175,0.0012065,0.00012111,2.5733,0.12537,82135.523613963,0.0004688532
10954,10.1007/s11664-015-4303-6,5134,3(a),6471,x=0.9,Ca0.1Eu0.9Zn2Sb2,343,0.000012186,0.0012072,0.00012121,2.5717,0.12619,82061.3819136714,0.0004694171
10954,10.1007/s11664-015-4303-6,5134,3(a),6471,x=0.9,Ca0.1Eu0.9Zn2Sb2,343.5,0.000012197,0.0012079,0.0001213,2.5701,0.12702,81987.3739444126,0.0004699817
10954,10.1007/s11664-015-4303-6,5134,3(a),6471,x=0.9,Ca0.1Eu0.9Zn2Sb2,344,0.000012208,0.0012086,0.0001214,2.5686,0.12784,81913.499344692,0.0004705287
10954,10.1007/s11664-015-4303-6,5134,3(a),6471,x=0.9,Ca0.1Eu0.9Zn2Sb2,344.5,0.000012219,0.0012093,0.0001215,2.567,0.12867,81839.757754317,0.0004710947
10954,10.1007/s11664-015-4303-6,5134,3(a),6471,x=0.9,Ca0.1Eu0.9Zn2Sb2,345,0.00001223,0.00121,0.0001216,2.5654,0.12949,81766.1488143909,0.0004716613
10954,10.1007/s11664-015-4303-6,5134,3(a),6471,x=0.9,Ca0.1Eu0.9Zn2Sb2,345.5,0.000012241,0.0012107,0.0001217,2.5638,0.13031,81692.6721673066,0.0004722287
10954,10.1007/s11664-015-4303-6,5134,3(a),6471,x=0.9,Ca0.1Eu0.9Zn2Sb2,346,0.000012252,0.0012114,0.0001218,2.5622,0.13114,81619.3274567418,0.0004727968
10954,10.1007/s11664-015-4303-6,5134,3(a),6471,x=0.9,Ca0.1Eu0.9Zn2Sb2,346.5,0.000012263,0.0012121,0.0001219,2.5607,0.13196,81546.1143276523,0.0004733471
10954,10.1007/s11664-015-4303-6,5134,3(a),6471,x=0.9,Ca0.1Eu0.9Zn2Sb2,347,0.000012274,0.0012128,0.000122,2.5591,0.13279,81473.0324262669,0.0004739166
10954,10.1007/s11664-015-4303-6,5134,3(a),6471,x=0.9,Ca0.1Eu0.9Zn2Sb2,347.5,0.000012285,0.0012135,0.00012209,2.5575,0.13361,81400.0814000814,0.0004744868
10954,10.1007/s11664-015-4303-6,5134,3(a),6471,x=0.9,Ca0.1Eu0.9Zn2Sb2,348,0.000012296,0.0012142,0.00012219,2.5559,0.13443,81327.260897853,0.0004750577
10954,10.1007/s11664-015-4303-6,5134,3(a),6471,x=0.9,Ca0.1Eu0.9Zn2Sb2,348.5,0.000012307,0.0012149,0.00012229,2.5543,0.13526,81254.5705695946,0.0004756293
10954,10.1007/s11664-015-4303-6,5134,3(a),6471,x=0.9,Ca0.1Eu0.9Zn2Sb2,349,0.000012318,0.0012156,0.00012239,2.5528,0.13608,81182.0100665692,0.000476183
10954,10.1007/s11664-015-4303-6,5134,3(a),6471,x=0.9,Ca0.1Eu0.9Zn2Sb2,349.5,0.00001233,0.0012163,0.00012249,2.5512,0.13691,81103.00081103,0.000476756
10954,10.1007/s11664-015-4303-6,5134,3(a),6471,x=0.9,Ca0.1Eu0.9Zn2Sb2,350,0.000012341,0.001217,0.00012259,2.5496,0.13773,81030.7106393323,0.0004773298
10954,10.1007/s11664-015-4303-6,5134,3(a),6471,x=0.9,Ca0.1Eu0.9Zn2Sb2,350.5,0.000012352,0.0012177,0.00012269,2.548,0.13856,80958.5492227979,0.0004779042
10954,10.1007/s11664-015-4303-6,5134,3(a),6471,x=0.9,Ca0.1Eu0.9Zn2Sb2,351,0.000012363,0.0012185,0.00012279,2.5465,0.13938,80886.5162177465,0.0004784999
10954,10.1007/s11664-015-4303-6,5134,3(a),6471,x=0.9,Ca0.1Eu0.9Zn2Sb2,351.5,0.000012374,0.0012192,0.00012288,2.5449,0.1402,80814.6112817197,0.0004790758
10954,10.1007/s11664-015-4303-6,5134,3(a),6471,x=0.9,Ca0.1Eu0.9Zn2Sb2,352,0.000012385,0.0012199,0.00012298,2.5433,0.14103,80742.834073476,0.0004796524
10954,10.1007/s11664-015-4303-6,5134,3(a),6471,x=0.9,Ca0.1Eu0.9Zn2Sb2,352.5,0.000012396,0.0012206,0.00012308,2.5417,0.14185,80671.1842529848,0.0004802298
10954,10.1007/s11664-015-4303-6,5134,3(a),6471,x=0.9,Ca0.1Eu0.9Zn2Sb2,353,0.000012407,0.0012213,0.00012318,2.5401,0.14268,80599.6614814218,0.0004808078
10954,10.1007/s11664-015-4303-6,5134,3(a),6471,x=0.9,Ca0.1Eu0.9Zn2Sb2,353.5,0.000012419,0.001222,0.00012328,2.5386,0.1435,80521.7811417989,0.0004813677
10954,10.1007/s11664-015-4303-6,5134,3(a),6471,x=0.9,Ca0.1Eu0.9Zn2Sb2,354,0.00001243,0.0012227,0.00012338,2.537,0.14432,80450.522928399,0.0004819472
10954,10.1007/s11664-015-4303-6,5134,3(a),6471,x=0.9,Ca0.1Eu0.9Zn2Sb2,354.5,0.000012441,0.0012234,0.00012348,2.5354,0.14515,80379.3907242183,0.0004825274
10954,10.1007/s11664-015-4303-6,5134,3(a),6471,x=0.9,Ca0.1Eu0.9Zn2Sb2,355,0.000012452,0.0012241,0.00012358,2.5338,0.14597,80308.38419531,0.0004831084
10954,10.1007/s11664-015-4303-6,5134,3(a),6471,x=0.9,Ca0.1Eu0.9Zn2Sb2,355.5,0.000012463,0.0012248,0.00012367,2.5322,0.1468,80237.5030089064,0.0004836901
10954,10.1007/s11664-015-4303-6,5134,3(a),6471,x=0.9,Ca0.1Eu0.9Zn2Sb2,356,0.000012475,0.0012255,0.00012377,2.5307,0.14762,80160.3206412826,0.0004842534
10954,10.1007/s11664-015-4303-6,5134,3(a),6471,x=0.9,Ca0.1Eu0.9Zn2Sb2,356.5,0.000012486,0.0012262,0.00012387,2.5291,0.14844,80089.7004645203,0.0004848365
10954,10.1007/s11664-015-4303-6,5134,3(a),6471,x=0.9,Ca0.1Eu0.9Zn2Sb2,357,0.000012497,0.0012269,0.00012397,2.5275,0.14927,80019.2046091062,0.0004854204
10954,10.1007/s11664-015-4303-6,5134,3(a),6471,x=0.9,Ca0.1Eu0.9Zn2Sb2,357.5,0.000012508,0.0012276,0.00012407,2.5259,0.15009,79948.8327470419,0.000486005
10954,10.1007/s11664-015-4303-6,5134,3(a),6471,x=0.9,Ca0.1Eu0.9Zn2Sb2,358,0.000012519,0.0012283,0.00012417,2.5244,0.15092,79878.5845514817,0.0004865711
10954,10.1007/s11664-015-4303-6,5134,3(a),6471,x=0.9,Ca0.1Eu0.9Zn2Sb2,358.5,0.000012531,0.001229,0.00012427,2.5228,0.15174,79802.0908147793,0.0004871571
10954,10.1007/s11664-015-4303-6,5134,3(a),6471,x=0.9,Ca0.1Eu0.9Zn2Sb2,359,0.000012542,0.0012297,0.00012437,2.5212,0.15256,79732.1001435178,0.0004877439
10954,10.1007/s11664-015-4303-6,5134,3(a),6471,x=0.9,Ca0.1Eu0.9Zn2Sb2,359.5,0.000012553,0.0012305,0.00012446,2.5196,0.15339,79662.2321357444,0.0004883712
10954,10.1007/s11664-015-4303-6,5134,3(a),6471,x=0.9,Ca0.1Eu0.9Zn2Sb2,360,0.000012564,0.0012312,0.00012456,2.518,0.15421,79592.4864692773,0.0004889595
10954,10.1007/s11664-015-4303-6,5134,3(a),6471,x=0.9,Ca0.1Eu0.9Zn2Sb2,360.5,0.000012576,0.0012319,0.00012466,2.5165,0.15504,79516.5394402036,0.0004895291
10954,10.1007/s11664-015-4303-6,5134,3(a),6471,x=0.9,Ca0.1Eu0.9Zn2Sb2,361,0.000012587,0.0012326,0.00012476,2.5149,0.15586,79447.0485421467,0.0004901189
10954,10.1007/s11664-015-4303-6,5134,3(a),6471,x=0.9,Ca0.1Eu0.9Zn2Sb2,361.5,0.000012598,0.0012333,0.00012486,2.5133,0.15669,79377.6789966661,0.0004907094
10954,10.1007/s11664-015-4303-6,5134,3(a),6471,x=0.9,Ca0.1Eu0.9Zn2Sb2,362,0.00001261,0.001234,0.00012496,2.5117,0.15751,79302.1411578113,0.0004913007
10954,10.1007/s11664-015-4303-6,5134,3(a),6471,x=0.9,Ca0.1Eu0.9Zn2Sb2,362.5,0.000012621,0.0012347,0.00012506,2.5101,0.15833,79233.0243245385,0.0004918928
10954,10.1007/s11664-015-4303-6,5134,3(a),6471,x=0.9,Ca0.1Eu0.9Zn2Sb2,363,0.000012632,0.0012354,0.00012516,2.5086,0.15916,79164.0278657378,0.0004924659
10954,10.1007/s11664-015-4303-6,5134,3(a),6471,x=0.9,Ca0.1Eu0.9Zn2Sb2,363.5,0.000012643,0.0012361,0.00012525,2.507,0.15998,79095.1514672151,0.0004930594
10954,10.1007/s11664-015-4303-6,5134,3(a),6471,x=0.9,Ca0.1Eu0.9Zn2Sb2,364,0.000012655,0.0012368,0.00012535,2.5054,0.16081,79020.1501382853,0.0004936537
10954,10.1007/s11664-015-4303-6,5134,3(a),6471,x=0.9,Ca0.1Eu0.9Zn2Sb2,364.5,0.000012666,0.0012375,0.00012545,2.5038,0.16163,78951.5237644086,0.0004942487
10954,10.1007/s11664-015-4303-6,5134,3(a),6471,x=0.9,Ca0.1Eu0.9Zn2Sb2,365,0.000012677,0.0012382,0.00012555,2.5022,0.16245,78883.0164865504,0.0004948445
10954,10.1007/s11664-015-4303-6,5134,3(a),6471,x=0.9,Ca0.1Eu0.9Zn2Sb2,365.5,0.000012689,0.0012389,0.00012565,2.5007,0.16328,78808.4167389077,0.0004954213
10954,10.1007/s11664-015-4303-6,5134,3(a),6471,x=0.9,Ca0.1Eu0.9Zn2Sb2,366,0.0000127,0.0012396,0.00012575,2.4991,0.1641,78740.157480315,0.0004960186
10954,10.1007/s11664-015-4303-6,5134,3(a),6471,x=0.9,Ca0.1Eu0.9Zn2Sb2,366.5,0.000012712,0.0012403,0.00012585,2.4975,0.16493,78665.827564506,0.0004966166
10954,10.1007/s11664-015-4303-6,5134,3(a),6471,x=0.9,Ca0.1Eu0.9Zn2Sb2,367,0.000012723,0.001241,0.00012595,2.4959,0.16575,78597.8149807435,0.0004972154
10954,10.1007/s11664-015-4303-6,5134,3(a),6471,x=0.9,Ca0.1Eu0.9Zn2Sb2,367.5,0.000012734,0.0012417,0.00012604,2.4944,0.16657,78529.9198994817,0.0004977951
10954,10.1007/s11664-015-4303-6,5134,3(a),6471,x=0.9,Ca0.1Eu0.9Zn2Sb2,368,0.000012746,0.0012425,0.00012614,2.4928,0.1674,78455.9861917464,0.0004984355
10954,10.1007/s11664-015-4303-6,5134,3(a),6471,x=0.9,Ca0.1Eu0.9Zn2Sb2,368.5,0.000012757,0.0012432,0.00012624,2.4912,0.16822,78388.3358156306,0.0004990366
10954,10.1007/s11664-015-4303-6,5134,3(a),6471,x=0.9,Ca0.1Eu0.9Zn2Sb2,369,0.000012768,0.0012439,0.00012634,2.4896,0.16905,78320.8020050125,0.0004996385
10954,10.1007/s11664-015-4303-6,5134,3(a),6471,x=0.9,Ca0.1Eu0.9Zn2Sb2,369.5,0.00001278,0.0012446,0.00012644,2.488,0.16987,78247.2613458529,0.0005002412
10954,10.1007/s11664-015-4303-6,5134,3(a),6471,x=0.9,Ca0.1Eu0.9Zn2Sb2,370,0.000012791,0.0012453,0.00012654,2.4865,0.17069,78179.9702916113,0.0005008245
10954,10.1007/s11664-015-4303-6,5134,3(a),6471,x=0.9,Ca0.1Eu0.9Zn2Sb2,370.5,0.000012803,0.001246,0.00012664,2.4849,0.17152,78106.6937436538,0.0005014286
10954,10.1007/s11664-015-4303-6,5134,3(a),6471,x=0.9,Ca0.1Eu0.9Zn2Sb2,371,0.000012814,0.0012467,0.00012674,2.4833,0.17234,78039.6441392227,0.0005020336
10954,10.1007/s11664-015-4303-6,5134,3(a),6471,x=0.9,Ca0.1Eu0.9Zn2Sb2,371.5,0.000012826,0.0012474,0.00012683,2.4817,0.17317,77966.6302822392,0.0005026393
10954,10.1007/s11664-015-4303-6,5134,3(a),6471,x=0.9,Ca0.1Eu0.9Zn2Sb2,372,0.000012837,0.0012481,0.00012693,2.4801,0.17399,77899.8208304121,0.0005032458
10954,10.1007/s11664-015-4303-6,5134,3(a),6471,x=0.9,Ca0.1Eu0.9Zn2Sb2,372.5,0.000012849,0.0012488,0.00012703,2.4786,0.17482,77827.0682543389,0.0005038328
10954,10.1007/s11664-015-4303-6,5134,3(a),6471,x=0.9,Ca0.1Eu0.9Zn2Sb2,373,0.00001286,0.0012495,0.00012713,2.477,0.17564,77760.4976671851,0.0005044409
10954,10.1007/s11664-015-4303-6,5134,3(a),6471,x=0.9,Ca0.1Eu0.9Zn2Sb2,373.5,0.000012871,0.0012502,0.00012723,2.4754,0.17646,77694.0408670655,0.0005050497
10954,10.1007/s11664-015-4303-6,5134,3(a),6471,x=0.9,Ca0.1Eu0.9Zn2Sb2,374,0.000012883,0.0012509,0.00012733,2.4738,0.17729,77621.6719708142,0.0005056593
10954,10.1007/s11664-015-4303-6,5134,3(a),6471,x=0.9,Ca0.1Eu0.9Zn2Sb2,374.5,0.000012894,0.0012516,0.00012743,2.4722,0.17811,77555.452148286,0.0005062697
10954,10.1007/s11664-015-4303-6,5134,3(a),6471,x=0.9,Ca0.1Eu0.9Zn2Sb2,375,0.000012906,0.0012523,0.00012753,2.4707,0.17894,77483.3410816674,0.0005068604
10954,10.1007/s11664-015-4303-6,5134,3(a),6471,x=0.9,Ca0.1Eu0.9Zn2Sb2,375.5,0.000012917,0.001253,0.00012762,2.4691,0.17976,77417.356971433,0.0005074724
10954,10.1007/s11664-015-4303-6,5134,3(a),6471,x=0.9,Ca0.1Eu0.9Zn2Sb2,376,0.000012929,0.0012537,0.00012772,2.4675,0.18058,77345.5023590378,0.0005080851
10954,10.1007/s11664-015-4303-6,5134,3(a),6471,x=0.9,Ca0.1Eu0.9Zn2Sb2,376.5,0.00001294,0.0012545,0.00012782,2.4659,0.18141,77279.7527047913,0.0005087392
10954,10.1007/s11664-015-4303-6,5134,3(a),6471,x=0.9,Ca0.1Eu0.9Zn2Sb2,377,0.000012952,0.0012552,0.00012792,2.4644,0.18223,77208.1531809759,0.0005093329
10954,10.1007/s11664-015-4303-6,5134,3(a),6471,x=0.9,Ca0.1Eu0.9Zn2Sb2,377.5,0.000012964,0.0012559,0.00012802,2.4628,0.18306,77136.6862079605,0.000509948
10954,10.1007/s11664-015-4303-6,5134,3(a),6471,x=0.9,Ca0.1Eu0.9Zn2Sb2,378,0.000012975,0.0012566,0.00012812,2.4612,0.18388,77071.2909441233,0.000510564
10954,10.1007/s11664-015-4303-6,5134,3(a),6471,x=0.9,Ca0.1Eu0.9Zn2Sb2,378.5,0.000012987,0.0012573,0.00012822,2.4596,0.1847,77000.077000077,0.0005111807
10954,10.1007/s11664-015-4303-6,5134,3(a),6471,x=0.9,Ca0.1Eu0.9Zn2Sb2,379,0.000012998,0.001258,0.00012832,2.458,0.18553,76934.9130635482,0.0005117982
10954,10.1007/s11664-015-4303-6,5134,3(a),6471,x=0.9,Ca0.1Eu0.9Zn2Sb2,379.5,0.00001301,0.0012587,0.00012841,2.4565,0.18635,76863.9508070715,0.0005123957
10954,10.1007/s11664-015-4303-6,5134,3(a),6471,x=0.9,Ca0.1Eu0.9Zn2Sb2,380,0.000013021,0.0012594,0.00012851,2.4549,0.18718,76799.0169725828,0.0005130148
10954,10.1007/s11664-015-4303-6,5134,3(a),6471,x=0.9,Ca0.1Eu0.9Zn2Sb2,380.5,0.000013033,0.0012601,0.00012861,2.4533,0.188,76728.305071741,0.0005136347
10954,10.1007/s11664-015-4303-6,5134,3(a),6471,x=0.9,Ca0.1Eu0.9Zn2Sb2,381,0.000013045,0.0012608,0.00012871,2.4517,0.18882,76657.723265619,0.0005142554
10954,10.1007/s11664-015-4303-6,5134,3(a),6471,x=0.9,Ca0.1Eu0.9Zn2Sb2,381.5,0.000013056,0.0012615,0.00012881,2.4501,0.18965,76593.137254902,0.0005148769
10954,10.1007/s11664-015-4303-6,5134,3(a),6471,x=0.9,Ca0.1Eu0.9Zn2Sb2,382,0.000013068,0.0012622,0.00012891,2.4486,0.19047,76522.8037955311,0.0005154782
10954,10.1007/s11664-015-4303-6,5134,3(a),6471,x=0.9,Ca0.1Eu0.9Zn2Sb2,382.5,0.000013079,0.0012629,0.00012901,2.447,0.1913,76458.444835232,0.0005161013
10954,10.1007/s11664-015-4303-6,5134,3(a),6471,x=0.9,Ca0.1Eu0.9Zn2Sb2,383,0.000013091,0.0012636,0.00012911,2.4454,0.19212,76388.3584141777,0.0005167253
10954,10.1007/s11664-015-4303-6,5134,3(a),6471,x=0.9,Ca0.1Eu0.9Zn2Sb2,383.5,0.000013103,0.0012643,0.0001292,2.4438,0.19295,76318.4003663283,0.00051735
10954,10.1007/s11664-015-4303-6,5134,3(a),6471,x=0.9,Ca0.1Eu0.9Zn2Sb2,384,0.000013114,0.001265,0.0001293,2.4423,0.19377,76254.3846271161,0.0005179544
10954,10.1007/s11664-015-4303-6,5134,3(a),6471,x=0.9,Ca0.1Eu0.9Zn2Sb2,384.5,0.000013126,0.0012657,0.0001294,2.4407,0.19459,76184.6716440652,0.0005185807
10954,10.1007/s11664-015-4303-6,5134,3(a),6471,x=0.9,Ca0.1Eu0.9Zn2Sb2,385,0.000013138,0.0012665,0.0001295,2.4391,0.19542,76115.0860100472,0.0005192489
10954,10.1007/s11664-015-4303-6,5134,3(a),6471,x=0.9,Ca0.1Eu0.9Zn2Sb2,385.5,0.000013149,0.0012672,0.0001296,2.4375,0.19624,76051.4107536695,0.0005198769
10954,10.1007/s11664-015-4303-6,5134,3(a),6471,x=0.9,Ca0.1Eu0.9Zn2Sb2,386,0.000013161,0.0012679,0.0001297,2.4359,0.19707,75982.0682318973,0.0005205058
10954,10.1007/s11664-015-4303-6,5134,3(a),6471,x=0.9,Ca0.1Eu0.9Zn2Sb2,386.5,0.000013173,0.0012686,0.0001298,2.4344,0.19789,75912.8520458514,0.000521114
10954,10.1007/s11664-015-4303-6,5134,3(a),6471,x=0.9,Ca0.1Eu0.9Zn2Sb2,387,0.000013184,0.0012693,0.0001299,2.4328,0.19871,75849.5145631068,0.0005217445
10954,10.1007/s11664-015-4303-6,5134,3(a),6471,x=0.9,Ca0.1Eu0.9Zn2Sb2,387.5,0.000013196,0.00127,0.00012999,2.4312,0.19954,75780.5395574416,0.0005223758
10954,10.1007/s11664-015-4303-6,5134,3(a),6471,x=0.9,Ca0.1Eu0.9Zn2Sb2,388,0.000013208,0.0012707,0.00013009,2.4296,0.20036,75711.6898849182,0.0005230079
10954,10.1007/s11664-015-4303-6,5134,3(a),6471,x=0.9,Ca0.1Eu0.9Zn2Sb2,388.5,0.000013219,0.0012714,0.00013019,2.428,0.20119,75648.687495272,0.0005236409
10954,10.1007/s11664-015-4303-6,5134,3(a),6471,x=0.9,Ca0.1Eu0.9Zn2Sb2,389,0.000013231,0.0012721,0.00013029,2.4265,0.20201,75580.0770916786,0.000524253
10954,10.1007/s11664-015-4303-6,5134,3(a),6471,x=0.9,Ca0.1Eu0.9Zn2Sb2,389.5,0.000013243,0.0012728,0.00013039,2.4249,0.20283,75511.591029223,0.0005248876
10954,10.1007/s11664-015-4303-6,5134,3(a),6471,x=0.9,Ca0.1Eu0.9Zn2Sb2,390,0.000013255,0.0012735,0.00013049,2.4233,0.20366,75443.2289701999,0.000525523
10954,10.1007/s11664-015-4303-6,5134,3(a),6471,x=0.9,Ca0.1Eu0.9Zn2Sb2,390.5,0.000013266,0.0012742,0.00013059,2.4217,0.20448,75380.6723955978,0.0005261593