sid,DOI,figureid,fignum,sampleid,samplename,composition,Temperature,Electrical resistivity,Power factor,Seebeck coefficient,Thermal conductivity,ZT,Electrical conductivity,Figure of merit Z
10954,10.1007/s11664-015-4303-6,5134,3(a),6471,x=0.9,Ca0.1Eu0.9Zn2Sb2,391,0.000013278,0.0012749,0.00013069,2.4201,0.20531,75312.5470703419,0.0005267964
10954,10.1007/s11664-015-4303-6,5134,3(a),6471,x=0.9,Ca0.1Eu0.9Zn2Sb2,391.5,0.00001329,0.0012756,0.00013078,2.4186,0.20613,75244.5447705041,0.0005274126
10954,10.1007/s11664-015-4303-6,5134,3(a),6471,x=0.9,Ca0.1Eu0.9Zn2Sb2,392,0.000013302,0.0012763,0.00013088,2.417,0.20695,75176.6651631334,0.0005280513
10954,10.1007/s11664-015-4303-6,5134,3(a),6471,x=0.9,Ca0.1Eu0.9Zn2Sb2,392.5,0.000013313,0.001277,0.00013098,2.4154,0.20778,75114.5496882746,0.0005286909
10954,10.1007/s11664-015-4303-6,5134,3(a),6471,x=0.9,Ca0.1Eu0.9Zn2Sb2,393,0.000013325,0.0012777,0.00013108,2.4138,0.2086,75046.904315197,0.0005293313
10954,10.1007/s11664-015-4303-6,5134,3(a),6471,x=0.9,Ca0.1Eu0.9Zn2Sb2,393.5,0.000013337,0.0012785,0.00013118,2.4123,0.20943,74979.3806703157,0.0005299921
10954,10.1007/s11664-015-4303-6,5134,3(a),6471,x=0.9,Ca0.1Eu0.9Zn2Sb2,394,0.000013349,0.0012792,0.00013128,2.4107,0.21025,74911.9784253502,0.0005306343
10954,10.1007/s11664-015-4303-6,5134,3(a),6471,x=0.9,Ca0.1Eu0.9Zn2Sb2,394.5,0.00001336,0.0012799,0.00013138,2.4091,0.21108,74850.2994011976,0.0005312772
10954,10.1007/s11664-015-4303-6,5134,3(a),6471,x=0.9,Ca0.1Eu0.9Zn2Sb2,395,0.000013372,0.0012806,0.00013148,2.4075,0.2119,74783.1289261143,0.0005319211
10954,10.1007/s11664-015-4303-6,5134,3(a),6471,x=0.9,Ca0.1Eu0.9Zn2Sb2,395.5,0.000013384,0.0012813,0.00013157,2.4059,0.21272,74716.0789001793,0.0005325658
10954,10.1007/s11664-015-4303-6,5134,3(a),6471,x=0.9,Ca0.1Eu0.9Zn2Sb2,396,0.000013396,0.001282,0.00013167,2.4044,0.21355,74649.1489997014,0.0005331892
10954,10.1007/s11664-015-4303-6,5134,3(a),6471,x=0.9,Ca0.1Eu0.9Zn2Sb2,396.5,0.000013408,0.0012827,0.00013177,2.4028,0.21437,74582.338902148,0.0005338355
10954,10.1007/s11664-015-4303-6,5134,3(a),6471,x=0.9,Ca0.1Eu0.9Zn2Sb2,397,0.00001342,0.0012834,0.00013187,2.4012,0.2152,74515.6482861401,0.0005344828
10954,10.1007/s11664-015-4303-6,5134,3(a),6471,x=0.9,Ca0.1Eu0.9Zn2Sb2,397.5,0.000013431,0.0012841,0.00013197,2.3996,0.21602,74454.6199091654,0.0005351309
10954,10.1007/s11664-015-4303-6,5134,3(a),6471,x=0.9,Ca0.1Eu0.9Zn2Sb2,398,0.000013443,0.0012848,0.00013207,2.398,0.21684,74388.1574053411,0.0005357798
10954,10.1007/s11664-015-4303-6,5134,3(a),6471,x=0.9,Ca0.1Eu0.9Zn2Sb2,398.5,0.000013455,0.0012855,0.00013217,2.3965,0.21767,74321.8134522482,0.0005364073
10954,10.1007/s11664-015-4303-6,5134,3(a),6471,x=0.9,Ca0.1Eu0.9Zn2Sb2,399,0.000013467,0.0012862,0.00013227,2.3949,0.21849,74255.5877329769,0.0005370579
10954,10.1007/s11664-015-4303-6,5134,3(a),6471,x=0.9,Ca0.1Eu0.9Zn2Sb2,399.5,0.000013479,0.0012869,0.00013236,2.3933,0.21932,74189.4799317457,0.0005377094
10954,10.1007/s11664-015-4303-6,5134,3(a),6471,x=0.9,Ca0.1Eu0.9Zn2Sb2,400,0.000013491,0.0012876,0.00013246,2.3917,0.22014,74123.4897338967,0.0005383618
10954,10.1007/s11664-015-4303-6,5134,3(a),6471,x=0.9,Ca0.1Eu0.9Zn2Sb2,400.5,0.000013503,0.0012883,0.00013256,2.3902,0.22096,74057.6168258906,0.0005389926
10954,10.1007/s11664-015-4303-6,5134,3(a),6471,x=0.9,Ca0.1Eu0.9Zn2Sb2,401,0.000013515,0.001289,0.00013266,2.3886,0.22179,73991.8608953015,0.0005396467
10954,10.1007/s11664-015-4303-6,5134,3(a),6471,x=0.9,Ca0.1Eu0.9Zn2Sb2,401.5,0.000013527,0.0012897,0.00013276,2.387,0.22261,73926.2216308124,0.0005403016
10954,10.1007/s11664-015-4303-6,5134,3(a),6471,x=0.9,Ca0.1Eu0.9Zn2Sb2,402,0.000013538,0.0012905,0.00013286,2.3854,0.22344,73866.1545279953,0.0005409994
10954,10.1007/s11664-015-4303-6,5134,3(a),6471,x=0.9,Ca0.1Eu0.9Zn2Sb2,402.5,0.00001355,0.0012912,0.00013296,2.3838,0.22426,73800.7380073801,0.0005416562
10954,10.1007/s11664-015-4303-6,5134,3(a),6471,x=0.9,Ca0.1Eu0.9Zn2Sb2,403,0.000013562,0.0012919,0.00013306,2.3823,0.22508,73735.4372511429,0.0005422911
10954,10.1007/s11664-015-4303-6,5134,3(a),6471,x=0.9,Ca0.1Eu0.9Zn2Sb2,403.5,0.000013574,0.0012926,0.00013315,2.3807,0.22591,73670.2519522617,0.0005429496
10954,10.1007/s11664-015-4303-6,5134,3(a),6471,x=0.9,Ca0.1Eu0.9Zn2Sb2,404,0.000013586,0.0012933,0.00013325,2.3791,0.22673,73605.1818047991,0.0005436089
10954,10.1007/s11664-015-4303-6,5134,3(a),6471,x=0.9,Ca0.1Eu0.9Zn2Sb2,404.5,0.000013598,0.001294,0.00013335,2.3775,0.22756,73540.2265038976,0.0005442692
10954,10.1007/s11664-015-4303-6,5134,3(a),6471,x=0.9,Ca0.1Eu0.9Zn2Sb2,405,0.00001361,0.0012947,0.00013345,2.3759,0.22838,73475.3857457752,0.0005449303
10954,10.1007/s11664-015-4303-6,5134,3(a),6471,x=0.9,Ca0.1Eu0.9Zn2Sb2,405.5,0.000013622,0.0012954,0.00013355,2.3744,0.22921,73410.6592277199,0.0005455694
10954,10.1007/s11664-015-4303-6,5134,3(a),6471,x=0.9,Ca0.1Eu0.9Zn2Sb2,406,0.000013634,0.0012961,0.00013365,2.3728,0.23003,73346.0466480857,0.0005462323
10954,10.1007/s11664-015-4303-6,5134,3(a),6471,x=0.9,Ca0.1Eu0.9Zn2Sb2,406.5,0.000013646,0.0012968,0.00013375,2.3712,0.23085,73281.5477062876,0.0005468961
10954,10.1007/s11664-015-4303-6,5134,3(a),6471,x=0.9,Ca0.1Eu0.9Zn2Sb2,407,0.000013658,0.0012975,0.00013385,2.3696,0.23168,73217.1621027969,0.0005475608
10954,10.1007/s11664-015-4303-6,5134,3(a),6471,x=0.9,Ca0.1Eu0.9Zn2Sb2,407.5,0.00001367,0.0012982,0.00013394,2.368,0.2325,73152.8895391368,0.0005482264
10954,10.1007/s11664-015-4303-6,5134,3(a),6471,x=0.9,Ca0.1Eu0.9Zn2Sb2,408,0.000013682,0.0012989,0.00013404,2.3665,0.23333,73088.7297178775,0.0005488696
10954,10.1007/s11664-015-4303-6,5134,3(a),6471,x=0.9,Ca0.1Eu0.9Zn2Sb2,408.5,0.000013694,0.0012996,0.00013414,2.3649,0.23415,73024.6823426318,0.000549537
10954,10.1007/s11664-015-4303-6,5134,3(a),6471,x=0.9,Ca0.1Eu0.9Zn2Sb2,409,0.000013706,0.0013003,0.00013424,2.3633,0.23497,72960.7471180505,0.0005502052
10954,10.1007/s11664-015-4303-6,5134,3(a),6471,x=0.9,Ca0.1Eu0.9Zn2Sb2,409.5,0.000013718,0.001301,0.00013434,2.3617,0.2358,72896.9237498178,0.0005508744
10954,10.1007/s11664-015-4303-6,5134,3(a),6471,x=0.9,Ca0.1Eu0.9Zn2Sb2,410,0.00001373,0.0013017,0.00013444,2.3602,0.23662,72833.2119446468,0.0005515211
10954,10.1007/s11664-015-4303-6,5134,3(a),6471,x=0.9,Ca0.1Eu0.9Zn2Sb2,410.5,0.000013742,0.0013025,0.00013454,2.3586,0.23745,72769.6114102751,0.0005522344
10954,10.1007/s11664-015-4303-6,5134,3(a),6471,x=0.9,Ca0.1Eu0.9Zn2Sb2,411,0.000013754,0.0013032,0.00013464,2.357,0.23827,72706.1218554602,0.0005529062
10954,10.1007/s11664-015-4303-6,5134,3(a),6471,x=0.9,Ca0.1Eu0.9Zn2Sb2,411.5,0.000013767,0.0013039,0.00013473,2.3554,0.23909,72637.4664051718,0.000553579
10954,10.1007/s11664-015-4303-6,5134,3(a),6471,x=0.9,Ca0.1Eu0.9Zn2Sb2,412,0.000013779,0.0013046,0.00013483,2.3538,0.23992,72574.2071267871,0.0005542527
10954,10.1007/s11664-015-4303-6,5134,3(a),6471,x=0.9,Ca0.1Eu0.9Zn2Sb2,412.5,0.000013791,0.0013053,0.00013493,2.3523,0.24074,72511.0579363353,0.0005549037
10954,10.1007/s11664-015-4303-6,5134,3(a),6471,x=0.9,Ca0.1Eu0.9Zn2Sb2,413,0.000013803,0.001306,0.00013503,2.3507,0.24157,72448.0185466928,0.0005555792
10954,10.1007/s11664-015-4303-6,5134,3(a),6471,x=0.9,Ca0.1Eu0.9Zn2Sb2,413.5,0.000013815,0.0013067,0.00013513,2.3491,0.24239,72385.0886717336,0.0005562556
10954,10.1007/s11664-015-4303-6,5134,3(a),6471,x=0.9,Ca0.1Eu0.9Zn2Sb2,414,0.000013827,0.0013074,0.00013523,2.3475,0.24321,72322.2680263253,0.0005569329
10954,10.1007/s11664-015-4303-6,5134,3(a),6471,x=0.9,Ca0.1Eu0.9Zn2Sb2,414.5,0.000013839,0.0013081,0.00013533,2.3459,0.24404,72259.5563263241,0.0005576112
10954,10.1007/s11664-015-4303-6,5134,3(a),6471,x=0.9,Ca0.1Eu0.9Zn2Sb2,415,0.000013851,0.0013088,0.00013543,2.3444,0.24486,72196.9532885712,0.0005582665
10954,10.1007/s11664-015-4303-6,5134,3(a),6471,x=0.9,Ca0.1Eu0.9Zn2Sb2,415.5,0.000013863,0.0013095,0.00013552,2.3428,0.24569,72134.458630888,0.0005589466
10954,10.1007/s11664-015-4303-6,5134,3(a),6471,x=0.9,Ca0.1Eu0.9Zn2Sb2,416,0.000013876,0.0013102,0.00013562,2.3412,0.24651,72066.8780628423,0.0005596275
10954,10.1007/s11664-015-4303-6,5134,3(a),6471,x=0.9,Ca0.1Eu0.9Zn2Sb2,416.5,0.000013888,0.0013109,0.00013572,2.3396,0.24734,72004.6082949309,0.0005603095
10954,10.1007/s11664-015-4303-6,5134,3(a),6471,x=0.9,Ca0.1Eu0.9Zn2Sb2,417,0.0000139,0.0013116,0.00013582,2.3381,0.24816,71942.4460431655,0.0005609683
10954,10.1007/s11664-015-4303-6,5134,3(a),6471,x=0.9,Ca0.1Eu0.9Zn2Sb2,417.5,0.000013912,0.0013123,0.00013592,2.3365,0.24898,71880.3910293272,0.000561652
10954,10.1007/s11664-015-4303-6,5134,3(a),6471,x=0.9,Ca0.1Eu0.9Zn2Sb2,418,0.000013924,0.001313,0.00013602,2.3349,0.24981,71818.4429761563,0.0005623367
10954,10.1007/s11664-015-4303-6,5134,3(a),6471,x=0.9,Ca0.1Eu0.9Zn2Sb2,418.5,0.000013936,0.0013137,0.00013612,2.3333,0.25063,71756.6016073479,0.0005630223
10954,10.1007/s11664-015-4303-6,5134,3(a),6471,x=0.9,Ca0.1Eu0.9Zn2Sb2,419,0.000013949,0.0013145,0.00013622,2.3317,0.25146,71689.7268621407,0.0005637518
10954,10.1007/s11664-015-4303-6,5134,3(a),6471,x=0.9,Ca0.1Eu0.9Zn2Sb2,419.5,0.000013961,0.0013152,0.00013631,2.3302,0.25228,71628.1068691354,0.0005644151
10954,10.1007/s11664-015-4303-6,5134,3(a),6471,x=0.9,Ca0.1Eu0.9Zn2Sb2,420,0.000013973,0.0013159,0.00013641,2.3286,0.2531,71566.5927145209,0.0005651035
10954,10.1007/s11664-015-4303-6,5134,3(a),6471,x=0.9,Ca0.1Eu0.9Zn2Sb2,420.5,0.000013985,0.0013166,0.00013651,2.327,0.25393,71505.1841258491,0.0005657929
10954,10.1007/s11664-015-4303-6,5134,3(a),6471,x=0.9,Ca0.1Eu0.9Zn2Sb2,421,0.000013997,0.0013173,0.00013661,2.3254,0.25475,71443.8808316068,0.0005664832
10954,10.1007/s11664-015-4303-6,5134,3(a),6471,x=0.9,Ca0.1Eu0.9Zn2Sb2,421.5,0.00001401,0.001318,0.00013671,2.3238,0.25558,71377.5874375446,0.0005671745
10954,10.1007/s11664-015-4303-6,5134,3(a),6471,x=0.9,Ca0.1Eu0.9Zn2Sb2,422,0.000014022,0.0013187,0.00013681,2.3223,0.2564,71316.5026387106,0.0005678422
10954,10.1007/s11664-015-4303-6,5134,3(a),6471,x=0.9,Ca0.1Eu0.9Zn2Sb2,422.5,0.000014034,0.0013194,0.00013691,2.3207,0.25722,71255.5223029785,0.0005685354
10954,10.1007/s11664-015-4303-6,5134,3(a),6471,x=0.9,Ca0.1Eu0.9Zn2Sb2,423,0.000014046,0.0013201,0.000137,2.3191,0.25805,71194.6461626086,0.0005692294
10954,10.1007/s11664-015-4303-6,5134,3(a),6471,x=0.9,Ca0.1Eu0.9Zn2Sb2,423.5,0.000014059,0.0013208,0.0001371,2.3175,0.25887,71128.8142826659,0.0005699245
10954,10.1007/s11664-015-4303-6,5134,3(a),6471,x=0.9,Ca0.1Eu0.9Zn2Sb2,424,0.000014071,0.0013215,0.0001372,2.3159,0.2597,71068.1543600313,0.0005706205
10954,10.1007/s11664-015-4303-6,5134,3(a),6471,x=0.9,Ca0.1Eu0.9Zn2Sb2,424.5,0.000014083,0.0013222,0.0001373,2.3144,0.26052,71007.597812966,0.0005712928
10954,10.1007/s11664-015-4303-6,5134,3(a),6471,x=0.9,Ca0.1Eu0.9Zn2Sb2,425,0.000014095,0.0013229,0.0001374,2.3128,0.26134,70947.1443774388,0.0005719907
10954,10.1007/s11664-015-4303-6,5134,3(a),6471,x=0.9,Ca0.1Eu0.9Zn2Sb2,425.5,0.000014108,0.0013236,0.0001375,2.3112,0.26217,70881.7692089595,0.0005726895
10954,10.1007/s11664-015-4303-6,5134,3(a),6471,x=0.9,Ca0.1Eu0.9Zn2Sb2,426,0.00001412,0.0013243,0.0001376,2.3096,0.26299,70821.5297450425,0.0005733893
10954,10.1007/s11664-015-4303-6,5134,3(a),6471,x=0.9,Ca0.1Eu0.9Zn2Sb2,426.5,0.000014132,0.001325,0.0001377,2.3081,0.26382,70761.3925842061,0.0005740652
10954,10.1007/s11664-015-4303-6,5134,3(a),6471,x=0.9,Ca0.1Eu0.9Zn2Sb2,427,0.000014145,0.0013257,0.00013779,2.3065,0.26464,70696.3591375044,0.000574767
10954,10.1007/s11664-015-4303-6,5134,3(a),6471,x=0.9,Ca0.1Eu0.9Zn2Sb2,427.5,0.000014157,0.0013265,0.00013789,2.3049,0.26547,70636.4342727979,0.000575513
10954,10.1007/s11664-015-4303-6,5134,3(a),6471,x=0.9,Ca0.1Eu0.9Zn2Sb2,428,0.000014169,0.0013272,0.00013799,2.3033,0.26629,70576.610911144,0.0005762167
10954,10.1007/s11664-015-4303-6,5134,3(a),6471,x=0.9,Ca0.1Eu0.9Zn2Sb2,428.5,0.000014182,0.0013279,0.00013809,2.3017,0.26711,70511.9165138908,0.0005769214
10954,10.1007/s11664-015-4303-6,5134,3(a),6471,x=0.9,Ca0.1Eu0.9Zn2Sb2,429,0.000014194,0.0013286,0.00013819,2.3002,0.26794,70452.3037903339,0.0005776019
10954,10.1007/s11664-015-4303-6,5134,3(a),6471,x=0.9,Ca0.1Eu0.9Zn2Sb2,429.5,0.000014206,0.0013293,0.00013829,2.2986,0.26876,70392.7917781219,0.0005783085
10954,10.1007/s11664-015-4303-6,5134,3(a),6471,x=0.9,Ca0.1Eu0.9Zn2Sb2,430,0.000014219,0.00133,0.00013839,2.297,0.26959,70328.4337857796,0.0005790161
10954,10.1007/s11664-015-4303-6,5134,3(a),6471,x=0.9,Ca0.1Eu0.9Zn2Sb2,430.5,0.000014231,0.0013307,0.00013849,2.2954,0.27041,70269.1307708524,0.0005797247
10954,10.1007/s11664-015-4303-6,5134,3(a),6471,x=0.9,Ca0.1Eu0.9Zn2Sb2,431,0.000014243,0.0013314,0.00013858,2.2938,0.27123,70209.9276837745,0.0005804342
10954,10.1007/s11664-015-4303-6,5134,3(a),6471,x=0.9,Ca0.1Eu0.9Zn2Sb2,431.5,0.000014256,0.0013321,0.00013868,2.2923,0.27206,70145.9034792368,0.0005811194
10954,10.1007/s11664-015-4303-6,5134,3(a),6471,x=0.9,Ca0.1Eu0.9Zn2Sb2,432,0.000014268,0.0013328,0.00013878,2.2907,0.27288,70086.9077656294,0.0005818309
10954,10.1007/s11664-015-4303-6,5134,3(a),6471,x=0.9,Ca0.1Eu0.9Zn2Sb2,432.5,0.000014281,0.0013335,0.00013888,2.2891,0.27371,70023.1076255164,0.0005825434
10954,10.1007/s11664-015-4303-6,5134,3(a),6471,x=0.9,Ca0.1Eu0.9Zn2Sb2,433,0.000014293,0.0013342,0.00013898,2.2875,0.27453,69964.3181977192,0.0005832568
10954,10.1007/s11664-015-4303-6,5134,3(a),6471,x=0.9,Ca0.1Eu0.9Zn2Sb2,433.5,0.000014305,0.0013349,0.00013908,2.286,0.27535,69905.6274030059,0.0005839458
10954,10.1007/s11664-015-4303-6,5134,3(a),6471,x=0.9,Ca0.1Eu0.9Zn2Sb2,434,0.000014318,0.0013356,0.00013918,2.2844,0.27618,69842.1567257997,0.0005846612
10954,10.1007/s11664-015-4303-6,5134,3(a),6471,x=0.9,Ca0.1Eu0.9Zn2Sb2,434.5,0.00001433,0.0013363,0.00013928,2.2828,0.277,69783.6706210747,0.0005853776
10954,10.1007/s11664-015-4303-6,5134,3(a),6471,x=0.9,Ca0.1Eu0.9Zn2Sb2,435,0.000014343,0.001337,0.00013937,2.2812,0.27783,69720.4211113435,0.000586095
10954,10.1007/s11664-015-4303-6,5134,3(a),6471,x=0.9,Ca0.1Eu0.9Zn2Sb2,435.5,0.000014355,0.0013377,0.00013947,2.2796,0.27865,69662.1386276559,0.0005868135
10954,10.1007/s11664-015-4303-6,5134,3(a),6471,x=0.9,Ca0.1Eu0.9Zn2Sb2,436,0.000014368,0.0013385,0.00013957,2.2781,0.27947,69599.1091314031,0.000587551
10954,10.1007/s11664-015-4303-6,5134,3(a),6471,x=0.9,Ca0.1Eu0.9Zn2Sb2,436.5,0.00001438,0.0013392,0.00013967,2.2765,0.2803,69541.0292072323,0.0005882715
10954,10.1007/s11664-015-4303-6,5134,3(a),6471,x=0.9,Ca0.1Eu0.9Zn2Sb2,437,0.000014393,0.0013399,0.00013977,2.2749,0.28112,69478.2185784757,0.0005889929
10954,10.1007/s11664-015-4303-6,5134,3(a),6471,x=0.9,Ca0.1Eu0.9Zn2Sb2,437.5,0.000014405,0.0013406,0.00013987,2.2733,0.28195,69420.3401596668,0.0005897154
10954,10.1007/s11664-015-4303-6,5134,3(a),6471,x=0.9,Ca0.1Eu0.9Zn2Sb2,438,0.000014418,0.0013413,0.00013997,2.2717,0.28277,69357.747260369,0.0005904389
10954,10.1007/s11664-015-4303-6,5134,3(a),6471,x=0.9,Ca0.1Eu0.9Zn2Sb2,438.5,0.00001443,0.001342,0.00014007,2.2702,0.2836,69300.0693000693,0.0005911373
10954,10.1007/s11664-015-4303-6,5134,3(a),6471,x=0.9,Ca0.1Eu0.9Zn2Sb2,439,0.000014443,0.0013427,0.00014016,2.2686,0.28442,69237.6930000692,0.0005918628
10954,10.1007/s11664-015-4303-6,5134,3(a),6471,x=0.9,Ca0.1Eu0.9Zn2Sb2,439.5,0.000014455,0.0013434,0.00014026,2.267,0.28524,69180.2144586648,0.0005925893
10954,10.1007/s11664-015-4303-6,5134,3(a),6471,x=0.9,Ca0.1Eu0.9Zn2Sb2,440,0.000014468,0.0013441,0.00014036,2.2654,0.28607,69118.0536356096,0.0005933169
10954,10.1007/s11664-015-4303-6,5134,3(a),6471,x=0.9,Ca0.1Eu0.9Zn2Sb2,440.5,0.00001448,0.0013448,0.00014046,2.2638,0.28689,69060.773480663,0.0005940454
10954,10.1007/s11664-015-4303-6,5134,3(a),6471,x=0.9,Ca0.1Eu0.9Zn2Sb2,441,0.000014493,0.0013455,0.00014056,2.2623,0.28772,68998.8270199407,0.0005947487
10954,10.1007/s11664-015-4303-6,5134,3(a),6471,x=0.9,Ca0.1Eu0.9Zn2Sb2,441.5,0.000014505,0.0013462,0.00014066,2.2607,0.28854,68941.7442261289,0.0005954793
10954,10.1007/s11664-015-4303-6,5134,3(a),6471,x=0.9,Ca0.1Eu0.9Zn2Sb2,442,0.000014518,0.0013469,0.00014076,2.2591,0.28936,68880.0110208018,0.0005962109
10954,10.1007/s11664-015-4303-6,5134,3(a),6471,x=0.9,Ca0.1Eu0.9Zn2Sb2,442.5,0.00001453,0.0013476,0.00014086,2.2575,0.29019,68823.1245698555,0.0005969435
10954,10.1007/s11664-015-4303-6,5134,3(a),6471,x=0.9,Ca0.1Eu0.9Zn2Sb2,443,0.000014543,0.0013483,0.00014095,2.256,0.29101,68761.6035205941,0.0005976507
10954,10.1007/s11664-015-4303-6,5134,3(a),6471,x=0.9,Ca0.1Eu0.9Zn2Sb2,443.5,0.000014555,0.001349,0.00014105,2.2544,0.29184,68704.9124012367,0.0005983854
10954,10.1007/s11664-015-4303-6,5134,3(a),6471,x=0.9,Ca0.1Eu0.9Zn2Sb2,444,0.000014568,0.0013497,0.00014115,2.2528,0.29266,68643.6024162548,0.0005991211
10954,10.1007/s11664-015-4303-6,5134,3(a),6471,x=0.9,Ca0.1Eu0.9Zn2Sb2,444.5,0.000014581,0.0013505,0.00014125,2.2512,0.29348,68582.4017557095,0.0005999023
10954,10.1007/s11664-015-4303-6,5134,3(a),6471,x=0.9,Ca0.1Eu0.9Zn2Sb2,445,0.000014593,0.0013512,0.00014135,2.2496,0.29431,68526.0056191325,0.0006006401
10954,10.1007/s11664-015-4303-6,5134,3(a),6471,x=0.9,Ca0.1Eu0.9Zn2Sb2,445.5,0.000014606,0.0013519,0.00014145,2.2481,0.29513,68465.014377653,0.0006013523
10954,10.1007/s11664-015-4303-6,5134,3(a),6471,x=0.9,Ca0.1Eu0.9Zn2Sb2,446,0.000014618,0.0013526,0.00014155,2.2465,0.29596,68408.8110548639,0.0006020921
10954,10.1007/s11664-015-4303-6,5134,3(a),6471,x=0.9,Ca0.1Eu0.9Zn2Sb2,446.5,0.000014631,0.0013533,0.00014165,2.2449,0.29678,68348.0281593876,0.0006028331
10954,10.1007/s11664-015-4303-6,5134,3(a),6471,x=0.9,Ca0.1Eu0.9Zn2Sb2,447,0.000014644,0.001354,0.00014174,2.2433,0.2976,68287.3531821907,0.0006035751
10954,10.1007/s11664-015-4303-6,5134,3(a),6471,x=0.9,Ca0.1Eu0.9Zn2Sb2,447.5,0.000014656,0.0013547,0.00014184,2.2417,0.29843,68231.4410480349,0.0006043182
10954,10.1007/s11664-015-4303-6,5134,3(a),6471,x=0.9,Ca0.1Eu0.9Zn2Sb2,448,0.000014669,0.0013554,0.00014194,2.2402,0.29925,68170.9727997819,0.0006050353
10954,10.1007/s11664-015-4303-6,5134,3(a),6471,x=0.9,Ca0.1Eu0.9Zn2Sb2,448.5,0.000014682,0.0013561,0.00014204,2.2386,0.30008,68110.6116332925,0.0006057804
10954,10.1007/s11664-015-4303-6,5134,3(a),6471,x=0.9,Ca0.1Eu0.9Zn2Sb2,449,0.000014694,0.0013568,0.00014214,2.237,0.3009,68054.988430652,0.0006065266
10954,10.1007/s11664-015-4303-6,5134,3(a),6471,x=0.9,Ca0.1Eu0.9Zn2Sb2,449.5,0.000014707,0.0013575,0.00014224,2.2354,0.30173,67994.8323927382,0.0006072739
10954,10.1007/s11664-015-4303-6,5134,3(a),6471,x=0.9,Ca0.1Eu0.9Zn2Sb2,450,0.00001472,0.0013582,0.00014234,2.2339,0.30255,67934.7826086956,0.000607995
10954,10.1007/s11664-015-4303-6,5134,3(a),6471,x=0.9,Ca0.1Eu0.9Zn2Sb2,450.5,0.000014732,0.0013589,0.00014244,2.2323,0.30337,67879.4461037198,0.0006087443
10954,10.1007/s11664-015-4303-6,5134,3(a),6471,x=0.9,Ca0.1Eu0.9Zn2Sb2,451,0.000014745,0.0013596,0.00014253,2.2307,0.3042,67819.5998643608,0.0006094948
10954,10.1007/s11664-015-4303-6,5134,3(a),6471,x=0.9,Ca0.1Eu0.9Zn2Sb2,451.5,0.000014758,0.0013603,0.00014263,2.2291,0.30502,67759.8590594932,0.0006102463
10954,10.1007/s11664-015-4303-6,5134,3(a),6471,x=0.9,Ca0.1Eu0.9Zn2Sb2,452,0.00001477,0.001361,0.00014273,2.2275,0.30585,67704.8070412999,0.0006109989
10954,10.1007/s11664-015-4303-6,5134,3(a),6471,x=0.9,Ca0.1Eu0.9Zn2Sb2,452.5,0.000014783,0.0013617,0.00014283,2.226,0.30667,67645.2682134885,0.0006117251
10954,10.1007/s11664-015-4303-6,5134,3(a),6471,x=0.9,Ca0.1Eu0.9Zn2Sb2,453,0.000014796,0.0013625,0.00014293,2.2244,0.30749,67585.8340091917,0.0006125247
10954,10.1007/s11664-015-4303-6,5134,3(a),6471,x=0.9,Ca0.1Eu0.9Zn2Sb2,453.5,0.000014809,0.0013632,0.00014303,2.2228,0.30832,67526.50415288,0.0006132805
10954,10.1007/s11664-015-4303-6,5134,3(a),6471,x=0.9,Ca0.1Eu0.9Zn2Sb2,454,0.000014821,0.0013639,0.00014313,2.2212,0.30914,67471.8305107618,0.0006140375
10954,10.1007/s11664-015-4303-6,5134,3(a),6471,x=0.9,Ca0.1Eu0.9Zn2Sb2,454.5,0.000014834,0.0013646,0.00014323,2.2196,0.30997,67412.7005527841,0.0006147955
10954,10.1007/s11664-015-4303-6,5134,3(a),6471,x=0.9,Ca0.1Eu0.9Zn2Sb2,455,0.000014847,0.0013653,0.00014332,2.2181,0.31079,67353.6741429245,0.0006155268
10954,10.1007/s11664-015-4303-6,5134,3(a),6471,x=0.9,Ca0.1Eu0.9Zn2Sb2,455.5,0.00001486,0.001366,0.00014342,2.2165,0.31161,67294.7510094213,0.0006162869