sid,DOI,figureid,fignum,sampleid,samplename,composition,Temperature,Electrical resistivity,Power factor,Seebeck coefficient,Thermal conductivity,ZT,Electrical conductivity,Figure of merit Z
10954,10.1007/s11664-015-4303-6,5134,3(a),6470,x=0.7,Ca0.3Eu0.7Zn2Sb2,486.5,0.000017633,0.001268,0.00014857,2.3133,0.29883,56711.8471048602,0.0005481347
10954,10.1007/s11664-015-4303-6,5134,3(a),6470,x=0.7,Ca0.3Eu0.7Zn2Sb2,487,0.000017646,0.0012687,0.00014866,2.3117,0.29949,56670.0668706789,0.0005488169
10954,10.1007/s11664-015-4303-6,5134,3(a),6470,x=0.7,Ca0.3Eu0.7Zn2Sb2,487.5,0.000017659,0.0012693,0.00014876,2.3101,0.30016,56628.3481510844,0.0005494567
10954,10.1007/s11664-015-4303-6,5134,3(a),6470,x=0.7,Ca0.3Eu0.7Zn2Sb2,488,0.000017672,0.00127,0.00014885,2.3085,0.30082,56586.6908103214,0.0005501408
10954,10.1007/s11664-015-4303-6,5134,3(a),6470,x=0.7,Ca0.3Eu0.7Zn2Sb2,488.5,0.000017685,0.0012707,0.00014895,2.3069,0.30148,56545.0947130336,0.0005508258
10954,10.1007/s11664-015-4303-6,5134,3(a),6470,x=0.7,Ca0.3Eu0.7Zn2Sb2,489,0.000017698,0.0012714,0.00014904,2.3054,0.30215,56503.5597242626,0.0005514878
10954,10.1007/s11664-015-4303-6,5134,3(a),6470,x=0.7,Ca0.3Eu0.7Zn2Sb2,489.5,0.00001771,0.0012721,0.00014914,2.3038,0.30281,56465.2738565782,0.0005521747
10954,10.1007/s11664-015-4303-6,5134,3(a),6470,x=0.7,Ca0.3Eu0.7Zn2Sb2,490,0.000017723,0.0012727,0.00014923,2.3022,0.30347,56423.8560063195,0.000552819
10954,10.1007/s11664-015-4303-6,5134,3(a),6470,x=0.7,Ca0.3Eu0.7Zn2Sb2,490.5,0.000017736,0.0012734,0.00014933,2.3006,0.30414,56382.49887235,0.0005535078
10954,10.1007/s11664-015-4303-6,5134,3(a),6470,x=0.7,Ca0.3Eu0.7Zn2Sb2,491,0.000017749,0.0012741,0.00014942,2.299,0.3048,56341.2023212575,0.0005541975
10954,10.1007/s11664-015-4303-6,5134,3(a),6470,x=0.7,Ca0.3Eu0.7Zn2Sb2,491.5,0.000017762,0.0012748,0.00014952,2.2974,0.30547,56299.9662200203,0.0005548881
10954,10.1007/s11664-015-4303-6,5134,3(a),6470,x=0.7,Ca0.3Eu0.7Zn2Sb2,492,0.000017775,0.0012755,0.00014961,2.2958,0.30613,56258.7904360056,0.0005555798
10954,10.1007/s11664-015-4303-6,5134,3(a),6470,x=0.7,Ca0.3Eu0.7Zn2Sb2,492.5,0.000017788,0.0012762,0.00014971,2.2942,0.30679,56217.6748369687,0.0005562723
10954,10.1007/s11664-015-4303-6,5134,3(a),6470,x=0.7,Ca0.3Eu0.7Zn2Sb2,493,0.0000178,0.0012768,0.0001498,2.2927,0.30746,56179.7752808989,0.000556898
10954,10.1007/s11664-015-4303-6,5134,3(a),6470,x=0.7,Ca0.3Eu0.7Zn2Sb2,493.5,0.000017813,0.0012775,0.0001499,2.2911,0.30812,56138.7750519284,0.0005575924
10954,10.1007/s11664-015-4303-6,5134,3(a),6470,x=0.7,Ca0.3Eu0.7Zn2Sb2,494,0.000017826,0.0012782,0.00014999,2.2895,0.30878,56097.8346235835,0.0005582878
10954,10.1007/s11664-015-4303-6,5134,3(a),6470,x=0.7,Ca0.3Eu0.7Zn2Sb2,494.5,0.000017839,0.0012789,0.00015009,2.2879,0.30945,56056.953865127,0.0005589842
10954,10.1007/s11664-015-4303-6,5134,3(a),6470,x=0.7,Ca0.3Eu0.7Zn2Sb2,495,0.000017852,0.0012796,0.00015018,2.2863,0.31011,56016.1326462021,0.0005596816
10954,10.1007/s11664-015-4303-6,5134,3(a),6470,x=0.7,Ca0.3Eu0.7Zn2Sb2,495.5,0.000017865,0.0012803,0.00015028,2.2847,0.31078,55975.3708368318,0.0005603799
10954,10.1007/s11664-015-4303-6,5134,3(a),6470,x=0.7,Ca0.3Eu0.7Zn2Sb2,496,0.000017877,0.0012809,0.00015037,2.2831,0.31144,55937.7971695475,0.0005610354
10954,10.1007/s11664-015-4303-6,5134,3(a),6470,x=0.7,Ca0.3Eu0.7Zn2Sb2,496.5,0.00001789,0.0012816,0.00015047,2.2815,0.3121,55897.1492453885,0.0005617357
10954,10.1007/s11664-015-4303-6,5134,3(a),6470,x=0.7,Ca0.3Eu0.7Zn2Sb2,497,0.000017903,0.0012823,0.00015056,2.28,0.31277,55856.5603530135,0.0005624123
10954,10.1007/s11664-015-4303-6,5134,3(a),6470,x=0.7,Ca0.3Eu0.7Zn2Sb2,497.5,0.000017916,0.001283,0.00015066,2.2784,0.31343,55816.0303639205,0.0005631145
10954,10.1007/s11664-015-4303-6,5134,3(a),6470,x=0.7,Ca0.3Eu0.7Zn2Sb2,498,0.000017929,0.0012837,0.00015075,2.2768,0.31409,55775.5591499805,0.0005638176
10954,10.1007/s11664-015-4303-6,5134,3(a),6470,x=0.7,Ca0.3Eu0.7Zn2Sb2,498.5,0.000017942,0.0012843,0.00015085,2.2752,0.31476,55735.1465834355,0.0005644778
10954,10.1007/s11664-015-4303-6,5134,3(a),6470,x=0.7,Ca0.3Eu0.7Zn2Sb2,499,0.000017954,0.001285,0.00015094,2.2736,0.31542,55697.8946195834,0.000565183
10954,10.1007/s11664-015-4303-6,5134,3(a),6470,x=0.7,Ca0.3Eu0.7Zn2Sb2,499.5,0.000017967,0.0012857,0.00015104,2.272,0.31609,55657.5944787666,0.0005658891
10954,10.1007/s11664-015-4303-6,5134,3(a),6470,x=0.7,Ca0.3Eu0.7Zn2Sb2,500,0.00001798,0.0012864,0.00015113,2.2704,0.31675,55617.3526140156,0.0005665962
10954,10.1007/s11664-015-4303-6,5134,3(a),6470,x=0.7,Ca0.3Eu0.7Zn2Sb2,500.5,0.000017993,0.0012871,0.00015123,2.2689,0.31741,55577.1688990163,0.0005672793
10954,10.1007/s11664-015-4303-6,5134,3(a),6470,x=0.7,Ca0.3Eu0.7Zn2Sb2,501,0.000018006,0.0012878,0.00015132,2.2673,0.31808,55537.0432078196,0.0005679884
10954,10.1007/s11664-015-4303-6,5134,3(a),6470,x=0.7,Ca0.3Eu0.7Zn2Sb2,501.5,0.000018019,0.0012884,0.00015142,2.2657,0.31874,55496.9754148399,0.0005686543
10954,10.1007/s11664-015-4303-6,5134,3(a),6470,x=0.7,Ca0.3Eu0.7Zn2Sb2,502,0.000018032,0.0012891,0.00015151,2.2641,0.3194,55456.9653948536,0.0005693653
10954,10.1007/s11664-015-4303-6,5134,3(a),6470,x=0.7,Ca0.3Eu0.7Zn2Sb2,502.5,0.000018044,0.0012898,0.00015161,2.2625,0.32007,55420.084238528,0.0005700773
10954,10.1007/s11664-015-4303-6,5134,3(a),6470,x=0.7,Ca0.3Eu0.7Zn2Sb2,503,0.000018057,0.0012905,0.0001517,2.2609,0.32073,55380.1849698178,0.0005707904
10954,10.1007/s11664-015-4303-6,5134,3(a),6470,x=0.7,Ca0.3Eu0.7Zn2Sb2,503.5,0.00001807,0.0012912,0.00015179,2.2593,0.3214,55340.3431101273,0.0005715044
10954,10.1007/s11664-015-4303-6,5134,3(a),6470,x=0.7,Ca0.3Eu0.7Zn2Sb2,504,0.000018083,0.0012919,0.00015189,2.2577,0.32206,55300.5585356412,0.0005722195
10954,10.1007/s11664-015-4303-6,5134,3(a),6470,x=0.7,Ca0.3Eu0.7Zn2Sb2,504.5,0.000018096,0.0012925,0.00015198,2.2562,0.32272,55260.8311229001,0.0005728659
10954,10.1007/s11664-015-4303-6,5134,3(a),6470,x=0.7,Ca0.3Eu0.7Zn2Sb2,505,0.000018109,0.0012932,0.00015208,2.2546,0.32339,55221.1607487989,0.0005735829
10954,10.1007/s11664-015-4303-6,5134,3(a),6470,x=0.7,Ca0.3Eu0.7Zn2Sb2,505.5,0.000018121,0.0012939,0.00015217,2.253,0.32405,55184.5924617847,0.0005743009
10954,10.1007/s11664-015-4303-6,5134,3(a),6470,x=0.7,Ca0.3Eu0.7Zn2Sb2,506,0.000018134,0.0012946,0.00015227,2.2514,0.32471,55145.0314326679,0.00057502
10954,10.1007/s11664-015-4303-6,5134,3(a),6470,x=0.7,Ca0.3Eu0.7Zn2Sb2,506.5,0.000018147,0.0012953,0.00015236,2.2498,0.32538,55105.5270843666,0.0005757401
10954,10.1007/s11664-015-4303-6,5134,3(a),6470,x=0.7,Ca0.3Eu0.7Zn2Sb2,507,0.00001816,0.0012959,0.00015246,2.2482,0.32604,55066.0792951542,0.0005764167
10954,10.1007/s11664-015-4303-6,5134,3(a),6470,x=0.7,Ca0.3Eu0.7Zn2Sb2,507.5,0.000018173,0.0012966,0.00015255,2.2466,0.32671,55026.6879436527,0.0005771388
10954,10.1007/s11664-015-4303-6,5134,3(a),6470,x=0.7,Ca0.3Eu0.7Zn2Sb2,508,0.000018186,0.0012973,0.00015265,2.245,0.32737,54987.352908831,0.0005778619
10954,10.1007/s11664-015-4303-6,5134,3(a),6470,x=0.7,Ca0.3Eu0.7Zn2Sb2,508.5,0.000018198,0.001298,0.00015274,2.2435,0.32803,54951.0935267612,0.0005785603
10954,10.1007/s11664-015-4303-6,5134,3(a),6470,x=0.7,Ca0.3Eu0.7Zn2Sb2,509,0.000018211,0.0012987,0.00015284,2.2419,0.3287,54911.8664543408,0.0005792854
10954,10.1007/s11664-015-4303-6,5134,3(a),6470,x=0.7,Ca0.3Eu0.7Zn2Sb2,509.5,0.000018224,0.0012994,0.00015293,2.2403,0.32936,54872.6953467954,0.0005800116
10954,10.1007/s11664-015-4303-6,5134,3(a),6470,x=0.7,Ca0.3Eu0.7Zn2Sb2,510,0.000018237,0.0013,0.00015303,2.2387,0.33002,54833.5800844437,0.0005806942
10954,10.1007/s11664-015-4303-6,5134,3(a),6470,x=0.7,Ca0.3Eu0.7Zn2Sb2,510.5,0.00001825,0.0013007,0.00015312,2.2371,0.33069,54794.5205479452,0.0005814224
10954,10.1007/s11664-015-4303-6,5134,3(a),6470,x=0.7,Ca0.3Eu0.7Zn2Sb2,511,0.000018263,0.0013014,0.00015322,2.2355,0.33135,54755.5166182993,0.0005821516
10954,10.1007/s11664-015-4303-6,5134,3(a),6470,x=0.7,Ca0.3Eu0.7Zn2Sb2,511.5,0.000018276,0.0013021,0.00015331,2.2339,0.33202,54716.568176844,0.000582882
10954,10.1007/s11664-015-4303-6,5134,3(a),6470,x=0.7,Ca0.3Eu0.7Zn2Sb2,512,0.000018288,0.0013028,0.00015341,2.2323,0.33268,54680.6649168854,0.0005836133
10954,10.1007/s11664-015-4303-6,5134,3(a),6470,x=0.7,Ca0.3Eu0.7Zn2Sb2,512.5,0.000018301,0.0013035,0.0001535,2.2308,0.33334,54641.8228512103,0.0005843195
10954,10.1007/s11664-015-4303-6,5134,3(a),6470,x=0.7,Ca0.3Eu0.7Zn2Sb2,513,0.000018314,0.0013041,0.0001536,2.2292,0.33401,54603.0359287976,0.0005850081
10954,10.1007/s11664-015-4303-6,5134,3(a),6470,x=0.7,Ca0.3Eu0.7Zn2Sb2,513.5,0.000018327,0.0013048,0.00015369,2.2276,0.33467,54564.3040323021,0.0005857425
10954,10.1007/s11664-015-4303-6,5134,3(a),6470,x=0.7,Ca0.3Eu0.7Zn2Sb2,514,0.00001834,0.0013055,0.00015379,2.226,0.33533,54525.627044711,0.000586478
10954,10.1007/s11664-015-4303-6,5134,3(a),6470,x=0.7,Ca0.3Eu0.7Zn2Sb2,514.5,0.000018353,0.0013062,0.00015388,2.2244,0.336,54487.0048493434,0.0005872145
10954,10.1007/s11664-015-4303-6,5134,3(a),6470,x=0.7,Ca0.3Eu0.7Zn2Sb2,515,0.000018365,0.0013069,0.00015398,2.2228,0.33666,54451.4021236047,0.0005879521
10954,10.1007/s11664-015-4303-6,5134,3(a),6470,x=0.7,Ca0.3Eu0.7Zn2Sb2,515.5,0.000018378,0.0013075,0.00015407,2.2212,0.33733,54412.8849711612,0.0005886458
10954,10.1007/s11664-015-4303-6,5134,3(a),6470,x=0.7,Ca0.3Eu0.7Zn2Sb2,516,0.000018391,0.0013082,0.00015417,2.2197,0.33799,54374.4222717634,0.0005893589
10954,10.1007/s11664-015-4303-6,5134,3(a),6470,x=0.7,Ca0.3Eu0.7Zn2Sb2,516.5,0.000018404,0.0013089,0.00015426,2.2181,0.33865,54336.0139100196,0.0005900996
10954,10.1007/s11664-015-4303-6,5134,3(a),6470,x=0.7,Ca0.3Eu0.7Zn2Sb2,517,0.000018417,0.0013096,0.00015436,2.2165,0.33932,54297.6597708639,0.0005908414
10954,10.1007/s11664-015-4303-6,5134,3(a),6470,x=0.7,Ca0.3Eu0.7Zn2Sb2,517.5,0.00001843,0.0013103,0.00015445,2.2149,0.33998,54259.3597395551,0.0005915843
10954,10.1007/s11664-015-4303-6,5134,3(a),6470,x=0.7,Ca0.3Eu0.7Zn2Sb2,518,0.000018442,0.001311,0.00015455,2.2133,0.34064,54224.0537902614,0.0005923282
10954,10.1007/s11664-015-4303-6,5134,3(a),6470,x=0.7,Ca0.3Eu0.7Zn2Sb2,518.5,0.000018455,0.0013116,0.00015464,2.2117,0.34131,54185.8574911948,0.000593028
10954,10.1007/s11664-015-4303-6,5134,3(a),6470,x=0.7,Ca0.3Eu0.7Zn2Sb2,519,0.000018468,0.0013123,0.00015474,2.2101,0.34197,54147.7149664284,0.000593774
10954,10.1007/s11664-015-4303-6,5134,3(a),6470,x=0.7,Ca0.3Eu0.7Zn2Sb2,519.5,0.000018481,0.001313,0.00015483,2.2085,0.34264,54109.6261024836,0.0005945212
10954,10.1007/s11664-015-4303-6,5134,3(a),6470,x=0.7,Ca0.3Eu0.7Zn2Sb2,520,0.000018494,0.0013137,0.00015493,2.207,0.3433,54071.5907862009,0.0005952424
10954,10.1007/s11664-015-4303-6,5134,3(a),6470,x=0.7,Ca0.3Eu0.7Zn2Sb2,520.5,0.000018507,0.0013144,0.00015502,2.2054,0.34396,54033.6089047387,0.0005959917
10954,10.1007/s11664-015-4303-6,5134,3(a),6470,x=0.7,Ca0.3Eu0.7Zn2Sb2,521,0.000018519,0.001315,0.00015512,2.2038,0.34463,53998.596036503,0.0005966966
10954,10.1007/s11664-015-4303-6,5134,3(a),6470,x=0.7,Ca0.3Eu0.7Zn2Sb2,521.5,0.000018532,0.0013157,0.00015521,2.2022,0.34529,53960.7165983164,0.000597448
10954,10.1007/s11664-015-4303-6,5134,3(a),6470,x=0.7,Ca0.3Eu0.7Zn2Sb2,522,0.000018545,0.0013164,0.0001553,2.2006,0.34595,53922.8902669183,0.0005982005
10954,10.1007/s11664-015-4303-6,5134,3(a),6470,x=0.7,Ca0.3Eu0.7Zn2Sb2,522.5,0.000018558,0.0013171,0.0001554,2.199,0.34662,53885.1169307037,0.0005989541
10954,10.1007/s11664-015-4303-6,5134,3(a),6470,x=0.7,Ca0.3Eu0.7Zn2Sb2,523,0.000018571,0.0013178,0.00015549,2.1974,0.34728,53847.3964783803,0.0005997087
10954,10.1007/s11664-015-4303-6,5134,3(a),6470,x=0.7,Ca0.3Eu0.7Zn2Sb2,523.5,0.000018584,0.0013185,0.00015559,2.1958,0.34795,53809.7287989669,0.0006004645
10954,10.1007/s11664-015-4303-6,5134,3(a),6470,x=0.7,Ca0.3Eu0.7Zn2Sb2,524,0.000018597,0.0013191,0.00015568,2.1943,0.34861,53772.1137817928,0.0006011484
10954,10.1007/s11664-015-4303-6,5134,3(a),6470,x=0.7,Ca0.3Eu0.7Zn2Sb2,524.5,0.000018609,0.0013198,0.00015578,2.1927,0.34927,53737.4388736633,0.0006019063
10954,10.1007/s11664-015-4303-6,5134,3(a),6470,x=0.7,Ca0.3Eu0.7Zn2Sb2,525,0.000018622,0.0013205,0.00015587,2.1911,0.34994,53699.9248201053,0.0006026653
10954,10.1007/s11664-015-4303-6,5134,3(a),6470,x=0.7,Ca0.3Eu0.7Zn2Sb2,525.5,0.000018635,0.0013212,0.00015597,2.1895,0.3506,53662.4631070566,0.0006034254
10954,10.1007/s11664-015-4303-6,5134,3(a),6470,x=0.7,Ca0.3Eu0.7Zn2Sb2,526,0.000018648,0.0013219,0.00015606,2.1879,0.35126,53625.0536250536,0.0006041867
10954,10.1007/s11664-015-4303-6,5134,3(a),6470,x=0.7,Ca0.3Eu0.7Zn2Sb2,526.5,0.000018661,0.0013226,0.00015616,2.1863,0.35193,53587.6962649376,0.000604949
10954,10.1007/s11664-015-4303-6,5134,3(a),6470,x=0.7,Ca0.3Eu0.7Zn2Sb2,527,0.000018674,0.0013232,0.00015625,2.1847,0.35259,53550.3909178537,0.0006056667
10954,10.1007/s11664-015-4303-6,5134,3(a),6470,x=0.7,Ca0.3Eu0.7Zn2Sb2,527.5,0.000018686,0.0013239,0.00015635,2.1831,0.35326,53516.001284384,0.0006064312
10954,10.1007/s11664-015-4303-6,5134,3(a),6470,x=0.7,Ca0.3Eu0.7Zn2Sb2,528,0.000018699,0.0013246,0.00015644,2.1816,0.35392,53478.7956575218,0.0006071691
10954,10.1007/s11664-015-4303-6,5134,3(a),6470,x=0.7,Ca0.3Eu0.7Zn2Sb2,528.5,0.000018712,0.0013253,0.00015654,2.18,0.35458,53441.6417272339,0.0006079358
10954,10.1007/s11664-015-4303-6,5134,3(a),6470,x=0.7,Ca0.3Eu0.7Zn2Sb2,529,0.000018725,0.001326,0.00015663,2.1784,0.35525,53404.5393858478,0.0006087036
10954,10.1007/s11664-015-4303-6,5134,3(a),6470,x=0.7,Ca0.3Eu0.7Zn2Sb2,529.5,0.000018738,0.0013266,0.00015673,2.1768,0.35591,53367.48852599,0.0006094267
10954,10.1007/s11664-015-4303-6,5134,3(a),6470,x=0.7,Ca0.3Eu0.7Zn2Sb2,530,0.000018751,0.0013273,0.00015682,2.1752,0.35658,53330.4890405845,0.0006101968
10954,10.1007/s11664-015-4303-6,5134,3(a),6470,x=0.7,Ca0.3Eu0.7Zn2Sb2,530.5,0.000018763,0.001328,0.00015692,2.1736,0.35724,53296.3811757182,0.000610968
10954,10.1007/s11664-015-4303-6,5134,3(a),6470,x=0.7,Ca0.3Eu0.7Zn2Sb2,531,0.000018776,0.0013287,0.00015701,2.172,0.3579,53259.4801874734,0.0006117403
10954,10.1007/s11664-015-4303-6,5134,3(a),6470,x=0.7,Ca0.3Eu0.7Zn2Sb2,531.5,0.000018789,0.0013294,0.00015711,2.1705,0.35857,53222.6302623876,0.0006124856
10954,10.1007/s11664-015-4303-6,5134,3(a),6470,x=0.7,Ca0.3Eu0.7Zn2Sb2,532,0.000018802,0.0013301,0.0001572,2.1689,0.35923,53185.8312945431,0.0006132602
10954,10.1007/s11664-015-4303-6,5134,3(a),6470,x=0.7,Ca0.3Eu0.7Zn2Sb2,532.5,0.000018815,0.0013307,0.0001573,2.1673,0.35989,53149.0831783152,0.0006139898
10954,10.1007/s11664-015-4303-6,5134,3(a),6470,x=0.7,Ca0.3Eu0.7Zn2Sb2,533,0.000018828,0.0013314,0.00015739,2.1657,0.36056,53112.3858083705,0.0006147666
10954,10.1007/s11664-015-4303-6,5134,3(a),6470,x=0.7,Ca0.3Eu0.7Zn2Sb2,533.5,0.000018841,0.0013321,0.00015749,2.1641,0.36122,53075.7390796667,0.0006155446
10954,10.1007/s11664-015-4303-6,5134,3(a),6470,x=0.7,Ca0.3Eu0.7Zn2Sb2,534,0.000018853,0.0013328,0.00015758,2.1625,0.36189,53041.9561873442,0.0006163237
10954,10.1007/s11664-015-4303-6,5134,3(a),6470,x=0.7,Ca0.3Eu0.7Zn2Sb2,534.5,0.000018866,0.0013335,0.00015768,2.1609,0.36255,53005.4065514683,0.000617104
10954,10.1007/s11664-015-4303-6,5134,3(a),6470,x=0.7,Ca0.3Eu0.7Zn2Sb2,535,0.000018879,0.0013342,0.00015777,2.1593,0.36321,52968.9072514434,0.0006178854
10954,10.1007/s11664-015-4303-6,5134,3(a),6470,x=0.7,Ca0.3Eu0.7Zn2Sb2,535.5,0.000018892,0.0013348,0.00015787,2.1578,0.36388,52932.458183358,0.000618593
10954,10.1007/s11664-015-4303-6,5134,3(a),6470,x=0.7,Ca0.3Eu0.7Zn2Sb2,536,0.000018905,0.0013355,0.00015796,2.1562,0.36454,52896.0592435864,0.0006193767
10954,10.1007/s11664-015-4303-6,5134,3(a),6470,x=0.7,Ca0.3Eu0.7Zn2Sb2,536.5,0.000018918,0.0013362,0.00015806,2.1546,0.3652,52859.7103287874,0.0006201615
10954,10.1007/s11664-015-4303-6,5134,3(a),6470,x=0.7,Ca0.3Eu0.7Zn2Sb2,537,0.00001893,0.0013369,0.00015815,2.153,0.36587,52826.2017960909,0.0006209475
10954,10.1007/s11664-015-4303-6,5134,3(a),6470,x=0.7,Ca0.3Eu0.7Zn2Sb2,537.5,0.000018943,0.0013376,0.00015825,2.1514,0.36653,52789.9487937497,0.0006217347
10954,10.1007/s11664-015-4303-6,5134,3(a),6470,x=0.7,Ca0.3Eu0.7Zn2Sb2,538,0.000018956,0.0013382,0.00015834,2.1498,0.3672,52753.7455159316,0.0006224765
10954,10.1007/s11664-015-4303-6,5134,3(a),6470,x=0.7,Ca0.3Eu0.7Zn2Sb2,538.5,0.000018969,0.0013389,0.00015844,2.1482,0.36786,52717.5918604038,0.000623266
10954,10.1007/s11664-015-4303-6,5134,3(a),6470,x=0.7,Ca0.3Eu0.7Zn2Sb2,539,0.000018982,0.0013396,0.00015853,2.1466,0.36852,52681.4877252134,0.0006240566
10954,10.1007/s11664-015-4303-6,5134,3(a),6470,x=0.7,Ca0.3Eu0.7Zn2Sb2,539.5,0.000018995,0.0013403,0.00015863,2.1451,0.36919,52645.4330086865,0.0006248194
10954,10.1007/s11664-015-4303-6,5134,3(a),6470,x=0.7,Ca0.3Eu0.7Zn2Sb2,540,0.000019007,0.001341,0.00015872,2.1435,0.36985,52612.1955069185,0.0006256123
10954,10.1007/s11664-015-4303-6,5134,3(a),6470,x=0.7,Ca0.3Eu0.7Zn2Sb2,540.5,0.00001902,0.0013417,0.00015881,2.1419,0.37051,52576.2355415352,0.0006264065
10954,10.1007/s11664-015-4303-6,5134,3(a),6470,x=0.7,Ca0.3Eu0.7Zn2Sb2,541,0.000019033,0.0013423,0.00015891,2.1403,0.37118,52540.3246992066,0.0006271551
10954,10.1007/s11664-015-4303-6,5134,3(a),6470,x=0.7,Ca0.3Eu0.7Zn2Sb2,541.5,0.000019046,0.001343,0.000159,2.1387,0.37184,52504.4628793447,0.0006279516
10954,10.1007/s11664-015-4303-6,5134,3(a),6470,x=0.7,Ca0.3Eu0.7Zn2Sb2,542,0.000019059,0.0013437,0.0001591,2.1371,0.37251,52468.649981636,0.0006287492
10954,10.1007/s11664-015-4303-6,5134,3(a),6470,x=0.7,Ca0.3Eu0.7Zn2Sb2,542.5,0.000019072,0.0013444,0.00015919,2.1355,0.37317,52432.8859060403,0.0006295481
10954,10.1007/s11664-015-4303-6,5134,3(a),6470,x=0.7,Ca0.3Eu0.7Zn2Sb2,543,0.000019085,0.0013451,0.00015929,2.1339,0.37383,52397.1705527901,0.0006303482
10954,10.1007/s11664-015-4303-6,5134,3(a),6470,x=0.7,Ca0.3Eu0.7Zn2Sb2,543.5,0.000019097,0.0013458,0.00015938,2.1324,0.3745,52364.2456930408,0.0006311199
10954,10.1007/s11664-015-4303-6,5134,3(a),6470,x=0.7,Ca0.3Eu0.7Zn2Sb2,544,0.00001911,0.0013464,0.00015948,2.1308,0.37516,52328.6237571952,0.0006318754
10954,10.1007/s11664-015-4303-6,5134,3(a),6470,x=0.7,Ca0.3Eu0.7Zn2Sb2,544.5,0.000019123,0.0013471,0.00015957,2.1292,0.37582,52293.0502536213,0.0006326789
10954,10.1007/s11664-015-4303-6,5134,3(a),6470,x=0.7,Ca0.3Eu0.7Zn2Sb2,545,0.000019136,0.0013478,0.00015967,2.1276,0.37649,52257.525083612,0.0006334837
10954,10.1007/s11664-015-4303-6,5134,3(a),6470,x=0.7,Ca0.3Eu0.7Zn2Sb2,545.5,0.000019149,0.0013485,0.00015976,2.126,0.37715,52222.0481487284,0.0006342897
10954,10.1007/s11664-015-4303-6,5134,3(a),6470,x=0.7,Ca0.3Eu0.7Zn2Sb2,546,0.000019162,0.0013492,0.00015986,2.1244,0.37782,52186.6193507985,0.000635097
10954,10.1007/s11664-015-4303-6,5134,3(a),6470,x=0.7,Ca0.3Eu0.7Zn2Sb2,546.5,0.000019174,0.0013498,0.00015995,2.1228,0.37848,52153.958485449,0.0006358583
10954,10.1007/s11664-015-4303-6,5134,3(a),6470,x=0.7,Ca0.3Eu0.7Zn2Sb2,547,0.000019187,0.0013505,0.00016005,2.1213,0.37914,52118.6219836348,0.0006366379
10954,10.1007/s11664-015-4303-6,5134,3(a),6470,x=0.7,Ca0.3Eu0.7Zn2Sb2,547.5,0.0000192,0.0013512,0.00016014,2.1197,0.37981,52083.3333333333,0.0006374487
10954,10.1007/s11664-015-4303-6,5134,3(a),6470,x=0.7,Ca0.3Eu0.7Zn2Sb2,548,0.000019213,0.0013519,0.00016024,2.1181,0.38047,52048.0924374122,0.0006382607
10954,10.1007/s11664-015-4303-6,5134,3(a),6470,x=0.7,Ca0.3Eu0.7Zn2Sb2,548.5,0.000019226,0.0013526,0.00016033,2.1165,0.38113,52012.8991990014,0.0006390739
10954,10.1007/s11664-015-4303-6,5134,3(a),6470,x=0.7,Ca0.3Eu0.7Zn2Sb2,549,0.000019239,0.0013533,0.00016043,2.1149,0.3818,51977.7535214928,0.0006398884
10954,10.1007/s11664-015-4303-6,5134,3(a),6470,x=0.7,Ca0.3Eu0.7Zn2Sb2,549.5,0.000019251,0.0013539,0.00016052,2.1133,0.38246,51945.3534881305,0.0006406568
10954,10.1007/s11664-015-4303-6,5134,3(a),6470,x=0.7,Ca0.3Eu0.7Zn2Sb2,550,0.000019264,0.0013546,0.00016062,2.1117,0.38313,51910.2990033223,0.0006414737
10954,10.1007/s11664-015-4303-6,5134,3(a),6470,x=0.7,Ca0.3Eu0.7Zn2Sb2,550.5,0.000019277,0.0013553,0.00016071,2.1101,0.38379,51875.2917985164,0.0006422918
10954,10.1007/s11664-015-4303-6,5134,3(a),6470,x=0.7,Ca0.3Eu0.7Zn2Sb2,551,0.00001929,0.001356,0.00016081,2.1086,0.38445,51840.3317781234,0.0006430807