sid,DOI,figureid,fignum,sampleid,samplename,composition,Temperature,Electrical resistivity,Power factor,Seebeck coefficient,Thermal conductivity,ZT,Electrical conductivity,Figure of merit Z
73,10.1016/j.actamat.2015.04.023,4591,3(a),5860,x=0.025,Mg2.975Na0.025Sb2,734.5,0.00003036,0.00074818,0.00015006,1.1488,0.4383,32938.0764163373,0.0006512709
73,10.1016/j.actamat.2015.04.023,4591,3(a),5860,x=0.025,Mg2.975Na0.025Sb2,735,0.000030365,0.00074878,0.00015015,1.1478,0.4388,32932.652725177,0.000652361
73,10.1016/j.actamat.2015.04.023,4591,3(a),5860,x=0.025,Mg2.975Na0.025Sb2,735.5,0.00003037,0.00074938,0.00015024,1.1468,0.4393,32927.230819888,0.0006534531
73,10.1016/j.actamat.2015.04.023,4591,3(a),5860,x=0.025,Mg2.975Na0.025Sb2,736,0.000030375,0.00074997,0.00015033,1.1458,0.43979,32921.8106995885,0.0006545383
73,10.1016/j.actamat.2015.04.023,4591,3(a),5860,x=0.025,Mg2.975Na0.025Sb2,736.5,0.00003038,0.00075057,0.00015041,1.1448,0.44029,32916.392363397,0.0006556342
73,10.1016/j.actamat.2015.04.023,4591,3(a),5860,x=0.025,Mg2.975Na0.025Sb2,737,0.000030385,0.00075117,0.0001505,1.1439,0.44079,32910.9758104328,0.0006566745
73,10.1016/j.actamat.2015.04.023,4591,3(a),5860,x=0.025,Mg2.975Na0.025Sb2,737.5,0.00003039,0.00075176,0.00015059,1.1429,0.44129,32905.5610398157,0.0006577653
73,10.1016/j.actamat.2015.04.023,4591,3(a),5860,x=0.025,Mg2.975Na0.025Sb2,738,0.000030395,0.00075236,0.00015068,1.1419,0.44178,32900.1480506662,0.0006588668
73,10.1016/j.actamat.2015.04.023,4591,3(a),5860,x=0.025,Mg2.975Na0.025Sb2,738.5,0.000030401,0.00075296,0.00015077,1.1409,0.44228,32893.6548139864,0.0006599702
73,10.1016/j.actamat.2015.04.023,4591,3(a),5860,x=0.025,Mg2.975Na0.025Sb2,739,0.000030406,0.00075355,0.00015086,1.1399,0.44278,32888.2457409722,0.0006610668
73,10.1016/j.actamat.2015.04.023,4591,3(a),5860,x=0.025,Mg2.975Na0.025Sb2,739.5,0.000030411,0.00075415,0.00015095,1.139,0.44328,32882.8384466147,0.0006621159
73,10.1016/j.actamat.2015.04.023,4591,3(a),5860,x=0.025,Mg2.975Na0.025Sb2,740,0.000030416,0.00075474,0.00015104,1.138,0.44377,32877.4329300368,0.0006632162
73,10.1016/j.actamat.2015.04.023,4591,3(a),5860,x=0.025,Mg2.975Na0.025Sb2,740.5,0.000030421,0.00075534,0.00015113,1.137,0.44427,32872.0291903619,0.0006643272
73,10.1016/j.actamat.2015.04.023,4591,3(a),5860,x=0.025,Mg2.975Na0.025Sb2,741,0.000030426,0.00075594,0.00015122,1.136,0.44477,32866.627226714,0.0006654401
73,10.1016/j.actamat.2015.04.023,4591,3(a),5860,x=0.025,Mg2.975Na0.025Sb2,741.5,0.000030431,0.00075653,0.00015131,1.135,0.44527,32861.2270382176,0.0006665463
73,10.1016/j.actamat.2015.04.023,4591,3(a),5860,x=0.025,Mg2.975Na0.025Sb2,742,0.000030437,0.00075713,0.0001514,1.134,0.44576,32854.7491539902,0.0006676631
73,10.1016/j.actamat.2015.04.023,4591,3(a),5860,x=0.025,Mg2.975Na0.025Sb2,742.5,0.000030442,0.00075773,0.00015149,1.1331,0.44626,32849.3528677485,0.000668723
73,10.1016/j.actamat.2015.04.023,4591,3(a),5860,x=0.025,Mg2.975Na0.025Sb2,743,0.000030447,0.00075832,0.00015158,1.1321,0.44676,32843.9583538608,0.0006698348
73,10.1016/j.actamat.2015.04.023,4591,3(a),5860,x=0.025,Mg2.975Na0.025Sb2,743.5,0.000030452,0.00075892,0.00015167,1.1311,0.44726,32838.5656114541,0.0006709575
73,10.1016/j.actamat.2015.04.023,4591,3(a),5860,x=0.025,Mg2.975Na0.025Sb2,744,0.000030457,0.00075952,0.00015176,1.1301,0.44775,32833.1746396559,0.0006720821
73,10.1016/j.actamat.2015.04.023,4591,3(a),5860,x=0.025,Mg2.975Na0.025Sb2,744.5,0.000030462,0.00076011,0.00015185,1.1291,0.44825,32827.7854375944,0.0006731999
73,10.1016/j.actamat.2015.04.023,4591,3(a),5860,x=0.025,Mg2.975Na0.025Sb2,745,0.000030467,0.00076071,0.00015194,1.1282,0.44875,32822.3980043982,0.0006742687
73,10.1016/j.actamat.2015.04.023,4591,3(a),5860,x=0.025,Mg2.975Na0.025Sb2,745.5,0.000030472,0.00076131,0.00015203,1.1272,0.44925,32817.0123391966,0.0006753992
73,10.1016/j.actamat.2015.04.023,4591,3(a),5860,x=0.025,Mg2.975Na0.025Sb2,746,0.000030478,0.0007619,0.00015211,1.1262,0.44974,32810.5518734825,0.0006765228
73,10.1016/j.actamat.2015.04.023,4591,3(a),5860,x=0.025,Mg2.975Na0.025Sb2,746.5,0.000030483,0.0007625,0.0001522,1.1252,0.45024,32805.1700948069,0.0006776573
73,10.1016/j.actamat.2015.04.023,4591,3(a),5860,x=0.025,Mg2.975Na0.025Sb2,747,0.000030488,0.0007631,0.00015229,1.1242,0.45074,32799.7900813435,0.0006787938
73,10.1016/j.actamat.2015.04.023,4591,3(a),5860,x=0.025,Mg2.975Na0.025Sb2,747.5,0.000030493,0.00076369,0.00015238,1.1232,0.45124,32794.4118322238,0.0006799234
73,10.1016/j.actamat.2015.04.023,4591,3(a),5860,x=0.025,Mg2.975Na0.025Sb2,748,0.000030498,0.00076429,0.00015247,1.1223,0.45173,32789.0353465801,0.0006810033
73,10.1016/j.actamat.2015.04.023,4591,3(a),5860,x=0.025,Mg2.975Na0.025Sb2,748.5,0.000030503,0.00076489,0.00015256,1.1213,0.45223,32783.6606235452,0.0006821457
73,10.1016/j.actamat.2015.04.023,4591,3(a),5860,x=0.025,Mg2.975Na0.025Sb2,749,0.000030508,0.00076548,0.00015265,1.1203,0.45273,32778.2876622525,0.0006832813
73,10.1016/j.actamat.2015.04.023,4591,3(a),5860,x=0.025,Mg2.975Na0.025Sb2,749.5,0.000030513,0.00076608,0.00015274,1.1193,0.45323,32772.9164618359,0.0006844278
73,10.1016/j.actamat.2015.04.023,4591,3(a),5860,x=0.025,Mg2.975Na0.025Sb2,750,0.000030519,0.00076668,0.00015283,1.1183,0.45372,32766.4733444739,0.0006855763
73,10.1016/j.actamat.2015.04.023,4591,3(a),5860,x=0.025,Mg2.975Na0.025Sb2,750.5,0.000030524,0.00076727,0.00015292,1.1174,0.45422,32761.1060149391,0.0006866565
73,10.1016/j.actamat.2015.04.023,4591,3(a),5860,x=0.025,Mg2.975Na0.025Sb2,751,0.000030529,0.00076787,0.00015301,1.1164,0.45472,32755.7404435127,0.000687809
73,10.1016/j.actamat.2015.04.023,4591,3(a),5860,x=0.025,Mg2.975Na0.025Sb2,751.5,0.000030534,0.00076847,0.0001531,1.1154,0.45522,32750.3766293312,0.0006889636
73,10.1016/j.actamat.2015.04.023,4591,3(a),5860,x=0.025,Mg2.975Na0.025Sb2,752,0.000030539,0.00076906,0.00015319,1.1144,0.45571,32745.0145715315,0.0006901113
73,10.1016/j.actamat.2015.04.023,4591,3(a),5860,x=0.025,Mg2.975Na0.025Sb2,752.5,0.000030544,0.00076966,0.00015328,1.1134,0.45621,32739.6542692509,0.00069127
73,10.1016/j.actamat.2015.04.023,4591,3(a),5860,x=0.025,Mg2.975Na0.025Sb2,753,0.000030549,0.00077026,0.00015337,1.1124,0.45671,32734.2957216275,0.0006924308
73,10.1016/j.actamat.2015.04.023,4591,3(a),5860,x=0.025,Mg2.975Na0.025Sb2,753.5,0.000030554,0.00077085,0.00015346,1.1115,0.45721,32728.9389278,0.0006935223
73,10.1016/j.actamat.2015.04.023,4591,3(a),5860,x=0.025,Mg2.975Na0.025Sb2,754,0.00003056,0.00077145,0.00015355,1.1105,0.4577,32722.5130890052,0.0006946871
73,10.1016/j.actamat.2015.04.023,4591,3(a),5860,x=0.025,Mg2.975Na0.025Sb2,754.5,0.000030565,0.00077204,0.00015364,1.1095,0.4582,32717.1601504989,0.000695845
73,10.1016/j.actamat.2015.04.023,4591,3(a),5860,x=0.025,Mg2.975Na0.025Sb2,755,0.00003057,0.00077264,0.00015373,1.1085,0.4587,32711.8089630357,0.000697014
73,10.1016/j.actamat.2015.04.023,4591,3(a),5860,x=0.025,Mg2.975Na0.025Sb2,755.5,0.000030575,0.00077324,0.00015381,1.1075,0.4592,32706.4595257563,0.0006981851
73,10.1016/j.actamat.2015.04.023,4591,3(a),5860,x=0.025,Mg2.975Na0.025Sb2,756,0.00003058,0.00077383,0.0001539,1.1066,0.45969,32701.1118378025,0.0006992861
73,10.1016/j.actamat.2015.04.023,4591,3(a),5860,x=0.025,Mg2.975Na0.025Sb2,756.5,0.000030585,0.00077443,0.00015399,1.1056,0.46019,32695.7658983162,0.0007004613
73,10.1016/j.actamat.2015.04.023,4591,3(a),5860,x=0.025,Mg2.975Na0.025Sb2,757,0.00003059,0.00077503,0.00015408,1.1046,0.46069,32690.42170644,0.0007016386
73,10.1016/j.actamat.2015.04.023,4591,3(a),5860,x=0.025,Mg2.975Na0.025Sb2,757.5,0.000030596,0.00077562,0.00015417,1.1036,0.46119,32684.0109818277,0.000702809
73,10.1016/j.actamat.2015.04.023,4591,3(a),5860,x=0.025,Mg2.975Na0.025Sb2,758,0.000030601,0.00077622,0.00015426,1.1026,0.46168,32678.6706316787,0.0007039906
73,10.1016/j.actamat.2015.04.023,4591,3(a),5860,x=0.025,Mg2.975Na0.025Sb2,758.5,0.000030606,0.00077682,0.00015435,1.1017,0.46218,32673.3320264001,0.0007051103
73,10.1016/j.actamat.2015.04.023,4591,3(a),5860,x=0.025,Mg2.975Na0.025Sb2,759,0.000030611,0.00077741,0.00015444,1.1007,0.46268,32667.9951651367,0.0007062869
73,10.1016/j.actamat.2015.04.023,4591,3(a),5860,x=0.025,Mg2.975Na0.025Sb2,759.5,0.000030616,0.00077801,0.00015453,1.0997,0.46318,32662.6600470342,0.0007074748
73,10.1016/j.actamat.2015.04.023,4591,3(a),5860,x=0.025,Mg2.975Na0.025Sb2,760,0.000030621,0.00077861,0.00015462,1.0987,0.46367,32657.3266712387,0.0007086648
73,10.1016/j.actamat.2015.04.023,4591,3(a),5860,x=0.025,Mg2.975Na0.025Sb2,760.5,0.000030626,0.0007792,0.00015471,1.0977,0.46417,32651.9950368968,0.0007098479
73,10.1016/j.actamat.2015.04.023,4591,3(a),5860,x=0.025,Mg2.975Na0.025Sb2,761,0.000030631,0.0007798,0.0001548,1.0967,0.46467,32646.6651431556,0.0007110422
73,10.1016/j.actamat.2015.04.023,4591,3(a),5860,x=0.025,Mg2.975Na0.025Sb2,761.5,0.000030637,0.0007804,0.00015489,1.0958,0.46517,32640.2715670594,0.0007121738
73,10.1016/j.actamat.2015.04.023,4591,3(a),5860,x=0.025,Mg2.975Na0.025Sb2,762,0.000030642,0.00078099,0.00015498,1.0948,0.46566,32634.945499641,0.0007133632
73,10.1016/j.actamat.2015.04.023,4591,3(a),5860,x=0.025,Mg2.975Na0.025Sb2,762.5,0.000030647,0.00078159,0.00015507,1.0938,0.46616,32629.6211700982,0.0007145639
73,10.1016/j.actamat.2015.04.023,4591,3(a),5860,x=0.025,Mg2.975Na0.025Sb2,763,0.000030652,0.00078219,0.00015516,1.0928,0.46666,32624.2985775806,0.0007157668
73,10.1016/j.actamat.2015.04.023,4591,3(a),5860,x=0.025,Mg2.975Na0.025Sb2,763.5,0.000030657,0.00078278,0.00015525,1.0918,0.46716,32618.9777212382,0.0007169628
73,10.1016/j.actamat.2015.04.023,4591,3(a),5860,x=0.025,Mg2.975Na0.025Sb2,764,0.000030662,0.00078338,0.00015534,1.0909,0.46765,32613.6586002218,0.0007181043
73,10.1016/j.actamat.2015.04.023,4591,3(a),5860,x=0.025,Mg2.975Na0.025Sb2,764.5,0.000030667,0.00078398,0.00015542,1.0899,0.46815,32608.3412136825,0.0007193137
73,10.1016/j.actamat.2015.04.023,4591,3(a),5860,x=0.025,Mg2.975Na0.025Sb2,765,0.000030672,0.00078457,0.00015551,1.0889,0.46865,32603.025560772,0.0007205161
73,10.1016/j.actamat.2015.04.023,4591,3(a),5860,x=0.025,Mg2.975Na0.025Sb2,765.5,0.000030678,0.00078517,0.0001556,1.0879,0.46914,32596.6490644762,0.0007217299
73,10.1016/j.actamat.2015.04.023,4591,3(a),5860,x=0.025,Mg2.975Na0.025Sb2,766,0.000030683,0.00078577,0.00015569,1.0869,0.46964,32591.3372225662,0.000722946
73,10.1016/j.actamat.2015.04.023,4591,3(a),5860,x=0.025,Mg2.975Na0.025Sb2,766.5,0.000030688,0.00078636,0.00015578,1.0859,0.47014,32586.0271115746,0.0007241551
73,10.1016/j.actamat.2015.04.023,4591,3(a),5860,x=0.025,Mg2.975Na0.025Sb2,767,0.000030693,0.00078696,0.00015587,1.085,0.47064,32580.7187306552,0.0007253088
73,10.1016/j.actamat.2015.04.023,4591,3(a),5860,x=0.025,Mg2.975Na0.025Sb2,767.5,0.000030698,0.00078755,0.00015596,1.084,0.47113,32575.4120789628,0.0007265221
73,10.1016/j.actamat.2015.04.023,4591,3(a),5860,x=0.025,Mg2.975Na0.025Sb2,768,0.000030703,0.00078815,0.00015605,1.083,0.47163,32570.1071556525,0.000727747
73,10.1016/j.actamat.2015.04.023,4591,3(a),5860,x=0.025,Mg2.975Na0.025Sb2,768.5,0.000030708,0.00078875,0.00015614,1.082,0.47213,32564.8039598802,0.0007289741
73,10.1016/j.actamat.2015.04.023,4591,3(a),5860,x=0.025,Mg2.975Na0.025Sb2,769,0.000030713,0.00078934,0.00015623,1.081,0.47263,32559.5024908019,0.0007301943
73,10.1016/j.actamat.2015.04.023,4591,3(a),5860,x=0.025,Mg2.975Na0.025Sb2,769.5,0.000030719,0.00078994,0.00015632,1.0801,0.47312,32553.1430059572,0.0007313582
73,10.1016/j.actamat.2015.04.023,4591,3(a),5860,x=0.025,Mg2.975Na0.025Sb2,770,0.000030724,0.00079054,0.00015641,1.0791,0.47362,32547.845332639,0.000732592
73,10.1016/j.actamat.2015.04.023,4591,3(a),5860,x=0.025,Mg2.975Na0.025Sb2,770.5,0.000030729,0.00079113,0.0001565,,0.47412,32542.5493833187,
73,10.1016/j.actamat.2015.04.023,4591,3(a),5860,x=0.025,Mg2.975Na0.025Sb2,771,0.000030734,0.00079173,0.00015659,,0.47462,32537.2551571549,
73,10.1016/j.actamat.2015.04.023,4591,3(a),5860,x=0.025,Mg2.975Na0.025Sb2,771.5,0.000030739,0.00079233,,,0.47511,32531.9626533069,
73,10.1016/j.actamat.2015.04.023,4591,3(a),5860,x=0.025,Mg2.975Na0.025Sb2,772,0.000030744,,,,0.47561,32526.6718709342,
73,10.1016/j.actamat.2015.04.023,4591,3(a),5860,x=0.025,Mg2.975Na0.025Sb2,772.5,0.000030749,,,,0.47611,32521.382809197,
73,10.1016/j.actamat.2015.04.023,4591,3(a),5860,x=0.025,Mg2.975Na0.025Sb2,773,-0.010806,,,,0.47661,-92.5411808255,
73,10.1016/j.actamat.2015.04.023,4591,3(a),5860,x=0.025,Mg2.975Na0.025Sb2,773.5,-0.010815,,,,,-92.4641701341,
73,10.1016/j.actamat.2015.04.023,4594,3(d),5860,x=0.025,Mg2.975Na0.025Sb2,295,,0.00022382,,2.0115,0.032825,,0.0001112702
73,10.1016/j.actamat.2015.04.023,4594,3(d),5860,x=0.025,Mg2.975Na0.025Sb2,295.5,,0.00022442,,2.0106,0.032983,,0.0001116184
73,10.1016/j.actamat.2015.04.023,4594,3(d),5860,x=0.025,Mg2.975Na0.025Sb2,296,,0.00022502,,2.0096,0.033144,,0.0001119725
73,10.1016/j.actamat.2015.04.023,4595,4(c),5860,x=0.025,Mg2.975Na0.025Sb2,294.5,,,,2.0125,,,