sid,DOI,figureid,fignum,sampleid,samplename,composition,Temperature,Electrical resistivity,Power factor,Seebeck coefficient,Thermal conductivity,ZT,Electrical conductivity,Figure of merit Z
10954,10.1007/s11664-015-4303-6,5134,3(a),6469,x=0.3,Ca0.7Eu0.3Zn2Sb2,451.5,0.000018055,0.0011077,0.00014091,2.7762,0.19738,55386.319579064,0.0003989986
10954,10.1007/s11664-015-4303-6,5134,3(a),6469,x=0.3,Ca0.7Eu0.3Zn2Sb2,452,0.000018068,0.0011084,0.000141,2.7743,0.19791,55346.4688952845,0.0003995242
10954,10.1007/s11664-015-4303-6,5134,3(a),6469,x=0.3,Ca0.7Eu0.3Zn2Sb2,452.5,0.000018082,0.0011091,0.00014109,2.7724,0.19844,55303.6168565424,0.0004000505
10954,10.1007/s11664-015-4303-6,5134,3(a),6469,x=0.3,Ca0.7Eu0.3Zn2Sb2,453,0.000018095,0.0011098,0.00014118,2.7705,0.19897,55263.8850511191,0.0004005775
10954,10.1007/s11664-015-4303-6,5134,3(a),6469,x=0.3,Ca0.7Eu0.3Zn2Sb2,453.5,0.000018108,0.0011105,0.00014128,2.7686,0.1995,55224.2102937928,0.0004011053
10954,10.1007/s11664-015-4303-6,5134,3(a),6469,x=0.3,Ca0.7Eu0.3Zn2Sb2,454,0.000018122,0.0011111,0.00014137,2.7667,0.20003,55181.547290586,0.0004015976
10954,10.1007/s11664-015-4303-6,5134,3(a),6469,x=0.3,Ca0.7Eu0.3Zn2Sb2,454.5,0.000018135,0.0011118,0.00014146,2.7648,0.20056,55141.9906258616,0.0004021267
10954,10.1007/s11664-015-4303-6,5134,3(a),6469,x=0.3,Ca0.7Eu0.3Zn2Sb2,455,0.000018148,0.0011125,0.00014155,2.763,0.20108,55102.4906325766,0.0004026421
10954,10.1007/s11664-015-4303-6,5134,3(a),6469,x=0.3,Ca0.7Eu0.3Zn2Sb2,455.5,0.000018162,0.0011132,0.00014165,2.7611,0.20161,55060.0154168043,0.0004031726
10954,10.1007/s11664-015-4303-6,5134,3(a),6469,x=0.3,Ca0.7Eu0.3Zn2Sb2,456,0.000018175,0.0011139,0.00014174,2.7592,0.20214,55020.6327372765,0.000403704
10954,10.1007/s11664-015-4303-6,5134,3(a),6469,x=0.3,Ca0.7Eu0.3Zn2Sb2,456.5,0.000018188,0.0011145,0.00014183,2.7573,0.20267,54981.306355839,0.0004041998
10954,10.1007/s11664-015-4303-6,5134,3(a),6469,x=0.3,Ca0.7Eu0.3Zn2Sb2,457,0.000018202,0.0011152,0.00014192,2.7554,0.2032,54939.0176903637,0.0004047325
10954,10.1007/s11664-015-4303-6,5134,3(a),6469,x=0.3,Ca0.7Eu0.3Zn2Sb2,457.5,0.000018215,0.0011159,0.00014202,2.7535,0.20373,54899.8078506725,0.000405266
10954,10.1007/s11664-015-4303-6,5134,3(a),6469,x=0.3,Ca0.7Eu0.3Zn2Sb2,458,0.000018228,0.0011166,0.00014211,2.7516,0.20426,54860.653938995,0.0004058003
10954,10.1007/s11664-015-4303-6,5134,3(a),6469,x=0.3,Ca0.7Eu0.3Zn2Sb2,458.5,0.000018242,0.0011173,0.0001422,2.7497,0.20478,54818.5505975222,0.0004063352
10954,10.1007/s11664-015-4303-6,5134,3(a),6469,x=0.3,Ca0.7Eu0.3Zn2Sb2,459,0.000018255,0.0011179,0.00014229,2.7479,0.20531,54779.5124623391,0.0004068198
10954,10.1007/s11664-015-4303-6,5134,3(a),6469,x=0.3,Ca0.7Eu0.3Zn2Sb2,459.5,0.000018268,0.0011186,0.00014239,2.746,0.20584,54740.5298883293,0.0004073562
10954,10.1007/s11664-015-4303-6,5134,3(a),6469,x=0.3,Ca0.7Eu0.3Zn2Sb2,460,0.000018282,0.0011193,0.00014248,2.7441,0.20637,54698.6106552894,0.0004078933
10954,10.1007/s11664-015-4303-6,5134,3(a),6469,x=0.3,Ca0.7Eu0.3Zn2Sb2,460.5,0.000018295,0.00112,0.00014257,2.7422,0.2069,54659.7430992074,0.0004084312
10954,10.1007/s11664-015-4303-6,5134,3(a),6469,x=0.3,Ca0.7Eu0.3Zn2Sb2,461,0.000018308,0.0011207,0.00014266,2.7403,0.20743,54620.9307406598,0.0004089698
10954,10.1007/s11664-015-4303-6,5134,3(a),6469,x=0.3,Ca0.7Eu0.3Zn2Sb2,461.5,0.000018322,0.0011213,0.00014275,2.7384,0.20796,54579.1944110905,0.0004094727
10954,10.1007/s11664-015-4303-6,5134,3(a),6469,x=0.3,Ca0.7Eu0.3Zn2Sb2,462,0.000018335,0.001122,0.00014285,2.7365,0.20848,54540.4963185165,0.0004100128
10954,10.1007/s11664-015-4303-6,5134,3(a),6469,x=0.3,Ca0.7Eu0.3Zn2Sb2,462.5,0.000018348,0.0011227,0.00014294,2.7346,0.20901,54501.8530630041,0.0004105536
10954,10.1007/s11664-015-4303-6,5134,3(a),6469,x=0.3,Ca0.7Eu0.3Zn2Sb2,463,0.000018362,0.0011234,0.00014303,2.7328,0.20954,54460.2984424355,0.0004110802
10954,10.1007/s11664-015-4303-6,5134,3(a),6469,x=0.3,Ca0.7Eu0.3Zn2Sb2,463.5,0.000018375,0.0011241,0.00014312,2.7309,0.21007,54421.768707483,0.0004116225
10954,10.1007/s11664-015-4303-6,5134,3(a),6469,x=0.3,Ca0.7Eu0.3Zn2Sb2,464,0.000018388,0.0011247,0.00014322,2.729,0.2106,54383.2934522515,0.000412129
10954,10.1007/s11664-015-4303-6,5134,3(a),6469,x=0.3,Ca0.7Eu0.3Zn2Sb2,464.5,0.000018402,0.0011254,0.00014331,2.7271,0.21113,54341.9193565917,0.0004126728
10954,10.1007/s11664-015-4303-6,5134,3(a),6469,x=0.3,Ca0.7Eu0.3Zn2Sb2,465,0.000018415,0.0011261,0.0001434,2.7252,0.21166,54303.5568829758,0.0004132174
10954,10.1007/s11664-015-4303-6,5134,3(a),6469,x=0.3,Ca0.7Eu0.3Zn2Sb2,465.5,0.000018429,0.0011268,0.00014349,2.7233,0.21218,54262.3039774269,0.0004137627
10954,10.1007/s11664-015-4303-6,5134,3(a),6469,x=0.3,Ca0.7Eu0.3Zn2Sb2,466,0.000018442,0.0011275,0.00014359,2.7214,0.21271,54224.0537902614,0.0004143088
10954,10.1007/s11664-015-4303-6,5134,3(a),6469,x=0.3,Ca0.7Eu0.3Zn2Sb2,466.5,0.000018455,0.0011281,0.00014368,2.7195,0.21324,54185.8574911948,0.0004148189
10954,10.1007/s11664-015-4303-6,5134,3(a),6469,x=0.3,Ca0.7Eu0.3Zn2Sb2,467,0.000018469,0.0011288,0.00014377,2.7177,0.21377,54144.7831501435,0.0004153512
10954,10.1007/s11664-015-4303-6,5134,3(a),6469,x=0.3,Ca0.7Eu0.3Zn2Sb2,467.5,0.000018482,0.0011295,0.00014386,2.7158,0.2143,54106.6984092631,0.0004158996
10954,10.1007/s11664-015-4303-6,5134,3(a),6469,x=0.3,Ca0.7Eu0.3Zn2Sb2,468,0.000018495,0.0011302,0.00014395,2.7139,0.21483,54068.6672073533,0.0004164487
10954,10.1007/s11664-015-4303-6,5134,3(a),6469,x=0.3,Ca0.7Eu0.3Zn2Sb2,468.5,0.000018509,0.0011309,0.00014405,2.712,0.21536,54027.7702739208,0.0004169985
10954,10.1007/s11664-015-4303-6,5134,3(a),6469,x=0.3,Ca0.7Eu0.3Zn2Sb2,469,0.000018522,0.0011315,0.00014414,2.7101,0.21588,53989.8499082173,0.0004175123
10954,10.1007/s11664-015-4303-6,5134,3(a),6469,x=0.3,Ca0.7Eu0.3Zn2Sb2,469.5,0.000018535,0.0011322,0.00014423,2.7082,0.21641,53951.9827353655,0.0004180637
10954,10.1007/s11664-015-4303-6,5134,3(a),6469,x=0.3,Ca0.7Eu0.3Zn2Sb2,470,0.000018549,0.0011329,0.00014432,2.7063,0.21694,53911.2620626449,0.0004186158
10954,10.1007/s11664-015-4303-6,5134,3(a),6469,x=0.3,Ca0.7Eu0.3Zn2Sb2,470.5,0.000018562,0.0011336,0.00014442,2.7044,0.21747,53873.505010236,0.0004191688
10954,10.1007/s11664-015-4303-6,5134,3(a),6469,x=0.3,Ca0.7Eu0.3Zn2Sb2,471,0.000018575,0.0011343,0.00014451,2.7026,0.218,53835.800807537,0.0004197069
10954,10.1007/s11664-015-4303-6,5134,3(a),6469,x=0.3,Ca0.7Eu0.3Zn2Sb2,471.5,0.000018589,0.0011349,0.0001446,2.7007,0.21853,53795.2552584862,0.0004202244
10954,10.1007/s11664-015-4303-6,5134,3(a),6469,x=0.3,Ca0.7Eu0.3Zn2Sb2,472,0.000018602,0.0011356,0.00014469,2.6988,0.21906,53757.6604666165,0.0004207796
10954,10.1007/s11664-015-4303-6,5134,3(a),6469,x=0.3,Ca0.7Eu0.3Zn2Sb2,472.5,0.000018615,0.0011363,0.00014479,2.6969,0.21958,53720.11818426,0.0004213356
10954,10.1007/s11664-015-4303-6,5134,3(a),6469,x=0.3,Ca0.7Eu0.3Zn2Sb2,473,0.000018629,0.001137,0.00014488,2.695,0.22011,53679.7466315959,0.0004218924
10954,10.1007/s11664-015-4303-6,5134,3(a),6469,x=0.3,Ca0.7Eu0.3Zn2Sb2,473.5,0.000018642,0.0011377,0.00014497,2.6931,0.22064,53642.313056539,0.00042245
10954,10.1007/s11664-015-4303-6,5134,3(a),6469,x=0.3,Ca0.7Eu0.3Zn2Sb2,474,0.000018655,0.0011383,0.00014506,2.6912,0.22117,53604.9316537121,0.0004229712
10954,10.1007/s11664-015-4303-6,5134,3(a),6469,x=0.3,Ca0.7Eu0.3Zn2Sb2,474.5,0.000018669,0.001139,0.00014515,2.6893,0.2217,53564.7329798061,0.0004235303
10954,10.1007/s11664-015-4303-6,5134,3(a),6469,x=0.3,Ca0.7Eu0.3Zn2Sb2,475,0.000018682,0.0011397,0.00014525,2.6875,0.22223,53527.459586768,0.0004240744
10954,10.1007/s11664-015-4303-6,5134,3(a),6469,x=0.3,Ca0.7Eu0.3Zn2Sb2,475.5,0.000018695,0.0011404,0.00014534,2.6856,0.22276,53490.2380315592,0.0004246351
10954,10.1007/s11664-015-4303-6,5134,3(a),6469,x=0.3,Ca0.7Eu0.3Zn2Sb2,476,0.000018709,0.0011411,0.00014543,2.6837,0.22329,53450.211128334,0.0004251966
10954,10.1007/s11664-015-4303-6,5134,3(a),6469,x=0.3,Ca0.7Eu0.3Zn2Sb2,476.5,0.000018722,0.0011417,0.00014552,2.6818,0.22381,53413.0968913578,0.0004257215
10954,10.1007/s11664-015-4303-6,5134,3(a),6469,x=0.3,Ca0.7Eu0.3Zn2Sb2,477,0.000018735,0.0011424,0.00014562,2.6799,0.22434,53376.0341606619,0.0004262846
10954,10.1007/s11664-015-4303-6,5134,3(a),6469,x=0.3,Ca0.7Eu0.3Zn2Sb2,477.5,0.000018749,0.0011431,0.00014571,2.678,0.22487,53336.1779294896,0.0004268484
10954,10.1007/s11664-015-4303-6,5134,3(a),6469,x=0.3,Ca0.7Eu0.3Zn2Sb2,478,0.000018762,0.0011438,0.0001458,2.6761,0.2254,53299.2218313613,0.000427413
10954,10.1007/s11664-015-4303-6,5134,3(a),6469,x=0.3,Ca0.7Eu0.3Zn2Sb2,478.5,0.000018776,0.0011445,0.00014589,2.6742,0.22593,53259.4801874734,0.0004279785
10954,10.1007/s11664-015-4303-6,5134,3(a),6469,x=0.3,Ca0.7Eu0.3Zn2Sb2,479,0.000018789,0.0011451,0.00014599,2.6724,0.22646,53222.6302623876,0.0004284912
10954,10.1007/s11664-015-4303-6,5134,3(a),6469,x=0.3,Ca0.7Eu0.3Zn2Sb2,479.5,0.000018802,0.0011458,0.00014608,2.6705,0.22699,53185.8312945431,0.0004290582
10954,10.1007/s11664-015-4303-6,5134,3(a),6469,x=0.3,Ca0.7Eu0.3Zn2Sb2,480,0.000018816,0.0011465,0.00014617,2.6686,0.22751,53146.2585034014,0.000429626
10954,10.1007/s11664-015-4303-6,5134,3(a),6469,x=0.3,Ca0.7Eu0.3Zn2Sb2,480.5,0.000018829,0.0011472,0.00014626,2.6667,0.22804,53109.5650326624,0.0004301946
10954,10.1007/s11664-015-4303-6,5134,3(a),6469,x=0.3,Ca0.7Eu0.3Zn2Sb2,481,0.000018842,0.0011479,0.00014636,2.6648,0.22857,53072.9221950961,0.000430764
10954,10.1007/s11664-015-4303-6,5134,3(a),6469,x=0.3,Ca0.7Eu0.3Zn2Sb2,481.5,0.000018856,0.0011485,0.00014645,2.6629,0.2291,53033.5171828596,0.0004312967
10954,10.1007/s11664-015-4303-6,5134,3(a),6469,x=0.3,Ca0.7Eu0.3Zn2Sb2,482,0.000018869,0.0011492,0.00014654,2.661,0.22963,52996.9791721872,0.0004318677
10954,10.1007/s11664-015-4303-6,5134,3(a),6469,x=0.3,Ca0.7Eu0.3Zn2Sb2,482.5,0.000018882,0.0011499,0.00014663,2.6591,0.23016,52960.4914733609,0.0004324395
10954,10.1007/s11664-015-4303-6,5134,3(a),6469,x=0.3,Ca0.7Eu0.3Zn2Sb2,483,0.000018896,0.0011506,0.00014672,2.6573,0.23069,52921.2531752752,0.0004329959
10954,10.1007/s11664-015-4303-6,5134,3(a),6469,x=0.3,Ca0.7Eu0.3Zn2Sb2,483.5,0.000018909,0.0011513,0.00014682,2.6554,0.23121,52884.8696387963,0.0004335693
10954,10.1007/s11664-015-4303-6,5134,3(a),6469,x=0.3,Ca0.7Eu0.3Zn2Sb2,484,0.000018922,0.001152,0.00014691,2.6535,0.23174,52848.5360955502,0.0004341436
10954,10.1007/s11664-015-4303-6,5134,3(a),6469,x=0.3,Ca0.7Eu0.3Zn2Sb2,484.5,0.000018936,0.0011526,0.000147,2.6516,0.23227,52809.4634558513,0.0004346809
10954,10.1007/s11664-015-4303-6,5134,3(a),6469,x=0.3,Ca0.7Eu0.3Zn2Sb2,485,0.000018949,0.0011533,0.00014709,2.6497,0.2328,52773.2334160114,0.0004352568
10954,10.1007/s11664-015-4303-6,5134,3(a),6469,x=0.3,Ca0.7Eu0.3Zn2Sb2,485.5,0.000018962,0.001154,0.00014719,2.6478,0.23333,52737.0530534754,0.0004358335
10954,10.1007/s11664-015-4303-6,5134,3(a),6469,x=0.3,Ca0.7Eu0.3Zn2Sb2,486,0.000018976,0.0011547,0.00014728,2.6459,0.23386,52698.1450252951,0.0004364111
10954,10.1007/s11664-015-4303-6,5134,3(a),6469,x=0.3,Ca0.7Eu0.3Zn2Sb2,486.5,0.000018989,0.0011554,0.00014737,2.644,0.23439,52662.0675127705,0.0004369894
10954,10.1007/s11664-015-4303-6,5134,3(a),6469,x=0.3,Ca0.7Eu0.3Zn2Sb2,487,0.000019002,0.001156,0.00014746,2.6422,0.23491,52626.0393642775,0.0004375142
10954,10.1007/s11664-015-4303-6,5134,3(a),6469,x=0.3,Ca0.7Eu0.3Zn2Sb2,487.5,0.000019016,0.0011567,0.00014756,2.6403,0.23544,52587.2949095499,0.0004380942
10954,10.1007/s11664-015-4303-6,5134,3(a),6469,x=0.3,Ca0.7Eu0.3Zn2Sb2,488,0.000019029,0.0011574,0.00014765,2.6384,0.23597,52551.3689631615,0.000438675
10954,10.1007/s11664-015-4303-6,5134,3(a),6469,x=0.3,Ca0.7Eu0.3Zn2Sb2,488.5,0.000019042,0.0011581,0.00014774,2.6365,0.2365,52515.4920701607,0.0004392566
10954,10.1007/s11664-015-4303-6,5134,3(a),6469,x=0.3,Ca0.7Eu0.3Zn2Sb2,489,0.000019056,0.0011588,0.00014783,2.6346,0.23703,52476.9101595298,0.0004398391
10954,10.1007/s11664-015-4303-6,5134,3(a),6469,x=0.3,Ca0.7Eu0.3Zn2Sb2,489.5,0.000019069,0.0011594,0.00014792,2.6327,0.23756,52441.1348261576,0.0004403844
10954,10.1007/s11664-015-4303-6,5134,3(a),6469,x=0.3,Ca0.7Eu0.3Zn2Sb2,490,0.000019082,0.0011601,0.00014802,2.6308,0.23809,52405.4082381302,0.0004409685
10954,10.1007/s11664-015-4303-6,5134,3(a),6469,x=0.3,Ca0.7Eu0.3Zn2Sb2,490.5,0.000019096,0.0011608,0.00014811,2.6289,0.23861,52366.9878508588,0.0004415535
10954,10.1007/s11664-015-4303-6,5134,3(a),6469,x=0.3,Ca0.7Eu0.3Zn2Sb2,491,0.000019109,0.0011615,0.0001482,2.6271,0.23914,52331.3621853577,0.0004421225
10954,10.1007/s11664-015-4303-6,5134,3(a),6469,x=0.3,Ca0.7Eu0.3Zn2Sb2,491.5,0.000019123,0.0011622,0.00014829,2.6252,0.23967,52293.0502536213,0.0004427091
10954,10.1007/s11664-015-4303-6,5134,3(a),6469,x=0.3,Ca0.7Eu0.3Zn2Sb2,492,0.000019136,0.0011628,0.00014839,2.6233,0.2402,52257.525083612,0.0004432585
10954,10.1007/s11664-015-4303-6,5134,3(a),6469,x=0.3,Ca0.7Eu0.3Zn2Sb2,492.5,0.000019149,0.0011635,0.00014848,2.6214,0.24073,52222.0481487284,0.0004438468
10954,10.1007/s11664-015-4303-6,5134,3(a),6469,x=0.3,Ca0.7Eu0.3Zn2Sb2,493,0.000019163,0.0011642,0.00014857,2.6195,0.24126,52183.8960496791,0.000444436
10954,10.1007/s11664-015-4303-6,5134,3(a),6469,x=0.3,Ca0.7Eu0.3Zn2Sb2,493.5,0.000019176,0.0011649,0.00014866,2.6176,0.24179,52148.5189820609,0.000445026
10954,10.1007/s11664-015-4303-6,5134,3(a),6469,x=0.3,Ca0.7Eu0.3Zn2Sb2,494,0.000019189,0.0011656,0.00014876,2.6157,0.24231,52113.1898483506,0.0004456169
10954,10.1007/s11664-015-4303-6,5134,3(a),6469,x=0.3,Ca0.7Eu0.3Zn2Sb2,494.5,0.000019203,0.0011662,0.00014885,2.6138,0.24284,52075.1965838671,0.0004461703
10954,10.1007/s11664-015-4303-6,5134,3(a),6469,x=0.3,Ca0.7Eu0.3Zn2Sb2,495,0.000019216,0.0011669,0.00014894,2.612,0.24337,52039.9666944213,0.0004467458
10954,10.1007/s11664-015-4303-6,5134,3(a),6469,x=0.3,Ca0.7Eu0.3Zn2Sb2,495.5,0.000019229,0.0011676,0.00014903,2.6101,0.2439,52004.7844401685,0.0004473392
10954,10.1007/s11664-015-4303-6,5134,3(a),6469,x=0.3,Ca0.7Eu0.3Zn2Sb2,496,0.000019243,0.0011683,0.00014912,2.6082,0.24443,51966.949020423,0.0004479334
10954,10.1007/s11664-015-4303-6,5134,3(a),6469,x=0.3,Ca0.7Eu0.3Zn2Sb2,496.5,0.000019256,0.001169,0.00014922,2.6063,0.24496,51931.8653926049,0.0004485286
10954,10.1007/s11664-015-4303-6,5134,3(a),6469,x=0.3,Ca0.7Eu0.3Zn2Sb2,497,0.000019269,0.0011696,0.00014931,2.6044,0.24549,51896.8291037418,0.0004490862
10954,10.1007/s11664-015-4303-6,5134,3(a),6469,x=0.3,Ca0.7Eu0.3Zn2Sb2,497.5,0.000019283,0.0011703,0.0001494,2.6025,0.24602,51859.150547114,0.000449683
10954,10.1007/s11664-015-4303-6,5134,3(a),6469,x=0.3,Ca0.7Eu0.3Zn2Sb2,498,0.000019296,0.001171,0.00014949,2.6006,0.24654,51824.2122719735,0.0004502807
10954,10.1007/s11664-015-4303-6,5134,3(a),6469,x=0.3,Ca0.7Eu0.3Zn2Sb2,498.5,0.000019309,0.0011717,0.00014959,2.5987,0.24707,51789.3210420011,0.0004508793
10954,10.1007/s11664-015-4303-6,5134,3(a),6469,x=0.3,Ca0.7Eu0.3Zn2Sb2,499,0.000019323,0.0011724,0.00014968,2.5969,0.2476,51751.7983749935,0.0004514614
10954,10.1007/s11664-015-4303-6,5134,3(a),6469,x=0.3,Ca0.7Eu0.3Zn2Sb2,499.5,0.000019336,0.001173,0.00014977,2.595,0.24813,51717.0045510964,0.0004520231
10954,10.1007/s11664-015-4303-6,5134,3(a),6469,x=0.3,Ca0.7Eu0.3Zn2Sb2,500,0.000019349,0.0011737,0.00014986,2.5931,0.24866,51682.2574810068,0.0004526243
10954,10.1007/s11664-015-4303-6,5134,3(a),6469,x=0.3,Ca0.7Eu0.3Zn2Sb2,500.5,0.000019363,0.0011744,0.00014996,2.5912,0.24919,51644.8897381604,0.0004532263
10954,10.1007/s11664-015-4303-6,5134,3(a),6469,x=0.3,Ca0.7Eu0.3Zn2Sb2,501,0.000019376,0.0011751,0.00015005,2.5893,0.24972,51610.2394715112,0.0004538292
10954,10.1007/s11664-015-4303-6,5134,3(a),6469,x=0.3,Ca0.7Eu0.3Zn2Sb2,501.5,0.000019389,0.0011758,0.00015014,2.5874,0.25024,51575.6356697096,0.000454433
10954,10.1007/s11664-015-4303-6,5134,3(a),6469,x=0.3,Ca0.7Eu0.3Zn2Sb2,502,0.000019403,0.0011764,0.00015023,2.5855,0.25077,51538.4218935216,0.000454999
10954,10.1007/s11664-015-4303-6,5134,3(a),6469,x=0.3,Ca0.7Eu0.3Zn2Sb2,502.5,0.000019416,0.0011771,0.00015033,2.5836,0.2513,51503.9142974866,0.0004556046
10954,10.1007/s11664-015-4303-6,5134,3(a),6469,x=0.3,Ca0.7Eu0.3Zn2Sb2,503,0.000019429,0.0011778,0.00015042,2.5818,0.25183,51469.4528797159,0.0004561934
10954,10.1007/s11664-015-4303-6,5134,3(a),6469,x=0.3,Ca0.7Eu0.3Zn2Sb2,503.5,0.000019443,0.0011785,0.00015051,2.5799,0.25236,51432.3921205575,0.0004568007
10954,10.1007/s11664-015-4303-6,5134,3(a),6469,x=0.3,Ca0.7Eu0.3Zn2Sb2,504,0.000019456,0.0011792,0.0001506,2.578,0.25289,51398.0263157895,0.0004574088
10954,10.1007/s11664-015-4303-6,5134,3(a),6469,x=0.3,Ca0.7Eu0.3Zn2Sb2,504.5,0.00001947,0.0011798,0.00015069,2.5761,0.25342,51361.0683102208,0.0004579791
10954,10.1007/s11664-015-4303-6,5134,3(a),6469,x=0.3,Ca0.7Eu0.3Zn2Sb2,505,0.000019483,0.0011805,0.00015079,2.5742,0.25394,51326.7977210902,0.0004585891
10954,10.1007/s11664-015-4303-6,5134,3(a),6469,x=0.3,Ca0.7Eu0.3Zn2Sb2,505.5,0.000019496,0.0011812,0.00015088,2.5723,0.25447,51292.5728354534,0.0004591999
10954,10.1007/s11664-015-4303-6,5134,3(a),6469,x=0.3,Ca0.7Eu0.3Zn2Sb2,506,0.00001951,0.0011819,0.00015097,2.5704,0.255,51255.7662737058,0.0004598117
10954,10.1007/s11664-015-4303-6,5134,3(a),6469,x=0.3,Ca0.7Eu0.3Zn2Sb2,506.5,0.000019523,0.0011826,0.00015106,2.5685,0.25553,51221.6360190545,0.0004604244
10954,10.1007/s11664-015-4303-6,5134,3(a),6469,x=0.3,Ca0.7Eu0.3Zn2Sb2,507,0.000019536,0.0011832,0.00015116,2.5667,0.25606,51187.5511875512,0.000460981
10954,10.1007/s11664-015-4303-6,5134,3(a),6469,x=0.3,Ca0.7Eu0.3Zn2Sb2,507.5,0.00001955,0.0011839,0.00015125,2.5648,0.25659,51150.895140665,0.0004615954
10954,10.1007/s11664-015-4303-6,5134,3(a),6469,x=0.3,Ca0.7Eu0.3Zn2Sb2,508,0.000019563,0.0011846,0.00015134,2.5629,0.25712,51116.9043602719,0.0004622108
10954,10.1007/s11664-015-4303-6,5134,3(a),6469,x=0.3,Ca0.7Eu0.3Zn2Sb2,508.5,0.000019576,0.0011853,0.00015143,2.561,0.25764,51082.9587249694,0.000462827
10954,10.1007/s11664-015-4303-6,5134,3(a),6469,x=0.3,Ca0.7Eu0.3Zn2Sb2,509,0.00001959,0.001186,0.00015153,2.5591,0.25817,51046.4522715671,0.0004634442
10954,10.1007/s11664-015-4303-6,5134,3(a),6469,x=0.3,Ca0.7Eu0.3Zn2Sb2,509.5,0.000019603,0.0011866,0.00015162,2.5572,0.2587,51012.6001122277,0.0004640232
10954,10.1007/s11664-015-4303-6,5134,3(a),6469,x=0.3,Ca0.7Eu0.3Zn2Sb2,510,0.000019616,0.0011873,0.00015171,2.5553,0.25923,50978.792822186,0.0004646421
10954,10.1007/s11664-015-4303-6,5134,3(a),6469,x=0.3,Ca0.7Eu0.3Zn2Sb2,510.5,0.00001963,0.001188,0.0001518,2.5534,0.25976,50942.4350483953,0.000465262
10954,10.1007/s11664-015-4303-6,5134,3(a),6469,x=0.3,Ca0.7Eu0.3Zn2Sb2,511,0.000019643,0.0011887,0.00015189,2.5516,0.26029,50908.7206638497,0.0004658646
10954,10.1007/s11664-015-4303-6,5134,3(a),6469,x=0.3,Ca0.7Eu0.3Zn2Sb2,511.5,0.000019656,0.0011894,0.00015199,2.5497,0.26082,50875.0508750509,0.0004664863
10954,10.1007/s11664-015-4303-6,5134,3(a),6469,x=0.3,Ca0.7Eu0.3Zn2Sb2,512,0.00001967,0.00119,0.00015208,2.5478,0.26134,50838.8408744281,0.0004670696
10954,10.1007/s11664-015-4303-6,5134,3(a),6469,x=0.3,Ca0.7Eu0.3Zn2Sb2,512.5,0.000019683,0.0011907,0.00015217,2.5459,0.26187,50805.2634252909,0.0004676932
10954,10.1007/s11664-015-4303-6,5134,3(a),6469,x=0.3,Ca0.7Eu0.3Zn2Sb2,513,0.000019696,0.0011914,0.00015226,2.544,0.2624,50771.7303005686,0.0004683176
10954,10.1007/s11664-015-4303-6,5134,3(a),6469,x=0.3,Ca0.7Eu0.3Zn2Sb2,513.5,0.00001971,0.0011921,0.00015236,2.5421,0.26293,50735.6671740233,0.000468943
10954,10.1007/s11664-015-4303-6,5134,3(a),6469,x=0.3,Ca0.7Eu0.3Zn2Sb2,514,0.000019723,0.0011928,0.00015245,2.5402,0.26346,50702.2258277138,0.0004695693
10954,10.1007/s11664-015-4303-6,5134,3(a),6469,x=0.3,Ca0.7Eu0.3Zn2Sb2,514.5,0.000019736,0.0011934,0.00015254,2.5383,0.26399,50668.8285366842,0.0004701572
10954,10.1007/s11664-015-4303-6,5134,3(a),6469,x=0.3,Ca0.7Eu0.3Zn2Sb2,515,0.00001975,0.0011941,0.00015263,2.5365,0.26452,50632.9113924051,0.0004707668
10954,10.1007/s11664-015-4303-6,5134,3(a),6469,x=0.3,Ca0.7Eu0.3Zn2Sb2,515.5,0.000019763,0.0011948,0.00015273,2.5346,0.26504,50599.6053230785,0.0004713959
10954,10.1007/s11664-015-4303-6,5134,3(a),6469,x=0.3,Ca0.7Eu0.3Zn2Sb2,516,0.000019776,0.0011955,0.00015282,2.5327,0.26557,50566.3430420712,0.0004720259