sid,DOI,figureid,fignum,sampleid,samplename,composition,Temperature,Electrical resistivity,Power factor,Seebeck coefficient,Thermal conductivity,ZT,Electrical conductivity,Figure of merit Z
73,10.1016/j.actamat.2015.04.023,4591,3(a),5858,x=0.006,Mg2.994Na0.006Sb2,574.5,0.000079551,0.00045833,0.00018265,1.0499,0.31576,12570.5522243592,0.0004365463
73,10.1016/j.actamat.2015.04.023,4591,3(a),5858,x=0.006,Mg2.994Na0.006Sb2,575,0.000079565,0.00045874,0.00018277,1.049,0.3163,12568.3403506567,0.0004373117
73,10.1016/j.actamat.2015.04.023,4591,3(a),5858,x=0.006,Mg2.994Na0.006Sb2,575.5,0.000079579,0.00045915,0.0001829,1.0482,0.31684,12566.1292552055,0.0004380366
73,10.1016/j.actamat.2015.04.023,4591,3(a),5858,x=0.006,Mg2.994Na0.006Sb2,576,0.000079593,0.00045956,0.00018302,1.0474,0.31737,12563.918937595,0.0004387627
73,10.1016/j.actamat.2015.04.023,4591,3(a),5858,x=0.006,Mg2.994Na0.006Sb2,576.5,0.000079608,0.00045997,0.00018314,1.0465,0.31791,12561.551602854,0.0004395318
73,10.1016/j.actamat.2015.04.023,4591,3(a),5858,x=0.006,Mg2.994Na0.006Sb2,577,0.000079622,0.00046038,0.00018326,1.0457,0.31845,12559.3428951797,0.0004402601
73,10.1016/j.actamat.2015.04.023,4591,3(a),5858,x=0.006,Mg2.994Na0.006Sb2,577.5,0.000079636,0.00046079,0.00018338,1.0448,0.31898,12557.1349640866,0.0004410318
73,10.1016/j.actamat.2015.04.023,4591,3(a),5858,x=0.006,Mg2.994Na0.006Sb2,578,0.000079651,0.00046121,0.0001835,1.044,0.31952,12554.7701849318,0.000441772
73,10.1016/j.actamat.2015.04.023,4591,3(a),5858,x=0.006,Mg2.994Na0.006Sb2,578.5,0.000079665,0.00046162,0.00018362,1.0431,0.32006,12552.5638611686,0.0004425463
73,10.1016/j.actamat.2015.04.023,4591,3(a),5858,x=0.006,Mg2.994Na0.006Sb2,579,0.000079679,0.00046203,0.00018374,1.0423,0.32059,12550.3583127298,0.0004432793
73,10.1016/j.actamat.2015.04.023,4591,3(a),5858,x=0.006,Mg2.994Na0.006Sb2,579.5,0.000079694,0.00046244,0.00018386,1.0414,0.32113,12547.9960850252,0.0004440561
73,10.1016/j.actamat.2015.04.023,4591,3(a),5858,x=0.006,Mg2.994Na0.006Sb2,580,0.000079708,0.00046285,0.00018398,1.0406,0.32166,12545.7921413158,0.0004447915
73,10.1016/j.actamat.2015.04.023,4591,3(a),5858,x=0.006,Mg2.994Na0.006Sb2,580.5,0.000079722,0.00046326,0.00018411,1.0397,0.3222,12543.5889716766,0.0004455708
73,10.1016/j.actamat.2015.04.023,4591,3(a),5858,x=0.006,Mg2.994Na0.006Sb2,581,0.000079737,0.00046367,0.00018423,1.0389,0.32274,12541.2292912951,0.0004463086
73,10.1016/j.actamat.2015.04.023,4591,3(a),5858,x=0.006,Mg2.994Na0.006Sb2,581.5,0.000079751,0.00046408,0.00018435,1.038,0.32327,12539.0277237903,0.0004470906
73,10.1016/j.actamat.2015.04.023,4591,3(a),5858,x=0.006,Mg2.994Na0.006Sb2,582,0.000079765,0.00046449,0.00018447,1.0372,0.32381,12536.8269291042,0.0004478307
73,10.1016/j.actamat.2015.04.023,4591,3(a),5858,x=0.006,Mg2.994Na0.006Sb2,582.5,0.000079779,0.0004649,0.00018459,1.0363,0.32435,12534.6269068301,0.0004486153
73,10.1016/j.actamat.2015.04.023,4591,3(a),5858,x=0.006,Mg2.994Na0.006Sb2,583,0.000079794,0.00046531,0.00018471,1.0355,0.32488,12532.2705967867,0.0004493578
73,10.1016/j.actamat.2015.04.023,4591,3(a),5858,x=0.006,Mg2.994Na0.006Sb2,583.5,0.000079808,0.00046572,0.00018483,1.0347,0.32542,12530.0721732157,0.0004501015
73,10.1016/j.actamat.2015.04.023,4591,3(a),5858,x=0.006,Mg2.994Na0.006Sb2,584,0.000079822,0.00046613,0.00018495,1.0338,0.32596,12527.8745208088,0.0004508899
73,10.1016/j.actamat.2015.04.023,4591,3(a),5858,x=0.006,Mg2.994Na0.006Sb2,584.5,0.000079837,0.00046655,0.00018507,1.033,0.32649,12525.5207485251,0.0004516457
73,10.1016/j.actamat.2015.04.023,4591,3(a),5858,x=0.006,Mg2.994Na0.006Sb2,585,0.000079851,0.00046696,0.00018519,1.0321,0.32703,12523.3246922393,0.0004524368
73,10.1016/j.actamat.2015.04.023,4591,3(a),5858,x=0.006,Mg2.994Na0.006Sb2,585.5,0.000079865,0.00046737,0.00018531,1.0313,0.32757,12521.1294058724,0.0004531853
73,10.1016/j.actamat.2015.04.023,4591,3(a),5858,x=0.006,Mg2.994Na0.006Sb2,586,0.00007988,0.00046778,0.00018544,1.0304,0.3281,12518.7781672509,0.000453979
73,10.1016/j.actamat.2015.04.023,4591,3(a),5858,x=0.006,Mg2.994Na0.006Sb2,586.5,0.000079894,0.00046819,0.00018556,1.0296,0.32864,12516.5844744286,0.00045473
73,10.1016/j.actamat.2015.04.023,4591,3(a),5858,x=0.006,Mg2.994Na0.006Sb2,587,0.000079908,0.0004686,0.00018568,1.0287,0.32918,12514.3915502828,0.0004555264
73,10.1016/j.actamat.2015.04.023,4591,3(a),5858,x=0.006,Mg2.994Na0.006Sb2,587.5,0.000079922,0.00046901,0.0001858,1.0279,0.32971,12512.1993944096,0.0004562798
73,10.1016/j.actamat.2015.04.023,4591,3(a),5858,x=0.006,Mg2.994Na0.006Sb2,588,0.000079937,0.00046942,0.00018592,1.027,0.33025,12509.8515080626,0.0004570789
73,10.1016/j.actamat.2015.04.023,4591,3(a),5858,x=0.006,Mg2.994Na0.006Sb2,588.5,0.000079951,0.00046983,0.00018604,1.0262,0.33079,12507.6609423272,0.0004578347
73,10.1016/j.actamat.2015.04.023,4591,3(a),5858,x=0.006,Mg2.994Na0.006Sb2,589,0.000079965,0.00047024,0.00018616,1.0253,0.33132,12505.4711436253,0.0004586365
73,10.1016/j.actamat.2015.04.023,4591,3(a),5858,x=0.006,Mg2.994Na0.006Sb2,589.5,0.00007998,0.00047065,0.00018628,1.0245,0.33186,12503.1257814454,0.0004593948
73,10.1016/j.actamat.2015.04.023,4591,3(a),5858,x=0.006,Mg2.994Na0.006Sb2,590,0.000079994,0.00047106,0.0001864,1.0236,0.3324,12500.9375703178,0.0004601993
73,10.1016/j.actamat.2015.04.023,4591,3(a),5858,x=0.006,Mg2.994Na0.006Sb2,590.5,0.000080008,0.00047147,0.00018652,1.0228,0.33293,12498.7501249875,0.0004609601
73,10.1016/j.actamat.2015.04.023,4591,3(a),5858,x=0.006,Mg2.994Na0.006Sb2,591,0.000080023,0.00047188,0.00018664,1.022,0.33347,12496.4072829062,0.0004617221
73,10.1016/j.actamat.2015.04.023,4591,3(a),5858,x=0.006,Mg2.994Na0.006Sb2,591.5,0.000080037,0.0004723,0.00018677,1.0211,0.33401,12494.2214225921,0.0004625404
73,10.1016/j.actamat.2015.04.023,4591,3(a),5858,x=0.006,Mg2.994Na0.006Sb2,592,0.000080051,0.00047271,0.00018689,1.0203,0.33454,12492.0363268416,0.0004633049
73,10.1016/j.actamat.2015.04.023,4591,3(a),5858,x=0.006,Mg2.994Na0.006Sb2,592.5,0.000080066,0.00047312,0.00018701,1.0194,0.33508,12489.6960007993,0.0004641161
73,10.1016/j.actamat.2015.04.023,4591,3(a),5858,x=0.006,Mg2.994Na0.006Sb2,593,0.00008008,0.00047353,0.00018713,1.0186,0.33562,12487.5124875125,0.0004648832
73,10.1016/j.actamat.2015.04.023,4591,3(a),5858,x=0.006,Mg2.994Na0.006Sb2,593.5,0.000080094,0.00047394,0.00018725,1.0177,0.33615,12485.3297375584,0.0004656972
73,10.1016/j.actamat.2015.04.023,4591,3(a),5858,x=0.006,Mg2.994Na0.006Sb2,594,0.000080108,0.00047435,0.00018737,1.0169,0.33669,12483.1477505368,0.0004664667
73,10.1016/j.actamat.2015.04.023,4591,3(a),5858,x=0.006,Mg2.994Na0.006Sb2,594.5,0.000080123,0.00047476,0.00018749,1.016,0.33722,12480.8107534665,0.0004672835
73,10.1016/j.actamat.2015.04.023,4591,3(a),5858,x=0.006,Mg2.994Na0.006Sb2,595,0.000080137,0.00047517,0.00018761,1.0152,0.33776,12478.6303455333,0.0004680556
73,10.1016/j.actamat.2015.04.023,4591,3(a),5858,x=0.006,Mg2.994Na0.006Sb2,595.5,0.000080151,0.00047558,0.00018773,1.0143,0.3383,12476.4506993051,0.0004688751
73,10.1016/j.actamat.2015.04.023,4591,3(a),5858,x=0.006,Mg2.994Na0.006Sb2,596,0.000080166,0.00047599,0.00018785,1.0135,0.33883,12474.1162088666,0.0004696497
73,10.1016/j.actamat.2015.04.023,4591,3(a),5858,x=0.006,Mg2.994Na0.006Sb2,596.5,0.00008018,0.0004764,0.00018798,1.0126,0.33937,12471.9381391868,0.0004704721
73,10.1016/j.actamat.2015.04.023,4591,3(a),5858,x=0.006,Mg2.994Na0.006Sb2,597,0.000080194,0.00047681,0.0001881,1.0118,0.33991,12469.7608299873,0.0004712493
73,10.1016/j.actamat.2015.04.023,4591,3(a),5858,x=0.006,Mg2.994Na0.006Sb2,597.5,0.000080209,0.00047722,0.00018822,1.011,0.34044,12467.4288421499,0.0004720277
73,10.1016/j.actamat.2015.04.023,4591,3(a),5858,x=0.006,Mg2.994Na0.006Sb2,598,0.000080223,0.00047764,0.00018834,1.0101,0.34098,12465.2531069643,0.0004728641
73,10.1016/j.actamat.2015.04.023,4591,3(a),5858,x=0.006,Mg2.994Na0.006Sb2,598.5,0.000080237,0.00047805,0.00018846,1.0093,0.34152,12463.0781310368,0.0004736451
73,10.1016/j.actamat.2015.04.023,4591,3(a),5858,x=0.006,Mg2.994Na0.006Sb2,599,0.000080252,0.00047846,0.00018858,1.0084,0.34205,12460.7486417784,0.0004744744
73,10.1016/j.actamat.2015.04.023,4591,3(a),5858,x=0.006,Mg2.994Na0.006Sb2,599.5,0.000080266,0.00047887,0.0001887,1.0076,0.34259,12458.5752373359,0.000475258
73,10.1016/j.actamat.2015.04.023,4591,3(a),5858,x=0.006,Mg2.994Na0.006Sb2,600,0.00008028,0.00047928,0.00018882,1.0067,0.34313,12456.4025909317,0.0004760902
73,10.1016/j.actamat.2015.04.023,4591,3(a),5858,x=0.006,Mg2.994Na0.006Sb2,600.5,0.000080294,0.00047969,0.00018894,1.0059,0.34366,12454.2307021695,0.0004768764
73,10.1016/j.actamat.2015.04.023,4591,3(a),5858,x=0.006,Mg2.994Na0.006Sb2,601,0.000080309,0.0004801,0.00018906,1.005,0.3442,12451.9045187961,0.0004777114
73,10.1016/j.actamat.2015.04.023,4591,3(a),5858,x=0.006,Mg2.994Na0.006Sb2,601.5,0.000080323,0.00048051,0.00018918,1.0042,0.34474,12449.7341981749,0.0004785003
73,10.1016/j.actamat.2015.04.023,4591,3(a),5858,x=0.006,Mg2.994Na0.006Sb2,602,0.000080337,0.00048092,0.00018931,1.0033,0.34527,12447.5646339794,0.0004793382
73,10.1016/j.actamat.2015.04.023,4591,3(a),5858,x=0.006,Mg2.994Na0.006Sb2,602.5,0.000080352,0.00048133,0.00018943,1.0025,0.34581,12445.2409398646,0.0004801297
73,10.1016/j.actamat.2015.04.023,4591,3(a),5858,x=0.006,Mg2.994Na0.006Sb2,603,0.000080366,0.00048174,0.00018955,1.0016,0.34635,12443.0729412936,0.0004809704
73,10.1016/j.actamat.2015.04.023,4591,3(a),5858,x=0.006,Mg2.994Na0.006Sb2,603.5,0.00008038,0.00048215,0.00018967,1.0008,0.34688,12440.9056979348,0.0004817646
73,10.1016/j.actamat.2015.04.023,4591,3(a),5858,x=0.006,Mg2.994Na0.006Sb2,604,0.000080395,0.00048256,0.00018979,0.99995,0.34742,12438.5844890851,0.0004825841
73,10.1016/j.actamat.2015.04.023,4591,3(a),5858,x=0.006,Mg2.994Na0.006Sb2,604.5,0.000080409,0.00048298,0.00018991,0.9991,0.34796,12436.4188088398,0.0004834151
73,10.1016/j.actamat.2015.04.023,4591,3(a),5858,x=0.006,Mg2.994Na0.006Sb2,605,0.000080423,0.00048339,0.00019003,0.99825,0.34849,12434.2538825958,0.0004842374
73,10.1016/j.actamat.2015.04.023,4591,3(a),5858,x=0.006,Mg2.994Na0.006Sb2,605.5,0.000080437,0.0004838,0.00019015,0.99741,0.34903,12432.0897099593,0.0004850563
73,10.1016/j.actamat.2015.04.023,4591,3(a),5858,x=0.006,Mg2.994Na0.006Sb2,606,0.000080452,0.00048421,0.00019027,0.99656,0.34957,12429.7717893899,0.0004858814
73,10.1016/j.actamat.2015.04.023,4591,3(a),5858,x=0.006,Mg2.994Na0.006Sb2,606.5,0.000080466,0.00048462,0.00019039,0.99571,0.3501,12427.6091765466,0.000486708
73,10.1016/j.actamat.2015.04.023,4591,3(a),5858,x=0.006,Mg2.994Na0.006Sb2,607,0.00008048,0.00048503,0.00019052,0.99487,0.35064,12425.4473161034,0.000487531
73,10.1016/j.actamat.2015.04.023,4591,3(a),5858,x=0.006,Mg2.994Na0.006Sb2,607.5,0.000080495,0.00048544,0.00019064,0.99402,0.35117,12423.1318715448,0.0004883604
73,10.1016/j.actamat.2015.04.023,4591,3(a),5858,x=0.006,Mg2.994Na0.006Sb2,608,0.000080509,0.00048585,0.00019076,0.99317,0.35171,12420.9715683961,0.0004891912
73,10.1016/j.actamat.2015.04.023,4591,3(a),5858,x=0.006,Mg2.994Na0.006Sb2,608.5,0.000080523,0.00048626,0.00019088,0.99233,0.35225,12418.8120164425,0.0004900184
73,10.1016/j.actamat.2015.04.023,4591,3(a),5858,x=0.006,Mg2.994Na0.006Sb2,609,0.000080538,0.00048667,0.000191,0.99148,0.35278,12416.4990439296,0.0004908521
73,10.1016/j.actamat.2015.04.023,4591,3(a),5858,x=0.006,Mg2.994Na0.006Sb2,609.5,0.000080552,0.00048708,0.00019112,0.99064,0.35332,12414.3410467772,0.0004916821
73,10.1016/j.actamat.2015.04.023,4591,3(a),5858,x=0.006,Mg2.994Na0.006Sb2,610,0.000080566,0.00048749,0.00019124,0.98979,0.35386,12412.1837996177,0.0004925186
73,10.1016/j.actamat.2015.04.023,4591,3(a),5858,x=0.006,Mg2.994Na0.006Sb2,610.5,0.000080581,0.0004879,0.00019136,0.98894,0.35439,12409.8732951937,0.0004933565
73,10.1016/j.actamat.2015.04.023,4591,3(a),5858,x=0.006,Mg2.994Na0.006Sb2,611,0.000080595,0.00048831,0.00019148,0.9881,0.35493,12407.7176003474,0.0004941909
73,10.1016/j.actamat.2015.04.023,4591,3(a),5858,x=0.006,Mg2.994Na0.006Sb2,611.5,0.000080609,0.00048873,0.0001916,0.98725,0.35547,12405.5626542942,0.0004950418
73,10.1016/j.actamat.2015.04.023,4591,3(a),5858,x=0.006,Mg2.994Na0.006Sb2,612,0.000080623,0.00048914,0.00019172,0.9864,0.356,12403.4084566439,0.000495884
73,10.1016/j.actamat.2015.04.023,4591,3(a),5858,x=0.006,Mg2.994Na0.006Sb2,612.5,0.000080638,0.00048955,0.00019185,0.98556,0.35654,12401.1012177881,0.0004967227
73,10.1016/j.actamat.2015.04.023,4591,3(a),5858,x=0.006,Mg2.994Na0.006Sb2,613,0.000080652,0.00048996,0.00019197,0.98471,0.35708,12398.9485691613,0.0004975678
73,10.1016/j.actamat.2015.04.023,4591,3(a),5858,x=0.006,Mg2.994Na0.006Sb2,613.5,0.000080666,0.00049037,0.00019209,0.98386,0.35761,12396.7966677411,0.0004984144
73,10.1016/j.actamat.2015.04.023,4591,3(a),5858,x=0.006,Mg2.994Na0.006Sb2,614,0.000080681,0.00049078,0.00019221,0.98302,0.35815,12394.4918878051,0.0004992574
73,10.1016/j.actamat.2015.04.023,4591,3(a),5858,x=0.006,Mg2.994Na0.006Sb2,614.5,0.000080695,0.00049119,0.00019233,0.98217,0.35869,12392.3415329326,0.0005001069
73,10.1016/j.actamat.2015.04.023,4591,3(a),5858,x=0.006,Mg2.994Na0.006Sb2,615,0.000080709,0.0004916,0.00019245,0.98132,0.35922,12390.1919240729,0.0005009579
73,10.1016/j.actamat.2015.04.023,4591,3(a),5858,x=0.006,Mg2.994Na0.006Sb2,615.5,0.000080724,0.00049201,0.00019257,0.98048,0.35976,12387.8895991279,0.0005018052
73,10.1016/j.actamat.2015.04.023,4591,3(a),5858,x=0.006,Mg2.994Na0.006Sb2,616,0.000080738,0.00049242,0.00019269,0.97963,0.3603,12385.7415343457,0.0005026592
73,10.1016/j.actamat.2015.04.023,4591,3(a),5858,x=0.006,Mg2.994Na0.006Sb2,616.5,0.000080752,0.00049283,0.00019281,0.97878,0.36083,12383.5942143848,0.0005035146
73,10.1016/j.actamat.2015.04.023,4591,3(a),5858,x=0.006,Mg2.994Na0.006Sb2,617,0.000080766,0.00049324,0.00019293,0.97794,0.36137,12381.4476388579,0.0005043663
73,10.1016/j.actamat.2015.04.023,4591,3(a),5858,x=0.006,Mg2.994Na0.006Sb2,617.5,0.000080781,0.00049365,0.00019305,0.97709,0.36191,12379.1485621619,0.0005052247
73,10.1016/j.actamat.2015.04.023,4591,3(a),5858,x=0.006,Mg2.994Na0.006Sb2,618,0.000080795,0.00049407,0.00019318,0.97624,0.36244,12377.003527446,0.0005060948
73,10.1016/j.actamat.2015.04.023,4591,3(a),5858,x=0.006,Mg2.994Na0.006Sb2,618.5,0.000080809,0.00049448,0.0001933,0.9754,0.36298,12374.8592359762,0.000506951
73,10.1016/j.actamat.2015.04.023,4591,3(a),5858,x=0.006,Mg2.994Na0.006Sb2,619,0.000080824,0.00049489,0.00019342,0.97455,0.36352,12372.5626051668,0.0005078139
73,10.1016/j.actamat.2015.04.023,4591,3(a),5858,x=0.006,Mg2.994Na0.006Sb2,619.5,0.000080838,0.0004953,0.00019354,0.97371,0.36405,12370.4198520498,0.000508673
73,10.1016/j.actamat.2015.04.023,4591,3(a),5858,x=0.006,Mg2.994Na0.006Sb2,620,0.000080852,0.00049571,0.00019366,0.97286,0.36459,12368.2778409934,0.0005095389
73,10.1016/j.actamat.2015.04.023,4591,3(a),5858,x=0.006,Mg2.994Na0.006Sb2,620.5,0.000080867,0.00049612,0.00019378,0.97201,0.36512,12365.9836521696,0.0005104063
73,10.1016/j.actamat.2015.04.023,4591,3(a),5858,x=0.006,Mg2.994Na0.006Sb2,621,0.000080881,0.00049653,0.0001939,0.97117,0.36566,12363.8431770131,0.0005112699
73,10.1016/j.actamat.2015.04.023,4591,3(a),5858,x=0.006,Mg2.994Na0.006Sb2,621.5,0.000080895,0.00049694,0.00019402,0.97032,0.3662,12361.7034427344,0.0005121403
73,10.1016/j.actamat.2015.04.023,4591,3(a),5858,x=0.006,Mg2.994Na0.006Sb2,622,0.00008091,0.00049735,0.00019414,0.96947,0.36673,12359.4116920035,0.0005130123
73,10.1016/j.actamat.2015.04.023,4591,3(a),5858,x=0.006,Mg2.994Na0.006Sb2,622.5,0.000080924,0.00049776,0.00019426,0.96863,0.36727,12357.2734911769,0.0005138804
73,10.1016/j.actamat.2015.04.023,4591,3(a),5858,x=0.006,Mg2.994Na0.006Sb2,623,0.000080938,0.00049817,0.00019439,0.96778,0.36781,12355.1360300477,0.0005147554
73,10.1016/j.actamat.2015.04.023,4591,3(a),5858,x=0.006,Mg2.994Na0.006Sb2,623.5,0.000080952,0.00049858,0.00019451,0.96693,0.36834,12352.999308232,0.0005156319
73,10.1016/j.actamat.2015.04.023,4591,3(a),5858,x=0.006,Mg2.994Na0.006Sb2,624,0.000080967,0.00049899,0.00019463,0.96609,0.36888,12350.7107834056,0.0005165047
73,10.1016/j.actamat.2015.04.023,4591,3(a),5858,x=0.006,Mg2.994Na0.006Sb2,624.5,0.000080981,0.00049941,0.00019475,0.96524,0.36942,12348.5755918055,0.0005173946
73,10.1016/j.actamat.2015.04.023,4591,3(a),5858,x=0.006,Mg2.994Na0.006Sb2,625,0.000080995,0.00049982,0.00019487,0.96439,0.36995,12346.4411383419,0.0005182758
73,10.1016/j.actamat.2015.04.023,4591,3(a),5858,x=0.006,Mg2.994Na0.006Sb2,625.5,0.00008101,0.00050023,0.00019499,0.96355,0.37049,12344.1550425873,0.0005191531
73,10.1016/j.actamat.2015.04.023,4591,3(a),5858,x=0.006,Mg2.994Na0.006Sb2,626,0.000081024,0.00050064,0.00019511,0.9627,0.37103,12342.0221169036,0.0005200374
73,10.1016/j.actamat.2015.04.023,4591,3(a),5858,x=0.006,Mg2.994Na0.006Sb2,626.5,0.000081038,0.00050105,0.00019523,0.96185,0.37156,12339.8899281818,0.0005209232
73,10.1016/j.actamat.2015.04.023,4591,3(a),5858,x=0.006,Mg2.994Na0.006Sb2,627,0.000081053,0.00050146,0.00019535,0.96101,0.3721,12337.6062576339,0.0005218052
73,10.1016/j.actamat.2015.04.023,4591,3(a),5858,x=0.006,Mg2.994Na0.006Sb2,627.5,0.000081067,0.00050187,0.00019547,0.96016,0.37264,12335.4755942615,0.0005226941
73,10.1016/j.actamat.2015.04.023,4591,3(a),5858,x=0.006,Mg2.994Na0.006Sb2,628,0.000081081,0.00050228,0.00019559,0.95931,0.37317,12333.345666679,0.0005235847
73,10.1016/j.actamat.2015.04.023,4591,3(a),5858,x=0.006,Mg2.994Na0.006Sb2,628.5,0.000081095,0.00050269,0.00019572,0.95847,0.37371,12331.2164745052,0.0005244713
73,10.1016/j.actamat.2015.04.023,4591,3(a),5858,x=0.006,Mg2.994Na0.006Sb2,629,0.00008111,0.0005031,0.00019584,0.95762,0.37425,12328.9360128221,0.000525365
73,10.1016/j.actamat.2015.04.023,4591,3(a),5858,x=0.006,Mg2.994Na0.006Sb2,629.5,0.000081124,0.00050351,0.00019596,0.95678,0.37478,12326.8083427839,0.0005262547
73,10.1016/j.actamat.2015.04.023,4591,3(a),5858,x=0.006,Mg2.994Na0.006Sb2,630,0.000081138,0.00050392,0.00019608,0.95593,0.37532,12324.6814069856,0.0005271516
73,10.1016/j.actamat.2015.04.023,4591,3(a),5858,x=0.006,Mg2.994Na0.006Sb2,630.5,0.000081153,0.00050433,0.0001962,0.95508,0.37586,12322.4033615516,0.00052805
73,10.1016/j.actamat.2015.04.023,4591,3(a),5858,x=0.006,Mg2.994Na0.006Sb2,631,0.000081167,0.00050475,0.00019632,0.95424,0.37639,12320.2779454704,0.000528955
73,10.1016/j.actamat.2015.04.023,4591,3(a),5858,x=0.006,Mg2.994Na0.006Sb2,631.5,0.000081181,0.00050516,0.00019644,0.95339,0.37693,12318.1532624629,0.0005298566
73,10.1016/j.actamat.2015.04.023,4591,3(a),5858,x=0.006,Mg2.994Na0.006Sb2,632,0.000081196,0.00050557,0.00019656,0.95254,0.37747,12315.8776294399,0.0005307599
73,10.1016/j.actamat.2015.04.023,4591,3(a),5858,x=0.006,Mg2.994Na0.006Sb2,632.5,0.00008121,0.00050598,0.00019668,0.9517,0.378,12313.754463736,0.0005316591
73,10.1016/j.actamat.2015.04.023,4591,3(a),5858,x=0.006,Mg2.994Na0.006Sb2,633,0.000081224,0.00050639,0.0001968,0.95085,0.37854,12311.6320299419,0.0005325656
73,10.1016/j.actamat.2015.04.023,4591,3(a),5858,x=0.006,Mg2.994Na0.006Sb2,633.5,0.000081239,0.0005068,0.00019692,0.95,0.37908,12309.3588054998,0.0005334737
73,10.1016/j.actamat.2015.04.023,4591,3(a),5858,x=0.006,Mg2.994Na0.006Sb2,634,0.000081253,0.00050721,0.00019705,0.94916,0.37961,12307.2378866011,0.0005343778
73,10.1016/j.actamat.2015.04.023,4591,3(a),5858,x=0.006,Mg2.994Na0.006Sb2,634.5,0.000081267,0.00050762,0.00019717,0.94831,0.38015,12305.1176984508,0.0005352891
73,10.1016/j.actamat.2015.04.023,4591,3(a),5858,x=0.006,Mg2.994Na0.006Sb2,635,0.000081281,0.00050803,0.00019729,0.94746,0.38068,12302.9982406713,0.0005362021
73,10.1016/j.actamat.2015.04.023,4591,3(a),5858,x=0.006,Mg2.994Na0.006Sb2,635.5,0.000081296,0.00050844,0.00019741,0.94662,0.38122,12300.7282031096,0.000537111
73,10.1016/j.actamat.2015.04.023,4591,3(a),5858,x=0.006,Mg2.994Na0.006Sb2,636,0.00008131,0.00050885,0.00019753,0.94577,0.38176,12298.610257041,0.0005380272
73,10.1016/j.actamat.2015.04.023,4591,3(a),5858,x=0.006,Mg2.994Na0.006Sb2,636.5,0.000081324,0.00050926,0.00019765,0.94492,0.38229,12296.4930401849,0.0005389451