sid,DOI,figureid,fignum,sampleid,samplename,composition,Temperature,Electrical resistivity,Power factor,Seebeck coefficient,Thermal conductivity,ZT,Electrical conductivity,Figure of merit Z
10954,10.1007/s11664-015-4303-6,5134,3(a),6469,x=0.3,Ca0.7Eu0.3Zn2Sb2,322,0.000014598,0.00093156,0.000117,3.265,0.060475,68502.53459378,0.000285317
10954,10.1007/s11664-015-4303-6,5134,3(a),6469,x=0.3,Ca0.7Eu0.3Zn2Sb2,322.5,0.000014612,0.00093224,0.00011709,3.2632,0.061004,68436.9011771147,0.0002856828
10954,10.1007/s11664-015-4303-6,5134,3(a),6469,x=0.3,Ca0.7Eu0.3Zn2Sb2,323,0.000014625,0.00093292,0.00011718,3.2613,0.061533,68376.0683760684,0.0002860577
10954,10.1007/s11664-015-4303-6,5134,3(a),6469,x=0.3,Ca0.7Eu0.3Zn2Sb2,323.5,0.000014638,0.0009336,0.00011727,3.2594,0.062061,68315.3436261784,0.0002864331
10954,10.1007/s11664-015-4303-6,5134,3(a),6469,x=0.3,Ca0.7Eu0.3Zn2Sb2,324,0.000014652,0.00093428,0.00011736,3.2575,0.06259,68250.0682500682,0.0002868089
10954,10.1007/s11664-015-4303-6,5134,3(a),6469,x=0.3,Ca0.7Eu0.3Zn2Sb2,324.5,0.000014665,0.00093496,0.00011746,3.2556,0.063118,68189.5669962496,0.0002871852
10954,10.1007/s11664-015-4303-6,5134,3(a),6469,x=0.3,Ca0.7Eu0.3Zn2Sb2,325,0.000014678,0.00093564,0.00011755,3.2537,0.063647,68129.1729118408,0.0002875619
10954,10.1007/s11664-015-4303-6,5134,3(a),6469,x=0.3,Ca0.7Eu0.3Zn2Sb2,325.5,0.000014692,0.00093632,0.00011764,3.2518,0.064176,68064.2526545058,0.000287939
10954,10.1007/s11664-015-4303-6,5134,3(a),6469,x=0.3,Ca0.7Eu0.3Zn2Sb2,326,0.000014705,0.000937,0.00011773,3.2499,0.064704,68004.0802448147,0.0002883166
10954,10.1007/s11664-015-4303-6,5134,3(a),6469,x=0.3,Ca0.7Eu0.3Zn2Sb2,326.5,0.000014718,0.00093768,0.00011783,3.2481,0.065233,67944.0141323549,0.0002886857
10954,10.1007/s11664-015-4303-6,5134,3(a),6469,x=0.3,Ca0.7Eu0.3Zn2Sb2,327,0.000014732,0.00093836,0.00011792,3.2462,0.065761,67879.4461037198,0.0002890641
10954,10.1007/s11664-015-4303-6,5134,3(a),6469,x=0.3,Ca0.7Eu0.3Zn2Sb2,327.5,0.000014745,0.00093904,0.00011801,3.2443,0.06629,67819.5998643608,0.000289443
10954,10.1007/s11664-015-4303-6,5134,3(a),6469,x=0.3,Ca0.7Eu0.3Zn2Sb2,328,0.000014758,0.00093972,0.0001181,3.2424,0.066819,67759.8590594932,0.0002898224
10954,10.1007/s11664-015-4303-6,5134,3(a),6469,x=0.3,Ca0.7Eu0.3Zn2Sb2,328.5,0.000014772,0.0009404,0.0001182,3.2405,0.067347,67695.6404007582,0.0002902021
10954,10.1007/s11664-015-4303-6,5134,3(a),6469,x=0.3,Ca0.7Eu0.3Zn2Sb2,329,0.000014785,0.00094108,0.00011829,3.2386,0.067876,67636.1176868448,0.0002905824
10954,10.1007/s11664-015-4303-6,5134,3(a),6469,x=0.3,Ca0.7Eu0.3Zn2Sb2,329.5,0.000014798,0.00094176,0.00011838,3.2367,0.068404,67576.6995539938,0.000290963
10954,10.1007/s11664-015-4303-6,5134,3(a),6469,x=0.3,Ca0.7Eu0.3Zn2Sb2,330,0.000014812,0.00094244,0.00011847,3.2348,0.068933,67512.8274372131,0.0002913441
10954,10.1007/s11664-015-4303-6,5134,3(a),6469,x=0.3,Ca0.7Eu0.3Zn2Sb2,330.5,0.000014825,0.00094312,0.00011856,3.233,0.069462,67453.6256323777,0.0002917167
10954,10.1007/s11664-015-4303-6,5134,3(a),6469,x=0.3,Ca0.7Eu0.3Zn2Sb2,331,0.000014838,0.0009438,0.00011866,3.2311,0.06999,67394.5275643618,0.0002920987
10954,10.1007/s11664-015-4303-6,5134,3(a),6469,x=0.3,Ca0.7Eu0.3Zn2Sb2,331.5,0.000014852,0.00094448,0.00011875,3.2292,0.070519,67330.999192028,0.0002924811
10954,10.1007/s11664-015-4303-6,5134,3(a),6469,x=0.3,Ca0.7Eu0.3Zn2Sb2,332,0.000014865,0.00094516,0.00011884,3.2273,0.071047,67272.115708039,0.000292864
10954,10.1007/s11664-015-4303-6,5134,3(a),6469,x=0.3,Ca0.7Eu0.3Zn2Sb2,332.5,0.000014879,0.00094584,0.00011893,3.2254,0.071576,67208.817796895,0.0002932473
10954,10.1007/s11664-015-4303-6,5134,3(a),6469,x=0.3,Ca0.7Eu0.3Zn2Sb2,333,0.000014892,0.00094652,0.00011903,3.2235,0.072105,67150.147730325,0.0002936311
10954,10.1007/s11664-015-4303-6,5134,3(a),6469,x=0.3,Ca0.7Eu0.3Zn2Sb2,333.5,0.000014905,0.0009472,0.00011912,3.2216,0.072633,67091.5800067092,0.0002940154
10954,10.1007/s11664-015-4303-6,5134,3(a),6469,x=0.3,Ca0.7Eu0.3Zn2Sb2,334,0.000014919,0.00094788,0.00011921,3.2197,0.073162,67028.6212212615,0.0002944001
10954,10.1007/s11664-015-4303-6,5134,3(a),6469,x=0.3,Ca0.7Eu0.3Zn2Sb2,334.5,0.000014932,0.00094856,0.0001193,3.2179,0.07369,66970.2652022502,0.0002947761
10954,10.1007/s11664-015-4303-6,5134,3(a),6469,x=0.3,Ca0.7Eu0.3Zn2Sb2,335,0.000014945,0.00094924,0.0001194,3.216,0.074219,66912.0107059217,0.0002951617
10954,10.1007/s11664-015-4303-6,5134,3(a),6469,x=0.3,Ca0.7Eu0.3Zn2Sb2,335.5,0.000014959,0.00094993,0.00011949,3.2141,0.074748,66849.3883280968,0.0002955509
10954,10.1007/s11664-015-4303-6,5134,3(a),6469,x=0.3,Ca0.7Eu0.3Zn2Sb2,336,0.000014972,0.00095061,0.00011958,3.2122,0.075276,66791.3438418381,0.0002959374
10954,10.1007/s11664-015-4303-6,5134,3(a),6469,x=0.3,Ca0.7Eu0.3Zn2Sb2,336.5,0.000014985,0.00095129,0.00011967,3.2103,0.075805,66733.4000667334,0.0002963243
10954,10.1007/s11664-015-4303-6,5134,3(a),6469,x=0.3,Ca0.7Eu0.3Zn2Sb2,337,0.000014999,0.00095197,0.00011977,3.2084,0.076333,66671.1114074272,0.0002967118
10954,10.1007/s11664-015-4303-6,5134,3(a),6469,x=0.3,Ca0.7Eu0.3Zn2Sb2,337.5,0.000015012,0.00095265,0.00011986,3.2065,0.076862,66613.375965894,0.0002970996
10954,10.1007/s11664-015-4303-6,5134,3(a),6469,x=0.3,Ca0.7Eu0.3Zn2Sb2,338,0.000015025,0.00095333,0.00011995,3.2046,0.077391,66555.7404326123,0.000297488
10954,10.1007/s11664-015-4303-6,5134,3(a),6469,x=0.3,Ca0.7Eu0.3Zn2Sb2,338.5,0.000015039,0.00095401,0.00012004,3.2028,0.077919,66493.7828313053,0.0002978675
10954,10.1007/s11664-015-4303-6,5134,3(a),6469,x=0.3,Ca0.7Eu0.3Zn2Sb2,339,0.000015052,0.00095469,0.00012013,3.2009,0.078448,66436.353972894,0.0002982567
10954,10.1007/s11664-015-4303-6,5134,3(a),6469,x=0.3,Ca0.7Eu0.3Zn2Sb2,339.5,0.000015065,0.00095537,0.00012023,3.199,0.078976,66379.0242283438,0.0002986465
10954,10.1007/s11664-015-4303-6,5134,3(a),6469,x=0.3,Ca0.7Eu0.3Zn2Sb2,340,0.000015079,0.00095605,0.00012032,3.1971,0.079505,66317.3950527223,0.0002990366
10954,10.1007/s11664-015-4303-6,5134,3(a),6469,x=0.3,Ca0.7Eu0.3Zn2Sb2,340.5,0.000015092,0.00095673,0.00012041,3.1952,0.080034,66260.270341903,0.0002994273
10954,10.1007/s11664-015-4303-6,5134,3(a),6469,x=0.3,Ca0.7Eu0.3Zn2Sb2,341,0.000015105,0.00095741,0.0001205,3.1933,0.080562,66203.243958954,0.0002998184
10954,10.1007/s11664-015-4303-6,5134,3(a),6469,x=0.3,Ca0.7Eu0.3Zn2Sb2,341.5,0.000015119,0.00095809,0.0001206,3.1914,0.081091,66141.9406045373,0.0003002099
10954,10.1007/s11664-015-4303-6,5134,3(a),6469,x=0.3,Ca0.7Eu0.3Zn2Sb2,342,0.000015132,0.00095877,0.00012069,3.1895,0.081619,66085.1176315094,0.000300602
10954,10.1007/s11664-015-4303-6,5134,3(a),6469,x=0.3,Ca0.7Eu0.3Zn2Sb2,342.5,0.000015145,0.00095945,0.00012078,3.1876,0.082148,66028.3922086497,0.0003009945
10954,10.1007/s11664-015-4303-6,5134,3(a),6469,x=0.3,Ca0.7Eu0.3Zn2Sb2,343,0.000015159,0.00096013,0.00012087,3.1858,0.082677,65967.4120984234,0.000301378
10954,10.1007/s11664-015-4303-6,5134,3(a),6469,x=0.3,Ca0.7Eu0.3Zn2Sb2,343.5,0.000015172,0.00096081,0.00012097,3.1839,0.083205,65910.8884787767,0.0003017714
10954,10.1007/s11664-015-4303-6,5134,3(a),6469,x=0.3,Ca0.7Eu0.3Zn2Sb2,344,0.000015185,0.00096149,0.00012106,3.182,0.083734,65854.4616397761,0.0003021653
10954,10.1007/s11664-015-4303-6,5134,3(a),6469,x=0.3,Ca0.7Eu0.3Zn2Sb2,344.5,0.000015199,0.00096217,0.00012115,3.1801,0.084262,65793.8022238305,0.0003025597
10954,10.1007/s11664-015-4303-6,5134,3(a),6469,x=0.3,Ca0.7Eu0.3Zn2Sb2,345,0.000015212,0.00096285,0.00012124,3.1782,0.084791,65737.5755982119,0.0003029545
10954,10.1007/s11664-015-4303-6,5134,3(a),6469,x=0.3,Ca0.7Eu0.3Zn2Sb2,345.5,0.000015226,0.00096353,0.00012133,3.1763,0.08532,65677.1312229082,0.0003033498
10954,10.1007/s11664-015-4303-6,5134,3(a),6469,x=0.3,Ca0.7Eu0.3Zn2Sb2,346,0.000015239,0.00096421,0.00012143,3.1744,0.085848,65621.103746965,0.0003037456
10954,10.1007/s11664-015-4303-6,5134,3(a),6469,x=0.3,Ca0.7Eu0.3Zn2Sb2,346.5,0.000015252,0.00096489,0.00012152,3.1725,0.086377,65565.1717807501,0.0003041418
10954,10.1007/s11664-015-4303-6,5134,3(a),6469,x=0.3,Ca0.7Eu0.3Zn2Sb2,347,0.000015266,0.00096557,0.00012161,3.1707,0.086906,65505.0438883794,0.000304529
10954,10.1007/s11664-015-4303-6,5134,3(a),6469,x=0.3,Ca0.7Eu0.3Zn2Sb2,347.5,0.000015279,0.00096625,0.0001217,3.1688,0.087434,65449.3095097847,0.0003049262
10954,10.1007/s11664-015-4303-6,5134,3(a),6469,x=0.3,Ca0.7Eu0.3Zn2Sb2,348,0.000015292,0.00096693,0.0001218,3.1669,0.087963,65393.6698927544,0.0003053238
10954,10.1007/s11664-015-4303-6,5134,3(a),6469,x=0.3,Ca0.7Eu0.3Zn2Sb2,348.5,0.000015306,0.00096761,0.00012189,3.165,0.088491,65333.8560041814,0.000305722
10954,10.1007/s11664-015-4303-6,5134,3(a),6469,x=0.3,Ca0.7Eu0.3Zn2Sb2,349,0.000015319,0.00096829,0.00012198,3.1631,0.08902,65278.4124290097,0.0003061206
10954,10.1007/s11664-015-4303-6,5134,3(a),6469,x=0.3,Ca0.7Eu0.3Zn2Sb2,349.5,0.000015332,0.00096897,0.00012207,3.1612,0.089549,65223.0628750326,0.0003065197
10954,10.1007/s11664-015-4303-6,5134,3(a),6469,x=0.3,Ca0.7Eu0.3Zn2Sb2,350,0.000015346,0.00096965,0.00012217,3.1593,0.090077,65163.5605369477,0.0003069193
10954,10.1007/s11664-015-4303-6,5134,3(a),6469,x=0.3,Ca0.7Eu0.3Zn2Sb2,350.5,0.000015359,0.00097033,0.00012226,3.1574,0.090606,65108.4054951494,0.0003073193
10954,10.1007/s11664-015-4303-6,5134,3(a),6469,x=0.3,Ca0.7Eu0.3Zn2Sb2,351,0.000015372,0.00097101,0.00012235,3.1556,0.091134,65053.3437418683,0.0003077101
10954,10.1007/s11664-015-4303-6,5134,3(a),6469,x=0.3,Ca0.7Eu0.3Zn2Sb2,351.5,0.000015386,0.00097169,0.00012244,3.1537,0.091663,64994.1505264526,0.0003081111
10954,10.1007/s11664-015-4303-6,5134,3(a),6469,x=0.3,Ca0.7Eu0.3Zn2Sb2,352,0.000015399,0.00097237,0.00012253,3.1518,0.092192,64939.2817715436,0.0003085126
10954,10.1007/s11664-015-4303-6,5134,3(a),6469,x=0.3,Ca0.7Eu0.3Zn2Sb2,352.5,0.000015412,0.00097305,0.00012263,3.1499,0.09272,64884.5055800675,0.0003089146
10954,10.1007/s11664-015-4303-6,5134,3(a),6469,x=0.3,Ca0.7Eu0.3Zn2Sb2,353,0.000015426,0.00097373,0.00012272,3.148,0.093249,64825.6190846623,0.000309317
10954,10.1007/s11664-015-4303-6,5134,3(a),6469,x=0.3,Ca0.7Eu0.3Zn2Sb2,353.5,0.000015439,0.00097441,0.00012281,3.1461,0.093777,64771.0343934193,0.00030972
10954,10.1007/s11664-015-4303-6,5134,3(a),6469,x=0.3,Ca0.7Eu0.3Zn2Sb2,354,0.000015452,0.00097509,0.0001229,3.1442,0.094306,64716.5415480197,0.0003101234
10954,10.1007/s11664-015-4303-6,5134,3(a),6469,x=0.3,Ca0.7Eu0.3Zn2Sb2,354.5,0.000015466,0.00097577,0.000123,3.1423,0.094835,64657.9593948015,0.0003105273
10954,10.1007/s11664-015-4303-6,5134,3(a),6469,x=0.3,Ca0.7Eu0.3Zn2Sb2,355,0.000015479,0.00097645,0.00012309,3.1405,0.095363,64603.6565669617,0.0003109218
10954,10.1007/s11664-015-4303-6,5134,3(a),6469,x=0.3,Ca0.7Eu0.3Zn2Sb2,355.5,0.000015492,0.00097713,0.00012318,3.1386,0.095892,64549.4448747741,0.0003113267
10954,10.1007/s11664-015-4303-6,5134,3(a),6469,x=0.3,Ca0.7Eu0.3Zn2Sb2,356,0.000015506,0.00097781,0.00012327,3.1367,0.09642,64491.1647104347,0.0003117321
10954,10.1007/s11664-015-4303-6,5134,3(a),6469,x=0.3,Ca0.7Eu0.3Zn2Sb2,356.5,0.000015519,0.00097849,0.00012337,3.1348,0.096949,64437.1415684,0.0003121379
10954,10.1007/s11664-015-4303-6,5134,3(a),6469,x=0.3,Ca0.7Eu0.3Zn2Sb2,357,0.000015532,0.00097917,0.00012346,3.1329,0.097478,64383.2088591295,0.0003125443
10954,10.1007/s11664-015-4303-6,5134,3(a),6469,x=0.3,Ca0.7Eu0.3Zn2Sb2,357.5,0.000015546,0.00097985,0.00012355,3.131,0.098006,64325.2283545607,0.0003129511
10954,10.1007/s11664-015-4303-6,5134,3(a),6469,x=0.3,Ca0.7Eu0.3Zn2Sb2,358,0.000015559,0.00098053,0.00012364,3.1291,0.098535,64271.4827431069,0.0003133585
10954,10.1007/s11664-015-4303-6,5134,3(a),6469,x=0.3,Ca0.7Eu0.3Zn2Sb2,358.5,0.000015573,0.00098122,0.00012374,3.1272,0.099063,64213.7032042638,0.0003137695
10954,10.1007/s11664-015-4303-6,5134,3(a),6469,x=0.3,Ca0.7Eu0.3Zn2Sb2,359,0.000015586,0.0009819,0.00012383,3.1254,0.099592,64160.1437187219,0.0003141678
10954,10.1007/s11664-015-4303-6,5134,3(a),6469,x=0.3,Ca0.7Eu0.3Zn2Sb2,359.5,0.000015599,0.00098258,0.00012392,3.1235,0.10012,64106.6735047118,0.0003145766
10954,10.1007/s11664-015-4303-6,5134,3(a),6469,x=0.3,Ca0.7Eu0.3Zn2Sb2,360,0.000015613,0.00098326,0.00012401,3.1216,0.10065,64049.1897777493,0.0003149859
10954,10.1007/s11664-015-4303-6,5134,3(a),6469,x=0.3,Ca0.7Eu0.3Zn2Sb2,360.5,0.000015626,0.00098394,0.0001241,3.1197,0.10118,63995.9042621272,0.0003153957
10954,10.1007/s11664-015-4303-6,5134,3(a),6469,x=0.3,Ca0.7Eu0.3Zn2Sb2,361,0.000015639,0.00098462,0.0001242,3.1178,0.10171,63942.7073342285,0.000315806
10954,10.1007/s11664-015-4303-6,5134,3(a),6469,x=0.3,Ca0.7Eu0.3Zn2Sb2,361.5,0.000015653,0.0009853,0.00012429,3.1159,0.10224,63885.5171532614,0.0003162168
10954,10.1007/s11664-015-4303-6,5134,3(a),6469,x=0.3,Ca0.7Eu0.3Zn2Sb2,362,0.000015666,0.00098598,0.00012438,3.114,0.10276,63832.5035107877,0.0003166281
10954,10.1007/s11664-015-4303-6,5134,3(a),6469,x=0.3,Ca0.7Eu0.3Zn2Sb2,362.5,0.000015679,0.00098666,0.00012447,3.1121,0.10329,63779.5777791951,0.0003170399
10954,10.1007/s11664-015-4303-6,5134,3(a),6469,x=0.3,Ca0.7Eu0.3Zn2Sb2,363,0.000015693,0.00098734,0.00012457,3.1103,0.10382,63722.678901421,0.000317442
10954,10.1007/s11664-015-4303-6,5134,3(a),6469,x=0.3,Ca0.7Eu0.3Zn2Sb2,363.5,0.000015706,0.00098802,0.00012466,3.1084,0.10435,63669.9350566662,0.0003178548
10954,10.1007/s11664-015-4303-6,5134,3(a),6469,x=0.3,Ca0.7Eu0.3Zn2Sb2,364,0.000015719,0.0009887,0.00012475,3.1065,0.10488,63617.2784528278,0.0003182681
10954,10.1007/s11664-015-4303-6,5134,3(a),6469,x=0.3,Ca0.7Eu0.3Zn2Sb2,364.5,0.000015733,0.00098938,0.00012484,3.1046,0.10541,63560.6686582343,0.000318682
10954,10.1007/s11664-015-4303-6,5134,3(a),6469,x=0.3,Ca0.7Eu0.3Zn2Sb2,365,0.000015746,0.00099006,0.00012494,3.1027,0.10594,63508.1925568398,0.0003190963
10954,10.1007/s11664-015-4303-6,5134,3(a),6469,x=0.3,Ca0.7Eu0.3Zn2Sb2,365.5,0.000015759,0.00099074,0.00012503,3.1008,0.10646,63455.8030331874,0.0003195111
10954,10.1007/s11664-015-4303-6,5134,3(a),6469,x=0.3,Ca0.7Eu0.3Zn2Sb2,366,0.000015773,0.00099142,0.00012512,3.0989,0.10699,63399.480124263,0.0003199264
10954,10.1007/s11664-015-4303-6,5134,3(a),6469,x=0.3,Ca0.7Eu0.3Zn2Sb2,366.5,0.000015786,0.0009921,0.00012521,3.097,0.10752,63347.2697326745,0.0003203423
10954,10.1007/s11664-015-4303-6,5134,3(a),6469,x=0.3,Ca0.7Eu0.3Zn2Sb2,367,0.000015799,0.00099278,0.0001253,3.0952,0.10805,63295.1452623584,0.0003207483
10954,10.1007/s11664-015-4303-6,5134,3(a),6469,x=0.3,Ca0.7Eu0.3Zn2Sb2,367.5,0.000015813,0.00099346,0.0001254,3.0933,0.10858,63239.1070638083,0.0003211651
10954,10.1007/s11664-015-4303-6,5134,3(a),6469,x=0.3,Ca0.7Eu0.3Zn2Sb2,368,0.000015826,0.00099414,0.00012549,3.0914,0.10911,63187.160369013,0.0003215825
10954,10.1007/s11664-015-4303-6,5134,3(a),6469,x=0.3,Ca0.7Eu0.3Zn2Sb2,368.5,0.000015839,0.00099482,0.00012558,3.0895,0.10964,63135.2989456405,0.0003220003
10954,10.1007/s11664-015-4303-6,5134,3(a),6469,x=0.3,Ca0.7Eu0.3Zn2Sb2,369,0.000015853,0.0009955,0.00012567,3.0876,0.11016,63079.5433041065,0.0003224187
10954,10.1007/s11664-015-4303-6,5134,3(a),6469,x=0.3,Ca0.7Eu0.3Zn2Sb2,369.5,0.000015866,0.00099618,0.00012577,3.0857,0.11069,63027.8583133745,0.0003228376
10954,10.1007/s11664-015-4303-6,5134,3(a),6469,x=0.3,Ca0.7Eu0.3Zn2Sb2,370,0.000015879,0.00099686,0.00012586,3.0838,0.11122,62976.2579507526,0.000323257
10954,10.1007/s11664-015-4303-6,5134,3(a),6469,x=0.3,Ca0.7Eu0.3Zn2Sb2,370.5,0.000015893,0.00099754,0.00012595,3.0819,0.11175,62920.7827345372,0.000323677
10954,10.1007/s11664-015-4303-6,5134,3(a),6469,x=0.3,Ca0.7Eu0.3Zn2Sb2,371,0.000015906,0.00099822,0.00012604,3.0801,0.11228,62869.3574751666,0.0003240869
10954,10.1007/s11664-015-4303-6,5134,3(a),6469,x=0.3,Ca0.7Eu0.3Zn2Sb2,371.5,0.00001592,0.0009989,0.00012614,3.0782,0.11281,62814.0703517588,0.0003245078
10954,10.1007/s11664-015-4303-6,5134,3(a),6469,x=0.3,Ca0.7Eu0.3Zn2Sb2,372,0.000015933,0.00099958,0.00012623,3.0763,0.11334,62762.8193058432,0.0003249293
10954,10.1007/s11664-015-4303-6,5134,3(a),6469,x=0.3,Ca0.7Eu0.3Zn2Sb2,372.5,0.000015946,0.0010003,0.00012632,3.0744,0.11386,62711.6518249091,0.0003253643
10954,10.1007/s11664-015-4303-6,5134,3(a),6469,x=0.3,Ca0.7Eu0.3Zn2Sb2,373,0.00001596,0.0010009,0.00012641,3.0725,0.11439,62656.64160401,0.0003257608
10954,10.1007/s11664-015-4303-6,5134,3(a),6469,x=0.3,Ca0.7Eu0.3Zn2Sb2,373.5,0.000015973,0.0010016,0.00012651,3.0706,0.11492,62605.647029362,0.0003261903
10954,10.1007/s11664-015-4303-6,5134,3(a),6469,x=0.3,Ca0.7Eu0.3Zn2Sb2,374,0.000015986,0.0010023,0.0001266,3.0687,0.11545,62554.7353934693,0.0003266204
10954,10.1007/s11664-015-4303-6,5134,3(a),6469,x=0.3,Ca0.7Eu0.3Zn2Sb2,374.5,0.000016,0.001003,0.00012669,3.0668,0.11598,62500,0.000327051
10954,10.1007/s11664-015-4303-6,5134,3(a),6469,x=0.3,Ca0.7Eu0.3Zn2Sb2,375,0.000016013,0.0010037,0.00012678,3.065,0.11651,62449.2599762693,0.0003274715
10954,10.1007/s11664-015-4303-6,5134,3(a),6469,x=0.3,Ca0.7Eu0.3Zn2Sb2,375.5,0.000016026,0.0010043,0.00012687,3.0631,0.11704,62398.6022713091,0.0003278705
10954,10.1007/s11664-015-4303-6,5134,3(a),6469,x=0.3,Ca0.7Eu0.3Zn2Sb2,376,0.00001604,0.001005,0.00012697,3.0612,0.11756,62344.1396508728,0.0003283026
10954,10.1007/s11664-015-4303-6,5134,3(a),6469,x=0.3,Ca0.7Eu0.3Zn2Sb2,376.5,0.000016053,0.0010057,0.00012706,3.0593,0.11809,62293.652276833,0.0003287353
10954,10.1007/s11664-015-4303-6,5134,3(a),6469,x=0.3,Ca0.7Eu0.3Zn2Sb2,377,0.000016066,0.0010064,0.00012715,3.0574,0.11862,62243.2466077431,0.0003291686
10954,10.1007/s11664-015-4303-6,5134,3(a),6469,x=0.3,Ca0.7Eu0.3Zn2Sb2,377.5,0.00001608,0.0010071,0.00012724,3.0555,0.11915,62189.0547263682,0.0003296024
10954,10.1007/s11664-015-4303-6,5134,3(a),6469,x=0.3,Ca0.7Eu0.3Zn2Sb2,378,0.000016093,0.0010077,0.00012734,3.0536,0.11968,62138.8181196794,0.0003300039
10954,10.1007/s11664-015-4303-6,5134,3(a),6469,x=0.3,Ca0.7Eu0.3Zn2Sb2,378.5,0.000016106,0.0010084,0.00012743,3.0517,0.12021,62088.6626102074,0.0003304388
10954,10.1007/s11664-015-4303-6,5134,3(a),6469,x=0.3,Ca0.7Eu0.3Zn2Sb2,379,0.00001612,0.0010091,0.00012752,3.0499,0.12074,62034.7394540943,0.0003308633
10954,10.1007/s11664-015-4303-6,5134,3(a),6469,x=0.3,Ca0.7Eu0.3Zn2Sb2,379.5,0.000016133,0.0010098,0.00012761,3.048,0.12126,61984.7517510692,0.0003312992
10954,10.1007/s11664-015-4303-6,5134,3(a),6469,x=0.3,Ca0.7Eu0.3Zn2Sb2,380,0.000016146,0.0010105,0.00012771,3.0461,0.12179,61934.8445435402,0.0003317357
10954,10.1007/s11664-015-4303-6,5134,3(a),6469,x=0.3,Ca0.7Eu0.3Zn2Sb2,380.5,0.00001616,0.0010111,0.0001278,3.0442,0.12232,61881.1881188119,0.0003321398
10954,10.1007/s11664-015-4303-6,5134,3(a),6469,x=0.3,Ca0.7Eu0.3Zn2Sb2,381,0.000016173,0.0010118,0.00012789,3.0423,0.12285,61831.4474741854,0.0003325773
10954,10.1007/s11664-015-4303-6,5134,3(a),6469,x=0.3,Ca0.7Eu0.3Zn2Sb2,381.5,0.000016186,0.0010125,0.00012798,3.0404,0.12338,61781.7867292722,0.0003330154
10954,10.1007/s11664-015-4303-6,5134,3(a),6469,x=0.3,Ca0.7Eu0.3Zn2Sb2,382,0.0000162,0.0010132,0.00012807,3.0385,0.12391,61728.3950617284,0.000333454
10954,10.1007/s11664-015-4303-6,5134,3(a),6469,x=0.3,Ca0.7Eu0.3Zn2Sb2,382.5,0.000016213,0.0010139,0.00012817,3.0366,0.12444,61678.8996484303,0.0003338932
10954,10.1007/s11664-015-4303-6,5134,3(a),6469,x=0.3,Ca0.7Eu0.3Zn2Sb2,383,0.000016226,0.0010145,0.00012826,3.0348,0.12496,61629.4835449279,0.0003342889
10954,10.1007/s11664-015-4303-6,5134,3(a),6469,x=0.3,Ca0.7Eu0.3Zn2Sb2,383.5,0.00001624,0.0010152,0.00012835,3.0329,0.12549,61576.354679803,0.0003347291
10954,10.1007/s11664-015-4303-6,5134,3(a),6469,x=0.3,Ca0.7Eu0.3Zn2Sb2,384,0.000016253,0.0010159,0.00012844,3.031,0.12602,61527.1026887344,0.0003351699
10954,10.1007/s11664-015-4303-6,5134,3(a),6469,x=0.3,Ca0.7Eu0.3Zn2Sb2,384.5,0.000016267,0.0010166,0.00012854,3.0291,0.12655,61474.1501198746,0.0003356112
10954,10.1007/s11664-015-4303-6,5134,3(a),6469,x=0.3,Ca0.7Eu0.3Zn2Sb2,385,0.00001628,0.0010173,0.00012863,3.0272,0.12708,61425.0614250614,0.0003360531
10954,10.1007/s11664-015-4303-6,5134,3(a),6469,x=0.3,Ca0.7Eu0.3Zn2Sb2,385.5,0.000016293,0.0010179,0.00012872,3.0253,0.12761,61376.0510648745,0.0003364625
10954,10.1007/s11664-015-4303-6,5134,3(a),6469,x=0.3,Ca0.7Eu0.3Zn2Sb2,386,0.000016307,0.0010186,0.00012881,3.0234,0.12814,61323.3580670877,0.0003369055