sid,DOI,figureid,fignum,sampleid,samplename,composition,Temperature,Electrical resistivity,Power factor,Seebeck coefficient,Thermal conductivity,ZT,Electrical conductivity,Figure of merit Z
10954,10.1007/s11664-015-4303-6,5134,3(a),6471,x=0.9,Ca0.1Eu0.9Zn2Sb2,521,0.0000166,0.0014585,0.00015636,2.0097,0.41957,60240.9638554217,0.0007257302
10954,10.1007/s11664-015-4303-6,5134,3(a),6471,x=0.9,Ca0.1Eu0.9Zn2Sb2,521.5,0.000016613,0.0014592,0.00015646,2.0081,0.42039,60193.8241136459,0.000726657
10954,10.1007/s11664-015-4303-6,5134,3(a),6471,x=0.9,Ca0.1Eu0.9Zn2Sb2,522,0.000016627,0.0014599,0.00015656,2.0065,0.42122,60143.140674806,0.0007275853
10954,10.1007/s11664-015-4303-6,5134,3(a),6471,x=0.9,Ca0.1Eu0.9Zn2Sb2,522.5,0.000016641,0.0014606,0.00015666,2.0049,0.42204,60092.5425154738,0.0007285151
10954,10.1007/s11664-015-4303-6,5134,3(a),6471,x=0.9,Ca0.1Eu0.9Zn2Sb2,523,0.000016655,0.0014613,0.00015675,2.0033,0.42287,60042.0294205944,0.0007294464
10954,10.1007/s11664-015-4303-6,5134,3(a),6471,x=0.9,Ca0.1Eu0.9Zn2Sb2,523.5,0.000016669,0.001462,0.00015685,2.0018,0.42369,59991.6011758354,0.0007303427
10954,10.1007/s11664-015-4303-6,5134,3(a),6471,x=0.9,Ca0.1Eu0.9Zn2Sb2,524,0.000016683,0.0014627,0.00015695,2.0002,0.42451,59941.2575675838,0.0007312769
10954,10.1007/s11664-015-4303-6,5134,3(a),6471,x=0.9,Ca0.1Eu0.9Zn2Sb2,524.5,0.000016696,0.0014634,0.00015705,1.9986,0.42534,59894.5855294681,0.0007322125
10954,10.1007/s11664-015-4303-6,5134,3(a),6471,x=0.9,Ca0.1Eu0.9Zn2Sb2,525,0.00001671,0.0014641,0.00015715,1.997,0.42616,59844.4045481747,0.0007331497
10954,10.1007/s11664-015-4303-6,5134,3(a),6471,x=0.9,Ca0.1Eu0.9Zn2Sb2,525.5,0.000016724,0.0014648,0.00015725,1.9955,0.42699,59794.3075819182,0.0007340516
10954,10.1007/s11664-015-4303-6,5134,3(a),6471,x=0.9,Ca0.1Eu0.9Zn2Sb2,526,0.000016738,0.0014655,0.00015735,1.9939,0.42781,59744.2944198829,0.0007349917
10954,10.1007/s11664-015-4303-6,5134,3(a),6471,x=0.9,Ca0.1Eu0.9Zn2Sb2,526.5,0.000016752,0.0014662,0.00015745,1.9923,0.42864,59694.364851958,0.0007359333
10954,10.1007/s11664-015-4303-6,5134,3(a),6471,x=0.9,Ca0.1Eu0.9Zn2Sb2,527,0.000016766,0.0014669,0.00015754,1.9907,0.42946,59644.5186687344,0.0007368765
10954,10.1007/s11664-015-4303-6,5134,3(a),6471,x=0.9,Ca0.1Eu0.9Zn2Sb2,527.5,0.00001678,0.0014676,0.00015764,1.9891,0.43028,59594.7556615018,0.0007378211
10954,10.1007/s11664-015-4303-6,5134,3(a),6471,x=0.9,Ca0.1Eu0.9Zn2Sb2,528,0.000016794,0.0014683,0.00015774,1.9876,0.43111,59545.075622246,0.0007387301
10954,10.1007/s11664-015-4303-6,5134,3(a),6471,x=0.9,Ca0.1Eu0.9Zn2Sb2,528.5,0.000016807,0.001469,0.00015784,1.986,0.43193,59499.0182661986,0.0007396777
10954,10.1007/s11664-015-4303-6,5134,3(a),6471,x=0.9,Ca0.1Eu0.9Zn2Sb2,529,0.000016821,0.0014697,0.00015794,1.9844,0.43276,59449.4976517448,0.0007406269
10954,10.1007/s11664-015-4303-6,5134,3(a),6471,x=0.9,Ca0.1Eu0.9Zn2Sb2,529.5,0.000016835,0.0014705,0.00015804,1.9828,0.43358,59400.0594000594,0.000741628
10954,10.1007/s11664-015-4303-6,5134,3(a),6471,x=0.9,Ca0.1Eu0.9Zn2Sb2,530,0.000016849,0.0014712,0.00015814,1.9812,0.4344,59350.7033058342,0.0007425803
10954,10.1007/s11664-015-4303-6,5134,3(a),6471,x=0.9,Ca0.1Eu0.9Zn2Sb2,530.5,0.000016863,0.0014719,0.00015824,1.9797,0.43523,59301.4291644429,0.0007434965
10954,10.1007/s11664-015-4303-6,5134,3(a),6471,x=0.9,Ca0.1Eu0.9Zn2Sb2,531,0.000016877,0.0014726,0.00015833,1.9781,0.43605,59252.2367719381,0.0007444517
10954,10.1007/s11664-015-4303-6,5134,3(a),6471,x=0.9,Ca0.1Eu0.9Zn2Sb2,531.5,0.000016891,0.0014733,0.00015843,1.9765,0.43688,59203.1259250488,0.0007454086
10954,10.1007/s11664-015-4303-6,5134,3(a),6471,x=0.9,Ca0.1Eu0.9Zn2Sb2,532,0.000016905,0.001474,0.00015853,1.9749,0.4377,59154.0964211772,0.0007463669
10954,10.1007/s11664-015-4303-6,5134,3(a),6471,x=0.9,Ca0.1Eu0.9Zn2Sb2,532.5,0.000016919,0.0014747,0.00015863,1.9733,0.43852,59105.1480583959,0.0007473268
10954,10.1007/s11664-015-4303-6,5134,3(a),6471,x=0.9,Ca0.1Eu0.9Zn2Sb2,533,0.000016933,0.0014754,0.00015873,1.9718,0.43935,59056.2806354456,0.0007482503
10954,10.1007/s11664-015-4303-6,5134,3(a),6471,x=0.9,Ca0.1Eu0.9Zn2Sb2,533.5,0.000016947,0.0014761,0.00015883,1.9702,0.44017,59007.4939517319,0.0007492133
10954,10.1007/s11664-015-4303-6,5134,3(a),6471,x=0.9,Ca0.1Eu0.9Zn2Sb2,534,0.000016961,0.0014768,0.00015893,1.9686,0.441,58958.7878073227,0.0007501778
10954,10.1007/s11664-015-4303-6,5134,3(a),6471,x=0.9,Ca0.1Eu0.9Zn2Sb2,534.5,0.000016975,0.0014775,0.00015903,1.967,0.44182,58910.1620029455,0.0007511439
10954,10.1007/s11664-015-4303-6,5134,3(a),6471,x=0.9,Ca0.1Eu0.9Zn2Sb2,535,0.000016989,0.0014782,0.00015912,1.9655,0.44264,58861.6163399847,0.0007520733
10954,10.1007/s11664-015-4303-6,5134,3(a),6471,x=0.9,Ca0.1Eu0.9Zn2Sb2,535.5,0.000017003,0.0014789,0.00015922,1.9639,0.44347,58813.1506204787,0.0007530424
10954,10.1007/s11664-015-4303-6,5134,3(a),6471,x=0.9,Ca0.1Eu0.9Zn2Sb2,536,0.000017017,0.0014796,0.00015932,1.9623,0.44429,58764.7646471176,0.0007540131
10954,10.1007/s11664-015-4303-6,5134,3(a),6471,x=0.9,Ca0.1Eu0.9Zn2Sb2,536.5,0.000017031,0.0014803,0.00015942,1.9607,0.44512,58716.45822324,0.0007549855
10954,10.1007/s11664-015-4303-6,5134,3(a),6471,x=0.9,Ca0.1Eu0.9Zn2Sb2,537,0.000017045,0.001481,0.00015952,1.9591,0.44594,58668.2311528307,0.0007559594
10954,10.1007/s11664-015-4303-6,5134,3(a),6471,x=0.9,Ca0.1Eu0.9Zn2Sb2,537.5,0.000017059,0.0014817,0.00015962,1.9576,0.44677,58620.0832405182,0.0007568962
10954,10.1007/s11664-015-4303-6,5134,3(a),6471,x=0.9,Ca0.1Eu0.9Zn2Sb2,538,0.000017073,0.0014825,0.00015972,1.956,0.44759,58572.0142915715,0.0007579243
10954,10.1007/s11664-015-4303-6,5134,3(a),6471,x=0.9,Ca0.1Eu0.9Zn2Sb2,538.5,0.000017087,0.0014832,0.00015982,1.9544,0.44841,58524.0241118979,0.000758903
10954,10.1007/s11664-015-4303-6,5134,3(a),6471,x=0.9,Ca0.1Eu0.9Zn2Sb2,539,0.000017101,0.0014839,0.00015991,1.9528,0.44924,58476.1125080405,0.0007598832
10954,10.1007/s11664-015-4303-6,5134,3(a),6471,x=0.9,Ca0.1Eu0.9Zn2Sb2,539.5,0.000017116,0.0014846,0.00016001,1.9512,0.45006,58424.8656228091,0.0007608651
10954,10.1007/s11664-015-4303-6,5134,3(a),6471,x=0.9,Ca0.1Eu0.9Zn2Sb2,540,0.00001713,0.0014853,0.00016011,1.9497,0.45089,58377.1161704612,0.0007618095
10954,10.1007/s11664-015-4303-6,5134,3(a),6471,x=0.9,Ca0.1Eu0.9Zn2Sb2,540.5,0.000017144,0.001486,0.00016021,1.9481,0.45171,58329.4447036864,0.0007627945
10954,10.1007/s11664-015-4303-6,5134,3(a),6471,x=0.9,Ca0.1Eu0.9Zn2Sb2,541,0.000017158,0.0014867,0.00016031,1.9465,0.45253,58281.8510315888,0.0007637811
10954,10.1007/s11664-015-4303-6,5134,3(a),6471,x=0.9,Ca0.1Eu0.9Zn2Sb2,541.5,0.000017172,0.0014874,0.00016041,1.9449,0.45336,58234.3349638947,0.0007647694
10954,10.1007/s11664-015-4303-6,5134,3(a),6471,x=0.9,Ca0.1Eu0.9Zn2Sb2,542,0.000017186,0.0014881,0.00016051,1.9434,0.45418,58186.8963109508,0.0007657199
10954,10.1007/s11664-015-4303-6,5134,3(a),6471,x=0.9,Ca0.1Eu0.9Zn2Sb2,542.5,0.0000172,0.0014888,0.00016061,1.9418,0.45501,58139.5348837209,0.0007667113
10954,10.1007/s11664-015-4303-6,5134,3(a),6471,x=0.9,Ca0.1Eu0.9Zn2Sb2,543,0.000017214,0.0014895,0.0001607,1.9402,0.45583,58092.2504937841,0.0007677044
10954,10.1007/s11664-015-4303-6,5134,3(a),6471,x=0.9,Ca0.1Eu0.9Zn2Sb2,543.5,0.000017228,0.0014902,0.0001608,1.9386,0.45665,58045.0429533318,0.0007686991
10954,10.1007/s11664-015-4303-6,5134,3(a),6471,x=0.9,Ca0.1Eu0.9Zn2Sb2,544,0.000017243,0.0014909,0.0001609,1.937,0.45748,57994.5485124398,0.0007696954
10954,10.1007/s11664-015-4303-6,5134,3(a),6471,x=0.9,Ca0.1Eu0.9Zn2Sb2,544.5,0.000017257,0.0014916,0.000161,1.9355,0.4583,57947.4995653938,0.0007706536
10954,10.1007/s11664-015-4303-6,5134,3(a),6471,x=0.9,Ca0.1Eu0.9Zn2Sb2,545,0.000017271,0.0014923,0.0001611,1.9339,0.45913,57900.5268947947,0.0007716531
10954,10.1007/s11664-015-4303-6,5134,3(a),6471,x=0.9,Ca0.1Eu0.9Zn2Sb2,545.5,0.000017285,0.001493,0.0001612,1.9323,0.45995,57853.6303153023,0.0007726543
10954,10.1007/s11664-015-4303-6,5134,3(a),6471,x=0.9,Ca0.1Eu0.9Zn2Sb2,546,0.000017299,0.0014937,0.0001613,1.9307,0.46077,57806.8096421758,0.0007736572
10954,10.1007/s11664-015-4303-6,5134,3(a),6471,x=0.9,Ca0.1Eu0.9Zn2Sb2,546.5,0.000017314,0.0014945,0.0001614,1.9291,0.4616,57756.7286588888,0.0007747136
10954,10.1007/s11664-015-4303-6,5134,3(a),6471,x=0.9,Ca0.1Eu0.9Zn2Sb2,547,0.000017328,0.0014952,0.00016149,1.9276,0.46242,57710.0646352724,0.0007756796
10954,10.1007/s11664-015-4303-6,5134,3(a),6471,x=0.9,Ca0.1Eu0.9Zn2Sb2,547.5,0.000017342,0.0014959,0.00016159,1.926,0.46325,57663.4759543305,0.0007766874
10954,10.1007/s11664-015-4303-6,5134,3(a),6471,x=0.9,Ca0.1Eu0.9Zn2Sb2,548,0.000017356,0.0014966,0.00016169,1.9244,0.46407,57616.9624337405,0.0007776969
10954,10.1007/s11664-015-4303-6,5134,3(a),6471,x=0.9,Ca0.1Eu0.9Zn2Sb2,548.5,0.00001737,0.0014973,0.00016179,1.9228,0.4649,57570.5238917674,0.0007787081
10954,10.1007/s11664-015-4303-6,5134,3(a),6471,x=0.9,Ca0.1Eu0.9Zn2Sb2,549,0.000017385,0.001498,0.00016189,1.9212,0.46572,57520.8513085994,0.000779721
10954,10.1007/s11664-015-4303-6,5134,3(a),6471,x=0.9,Ca0.1Eu0.9Zn2Sb2,549.5,0.000017399,0.0014987,0.00016199,1.9197,0.46654,57474.5675038795,0.0007806949
10954,10.1007/s11664-015-4303-6,5134,3(a),6471,x=0.9,Ca0.1Eu0.9Zn2Sb2,550,0.000017413,0.0014994,0.00016209,1.9181,0.46737,57428.3581232413,0.0007817111
10954,10.1007/s11664-015-4303-6,5134,3(a),6471,x=0.9,Ca0.1Eu0.9Zn2Sb2,550.5,0.000017427,0.0015001,0.00016218,1.9165,0.46819,57382.2229873185,0.0007827289
10954,10.1007/s11664-015-4303-6,5134,3(a),6471,x=0.9,Ca0.1Eu0.9Zn2Sb2,551,0.000017442,0.0015008,0.00016228,1.9149,0.46902,57332.874670336,0.0007837485
10954,10.1007/s11664-015-4303-6,5134,3(a),6471,x=0.9,Ca0.1Eu0.9Zn2Sb2,551.5,0.000017456,0.0015015,0.00016238,1.9134,0.46984,57286.8927589368,0.0007847288
10954,10.1007/s11664-015-4303-6,5134,3(a),6471,x=0.9,Ca0.1Eu0.9Zn2Sb2,552,0.00001747,0.0015022,0.00016248,1.9118,0.47066,57240.9845449342,0.0007857516
10954,10.1007/s11664-015-4303-6,5134,3(a),6471,x=0.9,Ca0.1Eu0.9Zn2Sb2,552.5,0.000017484,0.0015029,0.00016258,1.9102,0.47149,57195.1498512926,0.0007867763
10954,10.1007/s11664-015-4303-6,5134,3(a),6471,x=0.9,Ca0.1Eu0.9Zn2Sb2,553,0.000017499,0.0015036,0.00016268,1.9086,0.47231,57146.1226355792,0.0007878026
10954,10.1007/s11664-015-4303-6,5134,3(a),6471,x=0.9,Ca0.1Eu0.9Zn2Sb2,553.5,0.000017513,0.0015043,0.00016278,1.907,0.47314,57100.4396733855,0.0007888306
10954,10.1007/s11664-015-4303-6,5134,3(a),6471,x=0.9,Ca0.1Eu0.9Zn2Sb2,554,0.000017527,0.001505,0.00016288,1.9055,0.47396,57054.8296913334,0.0007898189
10954,10.1007/s11664-015-4303-6,5134,3(a),6471,x=0.9,Ca0.1Eu0.9Zn2Sb2,554.5,0.000017542,0.0015057,0.00016297,1.9039,0.47478,57006.0426405199,0.0007908504
10954,10.1007/s11664-015-4303-6,5134,3(a),6471,x=0.9,Ca0.1Eu0.9Zn2Sb2,555,0.000017556,0.0015065,0.00016307,1.9023,0.47561,56960.5832763728,0.0007919361
10954,10.1007/s11664-015-4303-6,5134,3(a),6471,x=0.9,Ca0.1Eu0.9Zn2Sb2,555.5,0.00001757,0.0015072,0.00016317,1.9007,0.47643,56915.1963574274,0.000792971
10954,10.1007/s11664-015-4303-6,5134,3(a),6471,x=0.9,Ca0.1Eu0.9Zn2Sb2,556,0.000017585,0.0015079,0.00016327,1.8991,0.47726,56866.6477111174,0.0007940077
10954,10.1007/s11664-015-4303-6,5134,3(a),6471,x=0.9,Ca0.1Eu0.9Zn2Sb2,556.5,0.000017599,0.0015086,0.00016337,1.8976,0.47808,56821.4103074038,0.0007950042
10954,10.1007/s11664-015-4303-6,5134,3(a),6471,x=0.9,Ca0.1Eu0.9Zn2Sb2,557,0.000017613,0.0015093,0.00016347,1.896,0.4789,56776.2448191677,0.0007960443
10954,10.1007/s11664-015-4303-6,5134,3(a),6471,x=0.9,Ca0.1Eu0.9Zn2Sb2,557.5,0.000017628,0.00151,0.00016357,1.8944,0.47973,56727.9328341275,0.0007970861
10954,10.1007/s11664-015-4303-6,5134,3(a),6471,x=0.9,Ca0.1Eu0.9Zn2Sb2,558,0.000017642,0.0015107,0.00016367,1.8928,0.48055,56682.9157691872,0.0007981298
10954,10.1007/s11664-015-4303-6,5134,3(a),6471,x=0.9,Ca0.1Eu0.9Zn2Sb2,558.5,0.000017657,0.0015114,0.00016376,1.8912,0.48138,56634.7624171717,0.0007991751
10954,10.1007/s11664-015-4303-6,5134,3(a),6471,x=0.9,Ca0.1Eu0.9Zn2Sb2,559,0.000017671,0.0015121,0.00016386,1.8897,0.4822,56589.8930451021,0.0008001799
10954,10.1007/s11664-015-4303-6,5134,3(a),6471,x=0.9,Ca0.1Eu0.9Zn2Sb2,559.5,0.000017685,0.0015128,0.00016396,1.8881,0.48303,56545.0947130336,0.0008012287
10954,10.1007/s11664-015-4303-6,5134,3(a),6471,x=0.9,Ca0.1Eu0.9Zn2Sb2,560,0.0000177,0.0015135,0.00016406,1.8865,0.48385,56497.1751412429,0.0008022794
10954,10.1007/s11664-015-4303-6,5134,3(a),6471,x=0.9,Ca0.1Eu0.9Zn2Sb2,560.5,0.000017714,0.0015142,0.00016416,1.8849,0.48467,56452.5234277972,0.0008033317
10954,10.1007/s11664-015-4303-6,5134,3(a),6471,x=0.9,Ca0.1Eu0.9Zn2Sb2,561,0.000017729,0.0015149,0.00016426,1.8834,0.4855,56404.7605617914,0.0008043432
10954,10.1007/s11664-015-4303-6,5134,3(a),6471,x=0.9,Ca0.1Eu0.9Zn2Sb2,561.5,0.000017743,0.0015156,0.00016436,1.8818,0.48632,56360.2547483515,0.0008053991
10954,10.1007/s11664-015-4303-6,5134,3(a),6471,x=0.9,Ca0.1Eu0.9Zn2Sb2,562,0.000017757,0.0015163,0.00016446,1.8802,0.48715,56315.819113589,0.0008064568
10954,10.1007/s11664-015-4303-6,5134,3(a),6471,x=0.9,Ca0.1Eu0.9Zn2Sb2,562.5,0.000017772,0.001517,0.00016455,1.8786,0.48797,56268.2871933378,0.0008075162
10954,10.1007/s11664-015-4303-6,5134,3(a),6471,x=0.9,Ca0.1Eu0.9Zn2Sb2,563,0.000017786,0.0015177,0.00016465,1.877,0.48879,56223.9964016642,0.0008085775
10954,10.1007/s11664-015-4303-6,5134,3(a),6471,x=0.9,Ca0.1Eu0.9Zn2Sb2,563.5,0.000017801,0.0015185,0.00016475,1.8755,0.48962,56176.6192910511,0.0008096508
10954,10.1007/s11664-015-4303-6,5134,3(a),6471,x=0.9,Ca0.1Eu0.9Zn2Sb2,564,0.000017815,0.0015192,0.00016485,1.8739,0.49044,56132.4726354196,0.0008107156
10954,10.1007/s11664-015-4303-6,5134,3(a),6471,x=0.9,Ca0.1Eu0.9Zn2Sb2,564.5,0.00001783,0.0015199,0.00016495,1.8723,0.49127,56085.2495793606,0.0008117823
10954,10.1007/s11664-015-4303-6,5134,3(a),6471,x=0.9,Ca0.1Eu0.9Zn2Sb2,565,0.000017844,0.0015206,0.00016505,1.8707,0.49209,56041.246357319,0.0008128508
10954,10.1007/s11664-015-4303-6,5134,3(a),6471,x=0.9,Ca0.1Eu0.9Zn2Sb2,565.5,0.000017859,0.0015213,0.00016515,1.8691,0.49291,55994.176605633,0.0008139211
10954,10.1007/s11664-015-4303-6,5134,3(a),6471,x=0.9,Ca0.1Eu0.9Zn2Sb2,566,0.000017873,0.001522,0.00016525,1.8676,0.49374,55950.3161192861,0.0008149497
10954,10.1007/s11664-015-4303-6,5134,3(a),6471,x=0.9,Ca0.1Eu0.9Zn2Sb2,566.5,0.000017888,0.0015227,0.00016534,1.866,0.49456,55903.3989266547,0.0008160236
10954,10.1007/s11664-015-4303-6,5134,3(a),6471,x=0.9,Ca0.1Eu0.9Zn2Sb2,567,0.000017902,0.0015234,0.00016544,1.8644,0.49539,55859.6804826276,0.0008170993
10954,10.1007/s11664-015-4303-6,5134,3(a),6471,x=0.9,Ca0.1Eu0.9Zn2Sb2,567.5,0.000017917,0.0015241,0.00016554,1.8628,0.49621,55812.9151085561,0.0008181769
10954,10.1007/s11664-015-4303-6,5134,3(a),6471,x=0.9,Ca0.1Eu0.9Zn2Sb2,568,0.000017931,0.0015248,0.00016564,1.8613,0.49703,55769.3380179577,0.0008192124
10954,10.1007/s11664-015-4303-6,5134,3(a),6471,x=0.9,Ca0.1Eu0.9Zn2Sb2,568.5,0.000017946,0.0015255,0.00016574,1.8597,0.49786,55722.7237267358,0.0008202936
10954,10.1007/s11664-015-4303-6,5134,3(a),6471,x=0.9,Ca0.1Eu0.9Zn2Sb2,569,0.00001796,0.0015262,0.00016584,1.8581,0.49868,55679.2873051225,0.0008213767
10954,10.1007/s11664-015-4303-6,5134,3(a),6471,x=0.9,Ca0.1Eu0.9Zn2Sb2,569.5,0.000017975,0.0015269,0.00016594,1.8565,0.49951,55632.8233657858,0.0008224616
10954,10.1007/s11664-015-4303-6,5134,3(a),6471,x=0.9,Ca0.1Eu0.9Zn2Sb2,570,0.000017989,0.0015276,0.00016604,1.8549,0.50033,55589.5269331258,0.0008235484
10954,10.1007/s11664-015-4303-6,5134,3(a),6471,x=0.9,Ca0.1Eu0.9Zn2Sb2,570.5,0.000018004,0.0015283,0.00016613,1.8534,0.50116,55543.2126194179,0.0008245926
10954,10.1007/s11664-015-4303-6,5134,3(a),6471,x=0.9,Ca0.1Eu0.9Zn2Sb2,571,0.000018019,0.001529,0.00016623,1.8518,0.50198,55496.9754148399,0.0008256831
10954,10.1007/s11664-015-4303-6,5134,3(a),6471,x=0.9,Ca0.1Eu0.9Zn2Sb2,571.5,0.000018033,0.0015297,0.00016633,1.8502,0.5028,55453.8900903898,0.0008267755
10954,10.1007/s11664-015-4303-6,5134,3(a),6471,x=0.9,Ca0.1Eu0.9Zn2Sb2,572,0.000018048,0.0015305,0.00016643,1.8486,0.50363,55407.8014184397,0.0008279238
10954,10.1007/s11664-015-4303-6,5134,3(a),6471,x=0.9,Ca0.1Eu0.9Zn2Sb2,572.5,0.000018062,0.0015312,0.00016653,1.847,0.50445,55364.8543904329,0.00082902
10954,10.1007/s11664-015-4303-6,5134,3(a),6471,x=0.9,Ca0.1Eu0.9Zn2Sb2,573,0.000018077,0.0015319,0.00016663,1.8455,0.50528,55318.9135365381,0.0008300732
10954,10.1007/s11664-015-4303-6,5134,3(a),6471,x=0.9,Ca0.1Eu0.9Zn2Sb2,573.5,0.000018092,0.0015326,0.00016673,1.8439,0.5061,55273.0488613752,0.0008311731
10954,10.1007/s11664-015-4303-6,5134,3(a),6471,x=0.9,Ca0.1Eu0.9Zn2Sb2,574,0.000018106,0.0015333,0.00016683,1.8423,0.50692,55230.3103943444,0.0008322749
10954,10.1007/s11664-015-4303-6,5134,3(a),6471,x=0.9,Ca0.1Eu0.9Zn2Sb2,574.5,0.000018121,0.001534,0.00016692,1.8407,0.50775,55184.5924617847,0.0008333786
10954,10.1007/s11664-015-4303-6,5134,3(a),6471,x=0.9,Ca0.1Eu0.9Zn2Sb2,575,0.000018136,0.0015347,0.00016702,1.8391,0.50857,55138.9501543891,0.0008344843
10954,10.1007/s11664-015-4303-6,5134,3(a),6471,x=0.9,Ca0.1Eu0.9Zn2Sb2,575.5,0.00001815,0.0015354,0.00016712,1.8376,0.5094,55096.4187327824,0.0008355464
10954,10.1007/s11664-015-4303-6,5134,3(a),6471,x=0.9,Ca0.1Eu0.9Zn2Sb2,576,0.000018165,0.0015361,0.00016722,1.836,0.51022,55050.9221029452,0.0008366558
10954,10.1007/s11664-015-4303-6,5134,3(a),6471,x=0.9,Ca0.1Eu0.9Zn2Sb2,576.5,0.00001818,0.0015368,0.00016732,1.8344,0.51104,55005.500550055,0.0008377671
10954,10.1007/s11664-015-4303-6,5134,3(a),6471,x=0.9,Ca0.1Eu0.9Zn2Sb2,577,0.000018194,0.0015375,0.00016742,1.8328,0.51187,54963.1746729691,0.0008388804
10954,10.1007/s11664-015-4303-6,5134,3(a),6471,x=0.9,Ca0.1Eu0.9Zn2Sb2,577.5,0.000018209,0.0015382,0.00016752,1.8313,0.51269,54917.8977428744,0.0008399498
10954,10.1007/s11664-015-4303-6,5134,3(a),6471,x=0.9,Ca0.1Eu0.9Zn2Sb2,578,0.000018224,0.0015389,0.00016762,1.8297,0.51352,54872.6953467954,0.0008410668
10954,10.1007/s11664-015-4303-6,5134,3(a),6471,x=0.9,Ca0.1Eu0.9Zn2Sb2,578.5,0.000018238,0.0015396,0.00016771,1.8281,0.51434,54830.5735277991,0.0008421859
10954,10.1007/s11664-015-4303-6,5134,3(a),6471,x=0.9,Ca0.1Eu0.9Zn2Sb2,579,0.000018253,0.0015403,0.00016781,1.8265,0.51516,54785.5147099107,0.0008433069
10954,10.1007/s11664-015-4303-6,5134,3(a),6471,x=0.9,Ca0.1Eu0.9Zn2Sb2,579.5,0.000018268,0.001541,0.00016791,1.8249,0.51599,54740.5298883293,0.0008444298
10954,10.1007/s11664-015-4303-6,5134,3(a),6471,x=0.9,Ca0.1Eu0.9Zn2Sb2,580,0.000018282,0.0015417,0.00016801,1.8234,0.51681,54698.6106552894,0.0008455084
10954,10.1007/s11664-015-4303-6,5134,3(a),6471,x=0.9,Ca0.1Eu0.9Zn2Sb2,580.5,0.000018297,0.0015425,0.00016811,1.8218,0.51764,54653.7683773296,0.0008466901
10954,10.1007/s11664-015-4303-6,5134,3(a),6471,x=0.9,Ca0.1Eu0.9Zn2Sb2,581,0.000018312,0.0015432,0.00016821,1.8202,0.51846,54608.999563128,0.0008478189
10954,10.1007/s11664-015-4303-6,5134,3(a),6471,x=0.9,Ca0.1Eu0.9Zn2Sb2,581.5,0.000018327,0.0015439,0.00016831,1.8186,0.51929,54564.3040323021,0.0008489497
10954,10.1007/s11664-015-4303-6,5134,3(a),6471,x=0.9,Ca0.1Eu0.9Zn2Sb2,582,0.000018341,0.0015446,0.00016841,1.817,0.52011,54522.6541628046,0.0008500826
10954,10.1007/s11664-015-4303-6,5134,3(a),6471,x=0.9,Ca0.1Eu0.9Zn2Sb2,582.5,0.000018356,0.0015453,0.0001685,1.8155,0.52093,54478.0998038788,0.0008511705
10954,10.1007/s11664-015-4303-6,5134,3(a),6471,x=0.9,Ca0.1Eu0.9Zn2Sb2,583,0.000018371,0.001546,0.0001686,1.8139,0.52176,54433.6182026019,0.0008523072
10954,10.1007/s11664-015-4303-6,5134,3(a),6471,x=0.9,Ca0.1Eu0.9Zn2Sb2,583.5,0.000018386,0.0015467,0.0001687,1.8123,0.52258,54389.2091808985,0.0008534459
10954,10.1007/s11664-015-4303-6,5134,3(a),6471,x=0.9,Ca0.1Eu0.9Zn2Sb2,584,0.0000184,0.0015474,0.0001688,1.8107,0.52341,54347.8260869565,0.0008545866
10954,10.1007/s11664-015-4303-6,5134,3(a),6471,x=0.9,Ca0.1Eu0.9Zn2Sb2,584.5,0.000018415,0.0015481,0.0001689,1.8092,0.52423,54303.5568829758,0.0008556821
10954,10.1007/s11664-015-4303-6,5134,3(a),6471,x=0.9,Ca0.1Eu0.9Zn2Sb2,585,0.00001843,0.0015488,0.000169,1.8076,0.52505,54259.3597395551,0.0008568267
10954,10.1007/s11664-015-4303-6,5134,3(a),6471,x=0.9,Ca0.1Eu0.9Zn2Sb2,585.5,0.000018445,0.0015495,0.0001691,1.806,0.52588,54215.2344808891,0.0008579734