sid,DOI,figureid,fignum,sampleid,samplename,composition,Temperature,Electrical resistivity,Power factor,Seebeck coefficient,Thermal conductivity,ZT,Electrical conductivity,Figure of merit Z
10954,10.1007/s11664-015-4303-6,5134,3(a),6468,x=0.1,Ca0.9Eu0.1Zn2Sb2,421.5,0.000018544,0.00093811,0.00013234,2.7327,0.15855,53925.7981018119,0.0003432905
10954,10.1007/s11664-015-4303-6,5134,3(a),6468,x=0.1,Ca0.9Eu0.1Zn2Sb2,422,0.000018559,0.00093868,0.00013243,2.7308,0.15908,53882.2134813298,0.0003437381
10954,10.1007/s11664-015-4303-6,5134,3(a),6468,x=0.1,Ca0.9Eu0.1Zn2Sb2,422.5,0.000018574,0.00093925,0.00013252,2.7288,0.15961,53838.699257026,0.0003441989
10954,10.1007/s11664-015-4303-6,5134,3(a),6468,x=0.1,Ca0.9Eu0.1Zn2Sb2,423,0.00001859,0.00093981,0.00013261,2.7268,0.16013,53792.3614846692,0.0003446567
10954,10.1007/s11664-015-4303-6,5134,3(a),6468,x=0.1,Ca0.9Eu0.1Zn2Sb2,423.5,0.000018605,0.00094038,0.0001327,2.7249,0.16066,53748.9922063961,0.0003451062
10954,10.1007/s11664-015-4303-6,5134,3(a),6468,x=0.1,Ca0.9Eu0.1Zn2Sb2,424,0.00001862,0.00094095,0.0001328,2.7229,0.16119,53705.6928034372,0.0003455691
10954,10.1007/s11664-015-4303-6,5134,3(a),6468,x=0.1,Ca0.9Eu0.1Zn2Sb2,424.5,0.000018635,0.00094152,0.00013289,2.721,0.16172,53662.4631070566,0.0003460198
10954,10.1007/s11664-015-4303-6,5134,3(a),6468,x=0.1,Ca0.9Eu0.1Zn2Sb2,425,0.00001865,0.00094209,0.00013298,2.719,0.16224,53619.3029490617,0.000346484
10954,10.1007/s11664-015-4303-6,5134,3(a),6468,x=0.1,Ca0.9Eu0.1Zn2Sb2,425.5,0.000018665,0.00094265,0.00013307,2.7171,0.16277,53576.2121618002,0.0003469324
10954,10.1007/s11664-015-4303-6,5134,3(a),6468,x=0.1,Ca0.9Eu0.1Zn2Sb2,426,0.00001868,0.00094322,0.00013316,2.7151,0.1633,53533.1905781585,0.0003473979
10954,10.1007/s11664-015-4303-6,5134,3(a),6468,x=0.1,Ca0.9Eu0.1Zn2Sb2,426.5,0.000018695,0.00094379,0.00013325,2.7132,0.16383,53490.2380315592,0.0003478512
10954,10.1007/s11664-015-4303-6,5134,3(a),6468,x=0.1,Ca0.9Eu0.1Zn2Sb2,427,0.000018711,0.00094436,0.00013335,2.7112,0.16435,53444.4978889423,0.0003483181
10954,10.1007/s11664-015-4303-6,5134,3(a),6468,x=0.1,Ca0.9Eu0.1Zn2Sb2,427.5,0.000018726,0.00094493,0.00013344,2.7093,0.16488,53401.6874933248,0.0003487727
10954,10.1007/s11664-015-4303-6,5134,3(a),6468,x=0.1,Ca0.9Eu0.1Zn2Sb2,428,0.000018741,0.00094549,0.00013353,2.7073,0.16541,53358.9456272344,0.0003492372
10954,10.1007/s11664-015-4303-6,5134,3(a),6468,x=0.1,Ca0.9Eu0.1Zn2Sb2,428.5,0.000018756,0.00094606,0.00013362,2.7054,0.16594,53316.2721262529,0.0003496932
10954,10.1007/s11664-015-4303-6,5134,3(a),6468,x=0.1,Ca0.9Eu0.1Zn2Sb2,429,0.000018771,0.00094663,0.00013371,2.7034,0.16647,53273.6668264877,0.0003501628
10954,10.1007/s11664-015-4303-6,5134,3(a),6468,x=0.1,Ca0.9Eu0.1Zn2Sb2,429.5,0.000018786,0.0009472,0.00013381,2.7015,0.16699,53231.1295645694,0.00035062
10954,10.1007/s11664-015-4303-6,5134,3(a),6468,x=0.1,Ca0.9Eu0.1Zn2Sb2,430,0.000018801,0.00094777,0.0001339,2.6995,0.16752,53188.6601776501,0.0003510909
10954,10.1007/s11664-015-4303-6,5134,3(a),6468,x=0.1,Ca0.9Eu0.1Zn2Sb2,430.5,0.000018816,0.00094833,0.00013399,2.6976,0.16805,53146.2585034014,0.0003515458
10954,10.1007/s11664-015-4303-6,5134,3(a),6468,x=0.1,Ca0.9Eu0.1Zn2Sb2,431,0.000018832,0.0009489,0.00013408,2.6956,0.16858,53101.1045029737,0.0003520181
10954,10.1007/s11664-015-4303-6,5134,3(a),6468,x=0.1,Ca0.9Eu0.1Zn2Sb2,431.5,0.000018847,0.00094947,0.00013417,2.6937,0.1691,53058.842256062,0.000352478
10954,10.1007/s11664-015-4303-6,5134,3(a),6468,x=0.1,Ca0.9Eu0.1Zn2Sb2,432,0.000018862,0.00095004,0.00013427,2.6917,0.16963,53016.6472272293,0.0003529517
10954,10.1007/s11664-015-4303-6,5134,3(a),6468,x=0.1,Ca0.9Eu0.1Zn2Sb2,432.5,0.000018877,0.00095061,0.00013436,2.6897,0.17016,52974.5192562378,0.000353426
10954,10.1007/s11664-015-4303-6,5134,3(a),6468,x=0.1,Ca0.9Eu0.1Zn2Sb2,433,0.000018892,0.00095117,0.00013445,2.6878,0.17069,52932.458183358,0.0003538842
10954,10.1007/s11664-015-4303-6,5134,3(a),6468,x=0.1,Ca0.9Eu0.1Zn2Sb2,433.5,0.000018907,0.00095174,0.00013454,2.6858,0.17121,52890.463849368,0.00035436
10954,10.1007/s11664-015-4303-6,5134,3(a),6468,x=0.1,Ca0.9Eu0.1Zn2Sb2,434,0.000018922,0.00095231,0.00013463,2.6839,0.17174,52848.5360955502,0.0003548232
10954,10.1007/s11664-015-4303-6,5134,3(a),6468,x=0.1,Ca0.9Eu0.1Zn2Sb2,434.5,0.000018937,0.00095288,0.00013473,2.6819,0.17227,52806.6747636901,0.0003553003
10954,10.1007/s11664-015-4303-6,5134,3(a),6468,x=0.1,Ca0.9Eu0.1Zn2Sb2,435,0.000018952,0.00095345,0.00013482,2.68,0.1728,52764.8796960743,0.0003557649
10954,10.1007/s11664-015-4303-6,5134,3(a),6468,x=0.1,Ca0.9Eu0.1Zn2Sb2,435.5,0.000018968,0.00095401,0.00013491,2.678,0.17333,52720.3711514129,0.0003562397
10954,10.1007/s11664-015-4303-6,5134,3(a),6468,x=0.1,Ca0.9Eu0.1Zn2Sb2,436,0.000018983,0.00095458,0.000135,2.6761,0.17385,52678.7125322657,0.0003567057
10954,10.1007/s11664-015-4303-6,5134,3(a),6468,x=0.1,Ca0.9Eu0.1Zn2Sb2,436.5,0.000018998,0.00095515,0.00013509,2.6741,0.17438,52637.1196968102,0.0003571856
10954,10.1007/s11664-015-4303-6,5134,3(a),6468,x=0.1,Ca0.9Eu0.1Zn2Sb2,437,0.000019013,0.00095572,0.00013518,2.6722,0.17491,52595.5924893494,0.0003576529
10954,10.1007/s11664-015-4303-6,5134,3(a),6468,x=0.1,Ca0.9Eu0.1Zn2Sb2,437.5,0.000019028,0.00095629,0.00013528,2.6702,0.17544,52554.1307546773,0.0003581342
10954,10.1007/s11664-015-4303-6,5134,3(a),6468,x=0.1,Ca0.9Eu0.1Zn2Sb2,438,0.000019043,0.00095685,0.00013537,2.6683,0.17596,52512.734338077,0.0003585991
10954,10.1007/s11664-015-4303-6,5134,3(a),6468,x=0.1,Ca0.9Eu0.1Zn2Sb2,438.5,0.000019058,0.00095742,0.00013546,2.6663,0.17649,52471.4030853185,0.0003590819
10954,10.1007/s11664-015-4303-6,5134,3(a),6468,x=0.1,Ca0.9Eu0.1Zn2Sb2,439,0.000019073,0.00095799,0.00013555,2.6644,0.17702,52430.1368426572,0.0003595519
10954,10.1007/s11664-015-4303-6,5134,3(a),6468,x=0.1,Ca0.9Eu0.1Zn2Sb2,439.5,0.000019089,0.00095856,0.00013564,2.6624,0.17755,52386.1910000524,0.0003600361
10954,10.1007/s11664-015-4303-6,5134,3(a),6468,x=0.1,Ca0.9Eu0.1Zn2Sb2,440,0.000019104,0.00095913,0.00013574,2.6605,0.17807,52345.0586264657,0.0003605074
10954,10.1007/s11664-015-4303-6,5134,3(a),6468,x=0.1,Ca0.9Eu0.1Zn2Sb2,440.5,0.000019119,0.0009597,0.00013583,2.6585,0.1786,52303.9907944976,0.000360993
10954,10.1007/s11664-015-4303-6,5134,3(a),6468,x=0.1,Ca0.9Eu0.1Zn2Sb2,441,0.000019134,0.00096026,0.00013592,2.6566,0.17913,52262.9873523571,0.000361462
10954,10.1007/s11664-015-4303-6,5134,3(a),6468,x=0.1,Ca0.9Eu0.1Zn2Sb2,441.5,0.000019149,0.00096083,0.00013601,2.6546,0.17966,52222.0481487284,0.0003619491
10954,10.1007/s11664-015-4303-6,5134,3(a),6468,x=0.1,Ca0.9Eu0.1Zn2Sb2,442,0.000019164,0.0009614,0.0001361,2.6527,0.18018,52181.1730327698,0.0003624232
10954,10.1007/s11664-015-4303-6,5134,3(a),6468,x=0.1,Ca0.9Eu0.1Zn2Sb2,442.5,0.000019179,0.00096197,0.0001362,2.6507,0.18071,52140.3618541113,0.0003629117
10954,10.1007/s11664-015-4303-6,5134,3(a),6468,x=0.1,Ca0.9Eu0.1Zn2Sb2,443,0.000019194,0.00096254,0.00013629,2.6487,0.18124,52099.614462853,0.0003634009
10954,10.1007/s11664-015-4303-6,5134,3(a),6468,x=0.1,Ca0.9Eu0.1Zn2Sb2,443.5,0.000019209,0.0009631,0.00013638,2.6468,0.18177,52058.9307095632,0.0003638734
10954,10.1007/s11664-015-4303-6,5134,3(a),6468,x=0.1,Ca0.9Eu0.1Zn2Sb2,444,0.000019225,0.00096367,0.00013647,2.6448,0.1823,52015.6046814044,0.000364364
10954,10.1007/s11664-015-4303-6,5134,3(a),6468,x=0.1,Ca0.9Eu0.1Zn2Sb2,444.5,0.00001924,0.00096424,0.00013656,2.6429,0.18282,51975.051975052,0.0003648417
10954,10.1007/s11664-015-4303-6,5134,3(a),6468,x=0.1,Ca0.9Eu0.1Zn2Sb2,445,0.000019255,0.00096481,0.00013666,2.6409,0.18335,51934.5624513113,0.0003653338
10954,10.1007/s11664-015-4303-6,5134,3(a),6468,x=0.1,Ca0.9Eu0.1Zn2Sb2,445.5,0.00001927,0.00096538,0.00013675,2.639,0.18388,51894.1359626362,0.0003658128
10954,10.1007/s11664-015-4303-6,5134,3(a),6468,x=0.1,Ca0.9Eu0.1Zn2Sb2,446,0.000019285,0.00096594,0.00013684,2.637,0.18441,51853.7723619393,0.0003663026
10954,10.1007/s11664-015-4303-6,5134,3(a),6468,x=0.1,Ca0.9Eu0.1Zn2Sb2,446.5,0.0000193,0.00096651,0.00013693,2.6351,0.18493,51813.4715025907,0.000366783
10954,10.1007/s11664-015-4303-6,5134,3(a),6468,x=0.1,Ca0.9Eu0.1Zn2Sb2,447,0.000019315,0.00096708,0.00013702,2.6331,0.18546,51773.2332384157,0.0003672781
10954,10.1007/s11664-015-4303-6,5134,3(a),6468,x=0.1,Ca0.9Eu0.1Zn2Sb2,447.5,0.00001933,0.00096765,0.00013711,2.6312,0.18599,51733.0574236937,0.00036776
10954,10.1007/s11664-015-4303-6,5134,3(a),6468,x=0.1,Ca0.9Eu0.1Zn2Sb2,448,0.000019346,0.00096822,0.00013721,2.6292,0.18652,51690.2718908301,0.0003682565
10954,10.1007/s11664-015-4303-6,5134,3(a),6468,x=0.1,Ca0.9Eu0.1Zn2Sb2,448.5,0.000019361,0.00096878,0.0001373,2.6273,0.18704,51650.2246784774,0.000368736
10954,10.1007/s11664-015-4303-6,5134,3(a),6468,x=0.1,Ca0.9Eu0.1Zn2Sb2,449,0.000019376,0.00096935,0.00013739,2.6253,0.18757,51610.2394715112,0.000369234
10954,10.1007/s11664-015-4303-6,5134,3(a),6468,x=0.1,Ca0.9Eu0.1Zn2Sb2,449.5,0.000019391,0.00096992,0.00013748,2.6234,0.1881,51570.3161260378,0.0003697187
10954,10.1007/s11664-015-4303-6,5134,3(a),6468,x=0.1,Ca0.9Eu0.1Zn2Sb2,450,0.000019406,0.00097049,0.00013757,2.6214,0.18863,51530.4544986087,0.0003702182
10954,10.1007/s11664-015-4303-6,5134,3(a),6468,x=0.1,Ca0.9Eu0.1Zn2Sb2,450.5,0.000019421,0.00097106,0.00013767,2.6195,0.18915,51490.654446218,0.0003707043
10954,10.1007/s11664-015-4303-6,5134,3(a),6468,x=0.1,Ca0.9Eu0.1Zn2Sb2,451,0.000019436,0.00097162,0.00013776,2.6175,0.18968,51450.9158263017,0.0003712015
10954,10.1007/s11664-015-4303-6,5134,3(a),6468,x=0.1,Ca0.9Eu0.1Zn2Sb2,451.5,0.000019451,0.00097219,0.00013785,2.6156,0.19021,51411.2384967354,0.0003716891
10954,10.1007/s11664-015-4303-6,5134,3(a),6468,x=0.1,Ca0.9Eu0.1Zn2Sb2,452,0.000019466,0.00097276,0.00013794,2.6136,0.19074,51371.6223158327,0.0003721916
10954,10.1007/s11664-015-4303-6,5134,3(a),6468,x=0.1,Ca0.9Eu0.1Zn2Sb2,452.5,0.000019482,0.00097333,0.00013803,2.6117,0.19127,51329.4322964788,0.0003726806
10954,10.1007/s11664-015-4303-6,5134,3(a),6468,x=0.1,Ca0.9Eu0.1Zn2Sb2,453,0.000019497,0.0009739,0.00013813,2.6097,0.19179,51289.9420423655,0.0003731847
10954,10.1007/s11664-015-4303-6,5134,3(a),6468,x=0.1,Ca0.9Eu0.1Zn2Sb2,453.5,0.000019512,0.00097446,0.00013822,2.6077,0.19232,51250.5125051251,0.0003736856
10954,10.1007/s11664-015-4303-6,5134,3(a),6468,x=0.1,Ca0.9Eu0.1Zn2Sb2,454,0.000019527,0.00097503,0.00013831,2.6058,0.19285,51211.1435448354,0.0003741768
10954,10.1007/s11664-015-4303-6,5134,3(a),6468,x=0.1,Ca0.9Eu0.1Zn2Sb2,454.5,0.000019542,0.0009756,0.0001384,2.6038,0.19338,51171.8350220039,0.0003746832
10954,10.1007/s11664-015-4303-6,5134,3(a),6468,x=0.1,Ca0.9Eu0.1Zn2Sb2,455,0.000019557,0.00097617,0.00013849,2.6019,0.1939,51132.5867975661,0.0003751758
10954,10.1007/s11664-015-4303-6,5134,3(a),6468,x=0.1,Ca0.9Eu0.1Zn2Sb2,455.5,0.000019572,0.00097674,0.00013859,2.5999,0.19443,51093.3987328837,0.0003756837
10954,10.1007/s11664-015-4303-6,5134,3(a),6468,x=0.1,Ca0.9Eu0.1Zn2Sb2,456,0.000019587,0.0009773,0.00013868,2.598,0.19496,51054.2706897432,0.000376174
10954,10.1007/s11664-015-4303-6,5134,3(a),6468,x=0.1,Ca0.9Eu0.1Zn2Sb2,456.5,0.000019603,0.00097787,0.00013877,2.596,0.19549,51012.6001122277,0.0003766834
10954,10.1007/s11664-015-4303-6,5134,3(a),6468,x=0.1,Ca0.9Eu0.1Zn2Sb2,457,0.000019618,0.00097844,0.00013886,2.5941,0.19601,50973.5956774391,0.000377179
10954,10.1007/s11664-015-4303-6,5134,3(a),6468,x=0.1,Ca0.9Eu0.1Zn2Sb2,457.5,0.000019633,0.00097901,0.00013895,2.5921,0.19654,50934.6508429685,0.0003776899
10954,10.1007/s11664-015-4303-6,5134,3(a),6468,x=0.1,Ca0.9Eu0.1Zn2Sb2,458,0.000019648,0.00097958,0.00013904,2.5902,0.19707,50895.7654723127,0.000378187
10954,10.1007/s11664-015-4303-6,5134,3(a),6468,x=0.1,Ca0.9Eu0.1Zn2Sb2,458.5,0.000019663,0.00098014,0.00013914,2.5882,0.1976,50856.9394293851,0.0003786956
10954,10.1007/s11664-015-4303-6,5134,3(a),6468,x=0.1,Ca0.9Eu0.1Zn2Sb2,459,0.000019678,0.00098071,0.00013923,2.5863,0.19812,50818.1725785141,0.0003791942
10954,10.1007/s11664-015-4303-6,5134,3(a),6468,x=0.1,Ca0.9Eu0.1Zn2Sb2,459.5,0.000019693,0.00098128,0.00013932,2.5843,0.19865,50779.4647844412,0.0003797082
10954,10.1007/s11664-015-4303-6,5134,3(a),6468,x=0.1,Ca0.9Eu0.1Zn2Sb2,460,0.000019708,0.00098185,0.00013941,2.5824,0.19918,50740.8159123199,0.0003802083
10954,10.1007/s11664-015-4303-6,5134,3(a),6468,x=0.1,Ca0.9Eu0.1Zn2Sb2,460.5,0.000019724,0.00098242,0.0001395,2.5804,0.19971,50699.6552423443,0.0003807239
10954,10.1007/s11664-015-4303-6,5134,3(a),6468,x=0.1,Ca0.9Eu0.1Zn2Sb2,461,0.000019739,0.00098299,0.0001396,2.5785,0.20024,50661.127716703,0.0003812255
10954,10.1007/s11664-015-4303-6,5134,3(a),6468,x=0.1,Ca0.9Eu0.1Zn2Sb2,461.5,0.000019754,0.00098355,0.00013969,2.5765,0.20076,50622.658702035,0.0003817388
10954,10.1007/s11664-015-4303-6,5134,3(a),6468,x=0.1,Ca0.9Eu0.1Zn2Sb2,462,0.000019769,0.00098412,0.00013978,2.5746,0.20129,50584.2480651525,0.0003822419
10954,10.1007/s11664-015-4303-6,5134,3(a),6468,x=0.1,Ca0.9Eu0.1Zn2Sb2,462.5,0.000019784,0.00098469,0.00013987,2.5726,0.20182,50545.8956732713,0.0003827606
10954,10.1007/s11664-015-4303-6,5134,3(a),6468,x=0.1,Ca0.9Eu0.1Zn2Sb2,463,0.000019799,0.00098526,0.00013996,2.5706,0.20235,50507.6013940098,0.0003832802
10954,10.1007/s11664-015-4303-6,5134,3(a),6468,x=0.1,Ca0.9Eu0.1Zn2Sb2,463.5,0.000019814,0.00098583,0.00014006,2.5687,0.20287,50469.3650953871,0.0003837856
10954,10.1007/s11664-015-4303-6,5134,3(a),6468,x=0.1,Ca0.9Eu0.1Zn2Sb2,464,0.000019829,0.00098639,0.00014015,2.5667,0.2034,50431.1866458218,0.0003843028
10954,10.1007/s11664-015-4303-6,5134,3(a),6468,x=0.1,Ca0.9Eu0.1Zn2Sb2,464.5,0.000019844,0.00098696,0.00014024,2.5648,0.20393,50393.0659141302,0.0003848097
10954,10.1007/s11664-015-4303-6,5134,3(a),6468,x=0.1,Ca0.9Eu0.1Zn2Sb2,465,0.00001986,0.00098753,0.00014033,2.5628,0.20446,50352.4672708963,0.0003853324
10954,10.1007/s11664-015-4303-6,5134,3(a),6468,x=0.1,Ca0.9Eu0.1Zn2Sb2,465.5,0.000019875,0.0009881,0.00014042,2.5609,0.20498,50314.465408805,0.0003858409
10954,10.1007/s11664-015-4303-6,5134,3(a),6468,x=0.1,Ca0.9Eu0.1Zn2Sb2,466,0.00001989,0.00098867,0.00014052,2.5589,0.20551,50276.5208647562,0.0003863652
10954,10.1007/s11664-015-4303-6,5134,3(a),6468,x=0.1,Ca0.9Eu0.1Zn2Sb2,466.5,0.000019905,0.00098923,0.00014061,2.557,0.20604,50238.6335091686,0.0003868713
10954,10.1007/s11664-015-4303-6,5134,3(a),6468,x=0.1,Ca0.9Eu0.1Zn2Sb2,467,0.00001992,0.0009898,0.0001407,2.555,0.20657,50200.8032128514,0.0003873973
10954,10.1007/s11664-015-4303-6,5134,3(a),6468,x=0.1,Ca0.9Eu0.1Zn2Sb2,467.5,0.000019935,0.00099037,0.00014079,2.5531,0.20709,50163.0298470028,0.0003879088
10954,10.1007/s11664-015-4303-6,5134,3(a),6468,x=0.1,Ca0.9Eu0.1Zn2Sb2,468,0.00001995,0.00099094,0.00014088,2.5511,0.20762,50125.313283208,0.0003884364
10954,10.1007/s11664-015-4303-6,5134,3(a),6468,x=0.1,Ca0.9Eu0.1Zn2Sb2,468.5,0.000019965,0.00099151,0.00014097,2.5492,0.20815,50087.6533934385,0.0003889495
10954,10.1007/s11664-015-4303-6,5134,3(a),6468,x=0.1,Ca0.9Eu0.1Zn2Sb2,469,0.000019981,0.00099207,0.00014107,2.5472,0.20868,50047.5451679095,0.0003894747
10954,10.1007/s11664-015-4303-6,5134,3(a),6468,x=0.1,Ca0.9Eu0.1Zn2Sb2,469.5,0.000019996,0.00099264,0.00014116,2.5453,0.20921,50010.0020004001,0.0003899894
10954,10.1007/s11664-015-4303-6,5134,3(a),6468,x=0.1,Ca0.9Eu0.1Zn2Sb2,470,0.000020011,0.00099321,0.00014125,2.5433,0.20973,49972.5151166858,0.0003905202
10954,10.1007/s11664-015-4303-6,5134,3(a),6468,x=0.1,Ca0.9Eu0.1Zn2Sb2,470.5,0.000020026,0.00099378,0.00014134,2.5414,0.21026,49935.0843902926,0.0003910364
10954,10.1007/s11664-015-4303-6,5134,3(a),6468,x=0.1,Ca0.9Eu0.1Zn2Sb2,471,0.000020041,0.00099435,0.00014143,2.5394,0.21079,49897.709695125,0.0003915689
10954,10.1007/s11664-015-4303-6,5134,3(a),6468,x=0.1,Ca0.9Eu0.1Zn2Sb2,471.5,0.000020056,0.00099491,0.00014153,2.5375,0.21132,49860.3909054647,0.0003920828
10954,10.1007/s11664-015-4303-6,5134,3(a),6468,x=0.1,Ca0.9Eu0.1Zn2Sb2,472,0.000020071,0.00099548,0.00014162,2.5355,0.21184,49823.1278959693,0.0003926168
10954,10.1007/s11664-015-4303-6,5134,3(a),6468,x=0.1,Ca0.9Eu0.1Zn2Sb2,472.5,0.000020086,0.00099605,0.00014171,2.5336,0.21237,49785.9205416708,0.0003931362
10954,10.1007/s11664-015-4303-6,5134,3(a),6468,x=0.1,Ca0.9Eu0.1Zn2Sb2,473,0.000020101,0.00099662,0.0001418,2.5316,0.2129,49748.7687179742,0.000393672
10954,10.1007/s11664-015-4303-6,5134,3(a),6468,x=0.1,Ca0.9Eu0.1Zn2Sb2,473.5,0.000020117,0.00099719,0.00014189,2.5296,0.21343,49709.2011731371,0.0003942086
10954,10.1007/s11664-015-4303-6,5134,3(a),6468,x=0.1,Ca0.9Eu0.1Zn2Sb2,474,0.000020132,0.00099775,0.00014199,2.5277,0.21395,49672.1637194516,0.0003947264
10954,10.1007/s11664-015-4303-6,5134,3(a),6468,x=0.1,Ca0.9Eu0.1Zn2Sb2,474.5,0.000020147,0.00099832,0.00014208,2.5257,0.21448,49635.1814165881,0.0003952647
10954,10.1007/s11664-015-4303-6,5134,3(a),6468,x=0.1,Ca0.9Eu0.1Zn2Sb2,475,0.000020162,0.00099889,0.00014217,2.5238,0.21501,49598.2541414542,0.0003957881
10954,10.1007/s11664-015-4303-6,5134,3(a),6468,x=0.1,Ca0.9Eu0.1Zn2Sb2,475.5,0.000020177,0.00099946,0.00014226,2.5218,0.21554,49561.3817713238,0.000396328
10954,10.1007/s11664-015-4303-6,5134,3(a),6468,x=0.1,Ca0.9Eu0.1Zn2Sb2,476,0.000020192,0.001,0.00014235,2.5199,0.21607,49524.5641838352,0.0003968411
10954,10.1007/s11664-015-4303-6,5134,3(a),6468,x=0.1,Ca0.9Eu0.1Zn2Sb2,476.5,0.000020207,0.0010006,0.00014245,2.5179,0.21659,49487.8012569901,0.0003973947
10954,10.1007/s11664-015-4303-6,5134,3(a),6468,x=0.1,Ca0.9Eu0.1Zn2Sb2,477,0.000020222,0.0010012,0.00014254,2.516,0.21712,49451.0928691524,0.0003979332
10954,10.1007/s11664-015-4303-6,5134,3(a),6468,x=0.1,Ca0.9Eu0.1Zn2Sb2,477.5,0.000020238,0.0010017,0.00014263,2.514,0.21765,49411.9972329282,0.0003984487
10954,10.1007/s11664-015-4303-6,5134,3(a),6468,x=0.1,Ca0.9Eu0.1Zn2Sb2,478,0.000020253,0.0010023,0.00014272,2.5121,0.21818,49375.4011751345,0.0003989889
10954,10.1007/s11664-015-4303-6,5134,3(a),6468,x=0.1,Ca0.9Eu0.1Zn2Sb2,478.5,0.000020268,0.0010029,0.00014281,2.5101,0.2187,49338.8592855733,0.0003995458
10954,10.1007/s11664-015-4303-6,5134,3(a),6468,x=0.1,Ca0.9Eu0.1Zn2Sb2,479,0.000020283,0.0010034,0.0001429,2.5082,0.21923,49302.3714440665,0.0004000478
10954,10.1007/s11664-015-4303-6,5134,3(a),6468,x=0.1,Ca0.9Eu0.1Zn2Sb2,479.5,0.000020298,0.001004,0.000143,2.5062,0.21976,49265.9375307912,0.0004006065
10954,10.1007/s11664-015-4303-6,5134,3(a),6468,x=0.1,Ca0.9Eu0.1Zn2Sb2,480,0.000020313,0.0010046,0.00014309,2.5043,0.22029,49229.5574262787,0.00040115
10954,10.1007/s11664-015-4303-6,5134,3(a),6468,x=0.1,Ca0.9Eu0.1Zn2Sb2,480.5,0.000020328,0.0010051,0.00014318,2.5023,0.22081,49193.2310114128,0.0004016705
10954,10.1007/s11664-015-4303-6,5134,3(a),6468,x=0.1,Ca0.9Eu0.1Zn2Sb2,481,0.000020343,0.0010057,0.00014327,2.5004,0.22134,49156.9581674286,0.0004022156
10954,10.1007/s11664-015-4303-6,5134,3(a),6468,x=0.1,Ca0.9Eu0.1Zn2Sb2,481.5,0.000020359,0.0010063,0.00014336,2.4984,0.22187,49118.3260474483,0.0004027778
10954,10.1007/s11664-015-4303-6,5134,3(a),6468,x=0.1,Ca0.9Eu0.1Zn2Sb2,482,0.000020374,0.0010068,0.00014346,2.4965,0.2224,49082.1635417689,0.0004032846
10954,10.1007/s11664-015-4303-6,5134,3(a),6468,x=0.1,Ca0.9Eu0.1Zn2Sb2,482.5,0.000020389,0.0010074,0.00014355,2.4945,0.22292,49046.054244936,0.0004038485
10954,10.1007/s11664-015-4303-6,5134,3(a),6468,x=0.1,Ca0.9Eu0.1Zn2Sb2,483,0.000020404,0.001008,0.00014364,2.4926,0.22345,49009.9980396001,0.000404397
10954,10.1007/s11664-015-4303-6,5134,3(a),6468,x=0.1,Ca0.9Eu0.1Zn2Sb2,483.5,0.000020419,0.0010085,0.00014373,2.4906,0.22398,48973.9948087565,0.0004049225
10954,10.1007/s11664-015-4303-6,5134,3(a),6468,x=0.1,Ca0.9Eu0.1Zn2Sb2,484,0.000020434,0.0010091,0.00014382,2.4886,0.22451,48938.0444357443,0.000405489
10954,10.1007/s11664-015-4303-6,5134,3(a),6468,x=0.1,Ca0.9Eu0.1Zn2Sb2,484.5,0.000020449,0.0010097,0.00014392,2.4867,0.22504,48902.1468042447,0.0004060401
10954,10.1007/s11664-015-4303-6,5134,3(a),6468,x=0.1,Ca0.9Eu0.1Zn2Sb2,485,0.000020464,0.0010103,0.00014401,2.4847,0.22556,48866.3017982799,0.0004066084
10954,10.1007/s11664-015-4303-6,5134,3(a),6468,x=0.1,Ca0.9Eu0.1Zn2Sb2,485.5,0.000020479,0.0010108,0.0001441,2.4828,0.22609,48830.509302212,0.000407121