sid,DOI,figureid,fignum,sampleid,samplename,composition,Temperature,Electrical resistivity,Power factor,Seebeck coefficient,Thermal conductivity,ZT,Electrical conductivity,Figure of merit Z
10954,10.1007/s11664-015-4303-6,5134,3(a),6472,x=1,Eu1Zn2Sb2,364.5,0.000012285,0.0013872,0.0001296,2.2417,0.21706,81400.0814000814,0.0006188161
10954,10.1007/s11664-015-4303-6,5134,3(a),6472,x=1,Eu1Zn2Sb2,365,0.000012293,0.0013882,0.00012972,2.2403,0.21814,81347.1081103067,0.0006196492
10954,10.1007/s11664-015-4303-6,5134,3(a),6472,x=1,Eu1Zn2Sb2,365.5,0.000012301,0.0013893,0.00012984,2.2389,0.21922,81294.2037232745,0.0006205279
10954,10.1007/s11664-015-4303-6,5134,3(a),6472,x=1,Eu1Zn2Sb2,366,0.000012309,0.0013903,0.00012997,2.2375,0.2203,81241.3681046389,0.0006213631
10954,10.1007/s11664-015-4303-6,5134,3(a),6472,x=1,Eu1Zn2Sb2,366.5,0.000012317,0.0013913,0.00013009,2.236,0.22138,81188.6011204027,0.0006222272
10954,10.1007/s11664-015-4303-6,5134,3(a),6472,x=1,Eu1Zn2Sb2,367,0.000012325,0.0013924,0.00013021,2.2346,0.22246,81135.9026369168,0.0006231093
10954,10.1007/s11664-015-4303-6,5134,3(a),6472,x=1,Eu1Zn2Sb2,367.5,0.000012333,0.0013934,0.00013033,2.2332,0.22354,81083.2725208789,0.0006239477
10954,10.1007/s11664-015-4303-6,5134,3(a),6472,x=1,Eu1Zn2Sb2,368,0.000012341,0.0013944,0.00013045,2.2318,0.22462,81030.7106393323,0.0006247872
10954,10.1007/s11664-015-4303-6,5134,3(a),6472,x=1,Eu1Zn2Sb2,368.5,0.000012349,0.0013955,0.00013058,2.2304,0.2257,80978.2168596648,0.0006256725
10954,10.1007/s11664-015-4303-6,5134,3(a),6472,x=1,Eu1Zn2Sb2,369,0.000012357,0.0013965,0.0001307,2.2289,0.22678,80925.7910496075,0.0006265422
10954,10.1007/s11664-015-4303-6,5134,3(a),6472,x=1,Eu1Zn2Sb2,369.5,0.000012365,0.0013975,0.00013082,2.2275,0.22786,80873.4330772341,0.000627385
10954,10.1007/s11664-015-4303-6,5134,3(a),6472,x=1,Eu1Zn2Sb2,370,0.000012373,0.0013985,0.00013094,2.2261,0.22894,80821.1428109594,0.0006282287
10954,10.1007/s11664-015-4303-6,5134,3(a),6472,x=1,Eu1Zn2Sb2,370.5,0.000012381,0.0013996,0.00013106,2.2247,0.23002,80768.920119538,0.0006291185
10954,10.1007/s11664-015-4303-6,5134,3(a),6472,x=1,Eu1Zn2Sb2,371,0.000012389,0.0014006,0.00013118,2.2233,0.2311,80716.7648720639,0.0006299645
10954,10.1007/s11664-015-4303-6,5134,3(a),6472,x=1,Eu1Zn2Sb2,371.5,0.000012397,0.0014016,0.0001313,2.2219,0.23218,80664.6769379689,0.0006308115
10954,10.1007/s11664-015-4303-6,5134,3(a),6472,x=1,Eu1Zn2Sb2,372,0.000012405,0.0014027,0.00013142,2.2204,0.23326,80612.6561870214,0.000631733
10954,10.1007/s11664-015-4303-6,5134,3(a),6472,x=1,Eu1Zn2Sb2,372.5,0.000012413,0.0014037,0.00013154,2.219,0.23434,80560.7024893257,0.0006325822
10954,10.1007/s11664-015-4303-6,5134,3(a),6472,x=1,Eu1Zn2Sb2,373,0.000012421,0.0014047,0.00013166,2.2176,0.23542,80508.8157153208,0.0006334325
10954,10.1007/s11664-015-4303-6,5134,3(a),6472,x=1,Eu1Zn2Sb2,373.5,0.000012429,0.0014058,0.00013178,2.2162,0.2365,80456.9957357792,0.000634329
10954,10.1007/s11664-015-4303-6,5134,3(a),6472,x=1,Eu1Zn2Sb2,374,0.000012438,0.0014068,0.0001319,2.2148,0.23758,80398.7779385753,0.0006351815
10954,10.1007/s11664-015-4303-6,5134,3(a),6472,x=1,Eu1Zn2Sb2,374.5,0.000012446,0.0014078,0.00013202,2.2133,0.23866,80347.0994697091,0.0006360638
10954,10.1007/s11664-015-4303-6,5134,3(a),6472,x=1,Eu1Zn2Sb2,375,0.000012454,0.0014089,0.00013214,2.2119,0.23974,80295.4873936085,0.0006369637
10954,10.1007/s11664-015-4303-6,5134,3(a),6472,x=1,Eu1Zn2Sb2,375.5,0.000012462,0.0014099,0.00013225,2.2105,0.24082,80243.9415824105,0.0006378195
10954,10.1007/s11664-015-4303-6,5134,3(a),6472,x=1,Eu1Zn2Sb2,376,0.00001247,0.0014109,0.00013237,2.2091,0.2419,80192.4619085806,0.0006386764
10954,10.1007/s11664-015-4303-6,5134,3(a),6472,x=1,Eu1Zn2Sb2,376.5,0.000012478,0.0014119,0.00013249,2.2077,0.24298,80141.048244911,0.0006395344
10954,10.1007/s11664-015-4303-6,5134,3(a),6472,x=1,Eu1Zn2Sb2,377,0.000012486,0.001413,0.00013261,2.2063,0.24405,80089.7004645203,0.0006404387
10954,10.1007/s11664-015-4303-6,5134,3(a),6472,x=1,Eu1Zn2Sb2,377.5,0.000012494,0.001414,0.00013273,2.2048,0.24513,80038.4184408516,0.000641328
10954,10.1007/s11664-015-4303-6,5134,3(a),6472,x=1,Eu1Zn2Sb2,378,0.000012502,0.001415,0.00013285,2.2034,0.24621,79987.2020476724,0.0006421893
10954,10.1007/s11664-015-4303-6,5134,3(a),6472,x=1,Eu1Zn2Sb2,378.5,0.00001251,0.0014161,0.00013296,2.202,0.24729,79936.0511590727,0.0006430972
10954,10.1007/s11664-015-4303-6,5134,3(a),6472,x=1,Eu1Zn2Sb2,379,0.000012518,0.0014171,0.00013308,2.2006,0.24837,79884.9656494648,0.0006439607
10954,10.1007/s11664-015-4303-6,5134,3(a),6472,x=1,Eu1Zn2Sb2,379.5,0.000012526,0.0014181,0.0001332,2.1992,0.24945,79833.9453935814,0.0006448254
10954,10.1007/s11664-015-4303-6,5134,3(a),6472,x=1,Eu1Zn2Sb2,380,0.000012534,0.0014192,0.00013331,2.1977,0.25053,79782.9902664752,0.000645766
10954,10.1007/s11664-015-4303-6,5134,3(a),6472,x=1,Eu1Zn2Sb2,380.5,0.000012542,0.0014202,0.00013343,2.1963,0.25161,79732.1001435178,0.000646633
10954,10.1007/s11664-015-4303-6,5134,3(a),6472,x=1,Eu1Zn2Sb2,381,0.00001255,0.0014212,0.00013355,2.1949,0.25269,79681.2749003984,0.000647501
10954,10.1007/s11664-015-4303-6,5134,3(a),6472,x=1,Eu1Zn2Sb2,381.5,0.000012558,0.0014223,0.00013366,2.1935,0.25377,79630.5144131231,0.0006484158
10954,10.1007/s11664-015-4303-6,5134,3(a),6472,x=1,Eu1Zn2Sb2,382,0.000012566,0.0014233,0.00013378,2.1921,0.25485,79579.8185580137,0.0006492861
10954,10.1007/s11664-015-4303-6,5134,3(a),6472,x=1,Eu1Zn2Sb2,382.5,0.000012574,0.0014243,0.0001339,2.1907,0.25593,79529.1872117067,0.0006501575
10954,10.1007/s11664-015-4303-6,5134,3(a),6472,x=1,Eu1Zn2Sb2,383,0.000012582,0.0014253,0.00013401,2.1892,0.25701,79478.6202511524,0.0006510597
10954,10.1007/s11664-015-4303-6,5134,3(a),6472,x=1,Eu1Zn2Sb2,383.5,0.00001259,0.0014264,0.00013413,2.1878,0.25809,79428.117553614,0.0006519792
10954,10.1007/s11664-015-4303-6,5134,3(a),6472,x=1,Eu1Zn2Sb2,384,0.000012598,0.0014274,0.00013424,2.1864,0.25917,79377.6789966661,0.000652854
10954,10.1007/s11664-015-4303-6,5134,3(a),6472,x=1,Eu1Zn2Sb2,384.5,0.000012606,0.0014284,0.00013436,2.185,0.26025,79327.3044581945,0.00065373
10954,10.1007/s11664-015-4303-6,5134,3(a),6472,x=1,Eu1Zn2Sb2,385,0.000012614,0.0014295,0.00013447,2.1836,0.26133,79276.9938163945,0.0006546529
10954,10.1007/s11664-015-4303-6,5134,3(a),6472,x=1,Eu1Zn2Sb2,385.5,0.000012622,0.0014305,0.00013459,2.1821,0.26241,79226.7469497702,0.0006555612
10954,10.1007/s11664-015-4303-6,5134,3(a),6472,x=1,Eu1Zn2Sb2,386,0.00001263,0.0014315,0.0001347,2.1807,0.26349,79176.5637371338,0.0006564406
10954,10.1007/s11664-015-4303-6,5134,3(a),6472,x=1,Eu1Zn2Sb2,386.5,0.000012638,0.0014326,0.00013482,2.1793,0.26457,79126.4440576041,0.000657367
10954,10.1007/s11664-015-4303-6,5134,3(a),6472,x=1,Eu1Zn2Sb2,387,0.000012646,0.0014336,0.00013493,2.1779,0.26565,79076.3877906057,0.0006582488
10954,10.1007/s11664-015-4303-6,5134,3(a),6472,x=1,Eu1Zn2Sb2,387.5,0.000012654,0.0014346,0.00013505,2.1765,0.26673,79026.3948158685,0.0006591316
10954,10.1007/s11664-015-4303-6,5134,3(a),6472,x=1,Eu1Zn2Sb2,388,0.000012662,0.0014357,0.00013516,2.1751,0.26781,78976.465013426,0.0006600616
10954,10.1007/s11664-015-4303-6,5134,3(a),6472,x=1,Eu1Zn2Sb2,388.5,0.00001267,0.0014367,0.00013528,2.1736,0.26889,78926.5982636148,0.0006609772
10954,10.1007/s11664-015-4303-6,5134,3(a),6472,x=1,Eu1Zn2Sb2,389,0.000012679,0.0014377,0.00013539,2.1722,0.26997,78870.5733890685,0.0006618635
10954,10.1007/s11664-015-4303-6,5134,3(a),6472,x=1,Eu1Zn2Sb2,389.5,0.000012687,0.0014387,0.0001355,2.1708,0.27105,78820.8402301568,0.0006627511
10954,10.1007/s11664-015-4303-6,5134,3(a),6472,x=1,Eu1Zn2Sb2,390,0.000012695,0.0014398,0.00013562,2.1694,0.27213,78771.1697518708,0.0006636858
10954,10.1007/s11664-015-4303-6,5134,3(a),6472,x=1,Eu1Zn2Sb2,390.5,0.000012703,0.0014408,0.00013573,2.168,0.27321,78721.5618357868,0.0006645756
10954,10.1007/s11664-015-4303-6,5134,3(a),6472,x=1,Eu1Zn2Sb2,391,0.000012711,0.0014418,0.00013584,2.1665,0.27429,78672.0163637794,0.0006654973
10954,10.1007/s11664-015-4303-6,5134,3(a),6472,x=1,Eu1Zn2Sb2,391.5,0.000012719,0.0014429,0.00013596,2.1651,0.27537,78622.5332180203,0.0006664357
10954,10.1007/s11664-015-4303-6,5134,3(a),6472,x=1,Eu1Zn2Sb2,392,0.000012727,0.0014439,0.00013607,2.1637,0.27645,78573.1122809775,0.0006673291
10954,10.1007/s11664-015-4303-6,5134,3(a),6472,x=1,Eu1Zn2Sb2,392.5,0.000012735,0.0014449,0.00013618,2.1623,0.27753,78523.7534354142,0.0006682237
10954,10.1007/s11664-015-4303-6,5134,3(a),6472,x=1,Eu1Zn2Sb2,393,0.000012743,0.001446,0.0001363,2.1609,0.27861,78474.4565643883,0.0006691656
10954,10.1007/s11664-015-4303-6,5134,3(a),6472,x=1,Eu1Zn2Sb2,393.5,0.000012751,0.001447,0.00013641,2.1595,0.27969,78425.2215512509,0.0006700625
10954,10.1007/s11664-015-4303-6,5134,3(a),6472,x=1,Eu1Zn2Sb2,394,0.000012759,0.001448,0.00013652,2.158,0.28076,78376.0482796458,0.0006709917
10954,10.1007/s11664-015-4303-6,5134,3(a),6472,x=1,Eu1Zn2Sb2,394.5,0.000012767,0.0014491,0.00013663,2.1566,0.28184,78326.9366335083,0.0006719373
10954,10.1007/s11664-015-4303-6,5134,3(a),6472,x=1,Eu1Zn2Sb2,395,0.000012775,0.0014501,0.00013675,2.1552,0.28292,78277.8864970646,0.0006728378
10954,10.1007/s11664-015-4303-6,5134,3(a),6472,x=1,Eu1Zn2Sb2,395.5,0.000012783,0.0014511,0.00013686,2.1538,0.284,78228.8977548306,0.0006737394
10954,10.1007/s11664-015-4303-6,5134,3(a),6472,x=1,Eu1Zn2Sb2,396,0.000012791,0.0014521,0.00013697,2.1524,0.28508,78179.9702916113,0.0006746423
10954,10.1007/s11664-015-4303-6,5134,3(a),6472,x=1,Eu1Zn2Sb2,396.5,0.000012799,0.0014532,0.00013708,2.1509,0.28616,78131.1039924994,0.0006756242
10954,10.1007/s11664-015-4303-6,5134,3(a),6472,x=1,Eu1Zn2Sb2,397,0.000012807,0.0014542,0.00013719,2.1495,0.28724,78082.298742875,0.0006765294
10954,10.1007/s11664-015-4303-6,5134,3(a),6472,x=1,Eu1Zn2Sb2,397.5,0.000012815,0.0014552,0.0001373,2.1481,0.28832,78033.5544284042,0.0006774359
10954,10.1007/s11664-015-4303-6,5134,3(a),6472,x=1,Eu1Zn2Sb2,398,0.000012823,0.0014563,0.00013742,2.1467,0.2894,77984.8709350386,0.0006783901
10954,10.1007/s11664-015-4303-6,5134,3(a),6472,x=1,Eu1Zn2Sb2,398.5,0.000012831,0.0014573,0.00013753,2.1453,0.29048,77936.2481490141,0.0006792989
10954,10.1007/s11664-015-4303-6,5134,3(a),6472,x=1,Eu1Zn2Sb2,399,0.000012839,0.0014583,0.00013764,2.1439,0.29156,77887.6859568502,0.000680209
10954,10.1007/s11664-015-4303-6,5134,3(a),6472,x=1,Eu1Zn2Sb2,399.5,0.000012847,0.0014594,0.00013775,2.1424,0.29264,77839.1842453491,0.0006811987
10954,10.1007/s11664-015-4303-6,5134,3(a),6472,x=1,Eu1Zn2Sb2,400,0.000012855,0.0014604,0.00013786,2.141,0.29372,77790.7429015947,0.0006821112
10954,10.1007/s11664-015-4303-6,5134,3(a),6472,x=1,Eu1Zn2Sb2,400.5,0.000012863,0.0014614,0.00013797,2.1396,0.2948,77742.3618129519,0.0006830249
10954,10.1007/s11664-015-4303-6,5134,3(a),6472,x=1,Eu1Zn2Sb2,401,0.000012871,0.0014625,0.00013808,2.1382,0.29588,77694.0408670655,0.0006839865
10954,10.1007/s11664-015-4303-6,5134,3(a),6472,x=1,Eu1Zn2Sb2,401.5,0.000012879,0.0014635,0.00013819,2.1368,0.29696,77645.7799518596,0.0006849027
10954,10.1007/s11664-015-4303-6,5134,3(a),6472,x=1,Eu1Zn2Sb2,402,0.000012887,0.0014645,0.0001383,2.1353,0.29804,77597.5789555366,0.0006858521
10954,10.1007/s11664-015-4303-6,5134,3(a),6472,x=1,Eu1Zn2Sb2,402.5,0.000012895,0.0014655,0.00013841,2.1339,0.29912,77549.4377665762,0.0006867707
10954,10.1007/s11664-015-4303-6,5134,3(a),6472,x=1,Eu1Zn2Sb2,403,0.000012903,0.0014666,0.00013852,2.1325,0.3002,77501.3562737348,0.0006877374
10954,10.1007/s11664-015-4303-6,5134,3(a),6472,x=1,Eu1Zn2Sb2,403.5,0.000012911,0.0014676,0.00013863,2.1311,0.30128,77453.3343660445,0.0006886584
10954,10.1007/s11664-015-4303-6,5134,3(a),6472,x=1,Eu1Zn2Sb2,404,0.00001292,0.0014686,0.00013874,2.1297,0.30236,77399.3808049536,0.0006895807
10954,10.1007/s11664-015-4303-6,5134,3(a),6472,x=1,Eu1Zn2Sb2,404.5,0.000012928,0.0014697,0.00013885,2.1283,0.30344,77351.4851485149,0.0006905511
10954,10.1007/s11664-015-4303-6,5134,3(a),6472,x=1,Eu1Zn2Sb2,405,0.000012936,0.0014707,0.00013896,2.1268,0.30452,77303.6487322202,0.0006915084
10954,10.1007/s11664-015-4303-6,5134,3(a),6472,x=1,Eu1Zn2Sb2,405.5,0.000012944,0.0014717,0.00013907,2.1254,0.3056,77255.8714462299,0.0006924344
10954,10.1007/s11664-015-4303-6,5134,3(a),6472,x=1,Eu1Zn2Sb2,406,0.000012952,0.0014728,0.00013918,2.124,0.30668,77208.1531809759,0.0006934087
10954,10.1007/s11664-015-4303-6,5134,3(a),6472,x=1,Eu1Zn2Sb2,406.5,0.00001296,0.0014738,0.00013929,2.1226,0.30776,77160.4938271605,0.0006943371
10954,10.1007/s11664-015-4303-6,5134,3(a),6472,x=1,Eu1Zn2Sb2,407,0.000012968,0.0014748,0.0001394,2.1212,0.30884,77112.8932757557,0.0006952668
10954,10.1007/s11664-015-4303-6,5134,3(a),6472,x=1,Eu1Zn2Sb2,407.5,0.000012976,0.0014759,0.00013951,2.1197,0.30992,77065.3514180025,0.0006962778
10954,10.1007/s11664-015-4303-6,5134,3(a),6472,x=1,Eu1Zn2Sb2,408,0.000012984,0.0014769,0.00013962,2.1183,0.311,77017.8681454097,0.00069721
10954,10.1007/s11664-015-4303-6,5134,3(a),6472,x=1,Eu1Zn2Sb2,408.5,0.000012992,0.0014779,0.00013973,2.1169,0.31208,76970.4433497537,0.0006981435
10954,10.1007/s11664-015-4303-6,5134,3(a),6472,x=1,Eu1Zn2Sb2,409,0.000013,0.0014789,0.00013984,2.1155,0.31316,76923.0769230769,0.0006990782
10954,10.1007/s11664-015-4303-6,5134,3(a),6472,x=1,Eu1Zn2Sb2,409.5,0.000013008,0.00148,0.00013994,2.1141,0.31424,76875.7687576876,0.0007000615
10954,10.1007/s11664-015-4303-6,5134,3(a),6472,x=1,Eu1Zn2Sb2,410,0.000013016,0.001481,0.00014005,2.1127,0.31532,76828.5187461586,0.0007009987
10954,10.1007/s11664-015-4303-6,5134,3(a),6472,x=1,Eu1Zn2Sb2,410.5,0.000013024,0.001482,0.00014016,2.1112,0.3164,76781.3267813268,0.0007019704
10954,10.1007/s11664-015-4303-6,5134,3(a),6472,x=1,Eu1Zn2Sb2,411,0.000013032,0.0014831,0.00014027,2.1098,0.31748,76734.1927562922,0.0007029576
10954,10.1007/s11664-015-4303-6,5134,3(a),6472,x=1,Eu1Zn2Sb2,411.5,0.00001304,0.0014841,0.00014038,2.1084,0.31855,76687.1165644172,0.0007038987
10954,10.1007/s11664-015-4303-6,5134,3(a),6472,x=1,Eu1Zn2Sb2,412,0.000013048,0.0014851,0.00014049,2.107,0.31963,76640.0980993256,0.000704841
10954,10.1007/s11664-015-4303-6,5134,3(a),6472,x=1,Eu1Zn2Sb2,412.5,0.000013056,0.0014862,0.00014059,2.1056,0.32071,76593.137254902,0.0007058321
10954,10.1007/s11664-015-4303-6,5134,3(a),6472,x=1,Eu1Zn2Sb2,413,0.000013064,0.0014872,0.0001407,2.1041,0.32179,76546.2339252909,0.0007068105
10954,10.1007/s11664-015-4303-6,5134,3(a),6472,x=1,Eu1Zn2Sb2,413.5,0.000013072,0.0014882,0.00014081,2.1027,0.32287,76499.388004896,0.0007077567
10954,10.1007/s11664-015-4303-6,5134,3(a),6472,x=1,Eu1Zn2Sb2,414,0.00001308,0.0014893,0.00014092,2.1013,0.32395,76452.5993883792,0.0007087517
10954,10.1007/s11664-015-4303-6,5134,3(a),6472,x=1,Eu1Zn2Sb2,414.5,0.000013088,0.0014903,0.00014103,2.0999,0.32503,76405.8679706601,0.0007097005
10954,10.1007/s11664-015-4303-6,5134,3(a),6472,x=1,Eu1Zn2Sb2,415,0.000013096,0.0014913,0.00014113,2.0985,0.32611,76359.1936469151,0.0007106505
10954,10.1007/s11664-015-4303-6,5134,3(a),6472,x=1,Eu1Zn2Sb2,415.5,0.000013104,0.0014923,0.00014124,2.0971,0.32719,76312.5763125763,0.0007116017
10954,10.1007/s11664-015-4303-6,5134,3(a),6472,x=1,Eu1Zn2Sb2,416,0.000013112,0.0014934,0.00014135,2.0956,0.32827,76266.0158633313,0.000712636
10954,10.1007/s11664-015-4303-6,5134,3(a),6472,x=1,Eu1Zn2Sb2,416.5,0.00001312,0.0014944,0.00014146,2.0942,0.32935,76219.5121951219,0.0007135899
10954,10.1007/s11664-015-4303-6,5134,3(a),6472,x=1,Eu1Zn2Sb2,417,0.000013128,0.0014954,0.00014156,2.0928,0.33043,76173.0652041438,0.0007145451
10954,10.1007/s11664-015-4303-6,5134,3(a),6472,x=1,Eu1Zn2Sb2,417.5,0.000013136,0.0014965,0.00014167,2.0914,0.33151,76126.6747868453,0.0007155494
10954,10.1007/s11664-015-4303-6,5134,3(a),6472,x=1,Eu1Zn2Sb2,418,0.000013144,0.0014975,0.00014178,2.09,0.33259,76080.340839927,0.0007165072
10954,10.1007/s11664-015-4303-6,5134,3(a),6472,x=1,Eu1Zn2Sb2,418.5,0.000013153,0.0014985,0.00014188,2.0885,0.33367,76028.2825210978,0.0007175006
10954,10.1007/s11664-015-4303-6,5134,3(a),6472,x=1,Eu1Zn2Sb2,419,0.000013161,0.0014996,0.00014199,2.0871,0.33475,75982.0682318973,0.0007185089
10954,10.1007/s11664-015-4303-6,5134,3(a),6472,x=1,Eu1Zn2Sb2,419.5,0.000013169,0.0015006,0.0001421,2.0857,0.33583,75935.9100918825,0.0007194707
10954,10.1007/s11664-015-4303-6,5134,3(a),6472,x=1,Eu1Zn2Sb2,420,0.000013177,0.0015016,0.0001422,2.0843,0.33691,75889.8079987858,0.0007204337
10954,10.1007/s11664-015-4303-6,5134,3(a),6472,x=1,Eu1Zn2Sb2,420.5,0.000013185,0.0015027,0.00014231,2.0829,0.33799,75843.7618505878,0.0007214461
10954,10.1007/s11664-015-4303-6,5134,3(a),6472,x=1,Eu1Zn2Sb2,421,0.000013193,0.0015037,0.00014242,2.0815,0.33907,75797.7715455166,0.0007224117
10954,10.1007/s11664-015-4303-6,5134,3(a),6472,x=1,Eu1Zn2Sb2,421.5,0.000013201,0.0015047,0.00014252,2.08,0.34015,75751.8369820468,0.0007234135
10954,10.1007/s11664-015-4303-6,5134,3(a),6472,x=1,Eu1Zn2Sb2,422,0.000013209,0.0015057,0.00014263,2.0786,0.34123,75705.9580588992,0.0007243818
10954,10.1007/s11664-015-4303-6,5134,3(a),6472,x=1,Eu1Zn2Sb2,422.5,0.000013217,0.0015068,0.00014274,2.0772,0.34231,75660.1346750397,0.0007253996
10954,10.1007/s11664-015-4303-6,5134,3(a),6472,x=1,Eu1Zn2Sb2,423,0.000013225,0.0015078,0.00014284,2.0758,0.34339,75614.3667296786,0.0007263706
10954,10.1007/s11664-015-4303-6,5134,3(a),6472,x=1,Eu1Zn2Sb2,423.5,0.000013233,0.0015088,0.00014295,2.0744,0.34447,75568.6541222701,0.0007273428
10954,10.1007/s11664-015-4303-6,5134,3(a),6472,x=1,Eu1Zn2Sb2,424,0.000013241,0.0015099,0.00014306,2.0729,0.34555,75522.9967525111,0.0007283998
10954,10.1007/s11664-015-4303-6,5134,3(a),6472,x=1,Eu1Zn2Sb2,424.5,0.000013249,0.0015109,0.00014316,2.0715,0.34663,75477.3945203412,0.0007293748
10954,10.1007/s11664-015-4303-6,5134,3(a),6472,x=1,Eu1Zn2Sb2,425,0.000013257,0.0015119,0.00014327,2.0701,0.34771,75431.847325941,0.0007303512
10954,10.1007/s11664-015-4303-6,5134,3(a),6472,x=1,Eu1Zn2Sb2,425.5,0.000013265,0.001513,0.00014337,2.0687,0.34879,75386.3550697324,0.0007313772
10954,10.1007/s11664-015-4303-6,5134,3(a),6472,x=1,Eu1Zn2Sb2,426,0.000013273,0.001514,0.00014348,2.0673,0.34987,75340.917652377,0.0007323562
10954,10.1007/s11664-015-4303-6,5134,3(a),6472,x=1,Eu1Zn2Sb2,426.5,0.000013281,0.001515,0.00014358,2.0659,0.35095,75295.534974776,0.0007333366
10954,10.1007/s11664-015-4303-6,5134,3(a),6472,x=1,Eu1Zn2Sb2,427,0.000013289,0.0015161,0.00014369,2.0644,0.35203,75250.2069380691,0.0007344022
10954,10.1007/s11664-015-4303-6,5134,3(a),6472,x=1,Eu1Zn2Sb2,427.5,0.000013297,0.0015171,0.0001438,2.063,0.35311,75204.9334436339,0.0007353854
10954,10.1007/s11664-015-4303-6,5134,3(a),6472,x=1,Eu1Zn2Sb2,428,0.000013305,0.0015181,0.0001439,2.0616,0.35419,75159.7143930853,0.0007363698
10954,10.1007/s11664-015-4303-6,5134,3(a),6472,x=1,Eu1Zn2Sb2,428.5,0.000013313,0.0015191,0.00014401,2.0602,0.35527,75114.5496882746,0.0007373556
10954,10.1007/s11664-015-4303-6,5134,3(a),6472,x=1,Eu1Zn2Sb2,429,0.000013321,0.0015202,0.00014411,2.0588,0.35634,75069.4392312889,0.0007383913
10954,10.1007/s11664-015-4303-6,5134,3(a),6472,x=1,Eu1Zn2Sb2,429.5,0.000013329,0.0015212,0.00014422,2.0573,0.35742,75024.3829244504,0.0007394157
10954,10.1007/s11664-015-4303-6,5134,3(a),6472,x=1,Eu1Zn2Sb2,430,0.000013337,0.0015222,0.00014432,2.0559,0.3585,74979.3806703157,0.0007404057
10954,10.1007/s11664-015-4303-6,5134,3(a),6472,x=1,Eu1Zn2Sb2,430.5,0.000013345,0.0015233,0.00014443,2.0545,0.35958,74934.4323716748,0.0007414456
10954,10.1007/s11664-015-4303-6,5134,3(a),6472,x=1,Eu1Zn2Sb2,431,0.000013353,0.0015243,0.00014453,2.0531,0.36066,74889.537931551,0.0007424383
10954,10.1007/s11664-015-4303-6,5134,3(a),6472,x=1,Eu1Zn2Sb2,431.5,0.000013361,0.0015253,0.00014464,2.0517,0.36174,74844.6972531996,0.0007434323
10954,10.1007/s11664-015-4303-6,5134,3(a),6472,x=1,Eu1Zn2Sb2,432,0.000013369,0.0015264,0.00014474,2.0503,0.36282,74799.9102401077,0.0007444764
10954,10.1007/s11664-015-4303-6,5134,3(a),6472,x=1,Eu1Zn2Sb2,432.5,0.000013377,0.0015274,0.00014485,2.0488,0.3639,74755.1767959931,0.0007455096
10954,10.1007/s11664-015-4303-6,5134,3(a),6472,x=1,Eu1Zn2Sb2,433,0.000013385,0.0015284,0.00014495,2.0474,0.36498,74710.4968248039,0.0007465078