sid,DOI,figureid,fignum,sampleid,samplename,composition,Temperature,Electrical resistivity,Power factor,Seebeck coefficient,Thermal conductivity,ZT,Electrical conductivity,Figure of merit Z
73,10.1016/j.actamat.2015.04.023,4591,3(a),5859,x=0.0125,Mg2.9875Na0.0125Sb2,349.5,0.000039927,0.00028592,0.000098507,1.6259,0.062586,25045.7084178626,0.0001758534
73,10.1016/j.actamat.2015.04.023,4591,3(a),5859,x=0.0125,Mg2.9875Na0.0125Sb2,350,0.000039934,0.00028652,0.000098618,1.625,0.063208,25041.3181749887,0.00017632
73,10.1016/j.actamat.2015.04.023,4591,3(a),5859,x=0.0125,Mg2.9875Na0.0125Sb2,350.5,0.000039941,0.00028713,0.000098729,1.6241,0.063831,25036.9294709697,0.0001767933
73,10.1016/j.actamat.2015.04.023,4591,3(a),5859,x=0.0125,Mg2.9875Na0.0125Sb2,351,0.000039947,0.00028774,0.000098841,1.6232,0.064453,25033.1689488572,0.0001772671
73,10.1016/j.actamat.2015.04.023,4591,3(a),5859,x=0.0125,Mg2.9875Na0.0125Sb2,351.5,0.000039954,0.00028835,0.000098952,1.6223,0.065075,25028.7831005657,0.0001777415
73,10.1016/j.actamat.2015.04.023,4591,3(a),5859,x=0.0125,Mg2.9875Na0.0125Sb2,352,0.00003996,0.00028895,0.000099063,1.6214,0.065698,25025.025025025,0.0001782102
73,10.1016/j.actamat.2015.04.023,4591,3(a),5859,x=0.0125,Mg2.9875Na0.0125Sb2,352.5,0.000039967,0.00028956,0.000099174,1.6205,0.06632,25020.6420296745,0.0001786856
73,10.1016/j.actamat.2015.04.023,4591,3(a),5859,x=0.0125,Mg2.9875Na0.0125Sb2,353,0.000039974,0.00029017,0.000099285,1.6196,0.066943,25016.2605693701,0.0001791615
73,10.1016/j.actamat.2015.04.023,4591,3(a),5859,x=0.0125,Mg2.9875Na0.0125Sb2,353.5,0.00003998,0.00029078,0.000099396,1.6187,0.067565,25012.5062531266,0.000179638
73,10.1016/j.actamat.2015.04.023,4591,3(a),5859,x=0.0125,Mg2.9875Na0.0125Sb2,354,0.000039987,0.00029138,0.000099508,1.6177,0.068187,25008.1276414835,0.0001801199
73,10.1016/j.actamat.2015.04.023,4591,3(a),5859,x=0.0125,Mg2.9875Na0.0125Sb2,354.5,0.000039993,0.00029199,0.000099619,1.6168,0.06881,25004.375765759,0.0001805975
73,10.1016/j.actamat.2015.04.023,4591,3(a),5859,x=0.0125,Mg2.9875Na0.0125Sb2,355,0.00004,0.0002926,0.00009973,1.6159,0.069432,25000,0.0001810756
73,10.1016/j.actamat.2015.04.023,4591,3(a),5859,x=0.0125,Mg2.9875Na0.0125Sb2,355.5,0.000040007,0.00029321,0.000099841,1.615,0.070054,24995.625765491,0.0001815542
73,10.1016/j.actamat.2015.04.023,4591,3(a),5859,x=0.0125,Mg2.9875Na0.0125Sb2,356,0.000040013,0.00029381,0.000099952,1.6141,0.070677,24991.8776397671,0.0001820271
73,10.1016/j.actamat.2015.04.023,4591,3(a),5859,x=0.0125,Mg2.9875Na0.0125Sb2,356.5,0.00004002,0.00029442,0.00010006,1.6132,0.071299,24987.5062468766,0.0001825068
73,10.1016/j.actamat.2015.04.023,4591,3(a),5859,x=0.0125,Mg2.9875Na0.0125Sb2,357,0.000040026,0.00029503,0.00010017,1.6123,0.071921,24983.7605556388,0.000182987
73,10.1016/j.actamat.2015.04.023,4591,3(a),5859,x=0.0125,Mg2.9875Na0.0125Sb2,357.5,0.000040033,0.00029564,0.00010029,1.6114,0.072544,24979.3920015987,0.0001834678
73,10.1016/j.actamat.2015.04.023,4591,3(a),5859,x=0.0125,Mg2.9875Na0.0125Sb2,358,0.00004004,0.00029624,0.0001004,1.6105,0.073166,24975.024975025,0.0001839429
73,10.1016/j.actamat.2015.04.023,4591,3(a),5859,x=0.0125,Mg2.9875Na0.0125Sb2,358.5,0.000040046,0.00029685,0.00010051,1.6096,0.073788,24971.2830245218,0.0001844247
73,10.1016/j.actamat.2015.04.023,4591,3(a),5859,x=0.0125,Mg2.9875Na0.0125Sb2,359,0.000040053,0.00029746,0.00010062,1.6087,0.074411,24966.9188325469,0.0001849071
73,10.1016/j.actamat.2015.04.023,4591,3(a),5859,x=0.0125,Mg2.9875Na0.0125Sb2,359.5,0.000040059,0.00029807,0.00010073,1.6078,0.075033,24963.179310517,0.00018539
73,10.1016/j.actamat.2015.04.023,4591,3(a),5859,x=0.0125,Mg2.9875Na0.0125Sb2,360,0.000040066,0.00029867,0.00010084,1.6069,0.075655,24958.8179503819,0.0001858672
73,10.1016/j.actamat.2015.04.023,4591,3(a),5859,x=0.0125,Mg2.9875Na0.0125Sb2,360.5,0.000040073,0.00029928,0.00010095,1.606,0.076278,24954.4581139421,0.0001863512
73,10.1016/j.actamat.2015.04.023,4591,3(a),5859,x=0.0125,Mg2.9875Na0.0125Sb2,361,0.000040079,0.00029989,0.00010106,1.605,0.0769,24950.7223234113,0.0001868474
73,10.1016/j.actamat.2015.04.023,4591,3(a),5859,x=0.0125,Mg2.9875Na0.0125Sb2,361.5,0.000040086,0.0003005,0.00010118,1.6041,0.077522,24946.3653145737,0.0001873325
73,10.1016/j.actamat.2015.04.023,4591,3(a),5859,x=0.0125,Mg2.9875Na0.0125Sb2,362,0.000040093,0.0003011,0.00010129,1.6032,0.078145,24942.0098271519,0.0001878119
73,10.1016/j.actamat.2015.04.023,4591,3(a),5859,x=0.0125,Mg2.9875Na0.0125Sb2,362.5,0.000040099,0.00030171,0.0001014,1.6023,0.078767,24938.2777625377,0.0001882981
73,10.1016/j.actamat.2015.04.023,4591,3(a),5859,x=0.0125,Mg2.9875Na0.0125Sb2,363,0.000040106,0.00030232,0.00010151,1.6014,0.079389,24933.925098489,0.0001887848
73,10.1016/j.actamat.2015.04.023,4591,3(a),5859,x=0.0125,Mg2.9875Na0.0125Sb2,363.5,0.000040112,0.00030293,0.00010162,1.6005,0.080012,24930.1954527324,0.0001892721
73,10.1016/j.actamat.2015.04.023,4591,3(a),5859,x=0.0125,Mg2.9875Na0.0125Sb2,364,0.000040119,0.00030354,0.00010173,1.5996,0.080634,24925.8456093123,0.0001897599
73,10.1016/j.actamat.2015.04.023,4591,3(a),5859,x=0.0125,Mg2.9875Na0.0125Sb2,364.5,0.000040126,0.00030414,0.00010184,1.5987,0.081257,24921.4972835568,0.0001902421
73,10.1016/j.actamat.2015.04.023,4591,3(a),5859,x=0.0125,Mg2.9875Na0.0125Sb2,365,0.000040132,0.00030475,0.00010195,1.5978,0.081879,24917.7713545301,0.000190731
73,10.1016/j.actamat.2015.04.023,4591,3(a),5859,x=0.0125,Mg2.9875Na0.0125Sb2,365.5,0.000040139,0.00030536,0.00010207,1.5969,0.082501,24913.425845188,0.0001912205
73,10.1016/j.actamat.2015.04.023,4591,3(a),5859,x=0.0125,Mg2.9875Na0.0125Sb2,366,0.000040145,0.00030597,0.00010218,1.596,0.083124,24909.7023290572,0.0001917105
73,10.1016/j.actamat.2015.04.023,4591,3(a),5859,x=0.0125,Mg2.9875Na0.0125Sb2,366.5,0.000040152,0.00030657,0.00010229,1.5951,0.083746,24905.3596333931,0.0001921948
73,10.1016/j.actamat.2015.04.023,4591,3(a),5859,x=0.0125,Mg2.9875Na0.0125Sb2,367,0.000040159,0.00030718,0.0001024,1.5942,0.084368,24901.0184516547,0.000192686
73,10.1016/j.actamat.2015.04.023,4591,3(a),5859,x=0.0125,Mg2.9875Na0.0125Sb2,367.5,0.000040165,0.00030779,0.00010251,1.5932,0.084991,24897.2986430972,0.0001931898
73,10.1016/j.actamat.2015.04.023,4591,3(a),5859,x=0.0125,Mg2.9875Na0.0125Sb2,368,0.000040172,0.0003084,0.00010262,1.5923,0.085613,24892.9602708354,0.0001936821
73,10.1016/j.actamat.2015.04.023,4591,3(a),5859,x=0.0125,Mg2.9875Na0.0125Sb2,368.5,0.000040178,0.000309,0.00010273,1.5914,0.086235,24889.2428692319,0.0001941687
73,10.1016/j.actamat.2015.04.023,4591,3(a),5859,x=0.0125,Mg2.9875Na0.0125Sb2,369,0.000040185,0.00030961,0.00010284,1.5905,0.086858,24884.9073037203,0.0001946621
73,10.1016/j.actamat.2015.04.023,4591,3(a),5859,x=0.0125,Mg2.9875Na0.0125Sb2,369.5,0.000040192,0.00031022,0.00010295,1.5896,0.08748,24880.5732484076,0.000195156
73,10.1016/j.actamat.2015.04.023,4591,3(a),5859,x=0.0125,Mg2.9875Na0.0125Sb2,370,0.000040198,0.00031083,0.00010307,1.5887,0.088102,24876.859545251,0.0001956505
73,10.1016/j.actamat.2015.04.023,4591,3(a),5859,x=0.0125,Mg2.9875Na0.0125Sb2,370.5,0.000040205,0.00031143,0.00010318,1.5878,0.088725,24872.5282925009,0.0001961393
73,10.1016/j.actamat.2015.04.023,4591,3(a),5859,x=0.0125,Mg2.9875Na0.0125Sb2,371,0.000040211,0.00031204,0.00010329,1.5869,0.089347,24868.8169903758,0.0001966349
73,10.1016/j.actamat.2015.04.023,4591,3(a),5859,x=0.0125,Mg2.9875Na0.0125Sb2,371.5,0.000040218,0.00031265,0.0001034,1.586,0.089969,24864.4885374708,0.0001971311
73,10.1016/j.actamat.2015.04.023,4591,3(a),5859,x=0.0125,Mg2.9875Na0.0125Sb2,372,0.000040225,0.00031326,0.00010351,1.5851,0.090592,24860.1615910503,0.0001976279
73,10.1016/j.actamat.2015.04.023,4591,3(a),5859,x=0.0125,Mg2.9875Na0.0125Sb2,372.5,0.000040231,0.00031386,0.00010362,1.5842,0.091214,24856.4539782755,0.0001981189
73,10.1016/j.actamat.2015.04.023,4591,3(a),5859,x=0.0125,Mg2.9875Na0.0125Sb2,373,0.000040238,0.00031447,0.00010373,1.5833,0.091836,24852.1298275262,0.0001986168
73,10.1016/j.actamat.2015.04.023,4591,3(a),5859,x=0.0125,Mg2.9875Na0.0125Sb2,373.5,0.000040244,0.00031508,0.00010384,1.5824,0.092459,24848.4246098797,0.0001991153
73,10.1016/j.actamat.2015.04.023,4591,3(a),5859,x=0.0125,Mg2.9875Na0.0125Sb2,374,0.000040251,0.00031569,0.00010396,1.5815,0.093081,24844.1032520931,0.0001996143
73,10.1016/j.actamat.2015.04.023,4591,3(a),5859,x=0.0125,Mg2.9875Na0.0125Sb2,374.5,0.000040258,0.00031629,0.00010407,1.5805,0.093703,24839.7833970888,0.0002001202
73,10.1016/j.actamat.2015.04.023,4591,3(a),5859,x=0.0125,Mg2.9875Na0.0125Sb2,375,0.000040264,0.0003169,0.00010418,1.5796,0.094326,24836.0818597258,0.0002006204
73,10.1016/j.actamat.2015.04.023,4591,3(a),5859,x=0.0125,Mg2.9875Na0.0125Sb2,375.5,0.000040271,0.00031751,0.00010429,1.5787,0.094948,24831.7647935239,0.0002011212
73,10.1016/j.actamat.2015.04.023,4591,3(a),5859,x=0.0125,Mg2.9875Na0.0125Sb2,376,0.000040277,0.00031812,0.0001044,1.5778,0.095571,24828.0656454056,0.0002016225
73,10.1016/j.actamat.2015.04.023,4591,3(a),5859,x=0.0125,Mg2.9875Na0.0125Sb2,376.5,0.000040284,0.00031872,0.00010451,1.5769,0.096193,24823.7513653063,0.0002021181
73,10.1016/j.actamat.2015.04.023,4591,3(a),5859,x=0.0125,Mg2.9875Na0.0125Sb2,377,0.000040291,0.00031933,0.00010462,1.576,0.096815,24819.4385842992,0.0002026206
73,10.1016/j.actamat.2015.04.023,4591,3(a),5859,x=0.0125,Mg2.9875Na0.0125Sb2,377.5,0.000040297,0.00031994,0.00010473,1.5751,0.097438,24815.7431074274,0.0002031236
73,10.1016/j.actamat.2015.04.023,4591,3(a),5859,x=0.0125,Mg2.9875Na0.0125Sb2,378,0.000040304,0.00032055,0.00010484,1.5742,0.09806,24811.4331083763,0.0002036272
73,10.1016/j.actamat.2015.04.023,4591,3(a),5859,x=0.0125,Mg2.9875Na0.0125Sb2,378.5,0.000040311,0.00032115,0.00010496,1.5733,0.098682,24807.1246061869,0.0002041251
73,10.1016/j.actamat.2015.04.023,4591,3(a),5859,x=0.0125,Mg2.9875Na0.0125Sb2,379,0.000040317,0.00032176,0.00010507,1.5724,0.099305,24803.4327950988,0.0002046299
73,10.1016/j.actamat.2015.04.023,4591,3(a),5859,x=0.0125,Mg2.9875Na0.0125Sb2,379.5,0.000040324,0.00032237,0.00010518,1.5715,0.099927,24799.1270707271,0.0002051352
73,10.1016/j.actamat.2015.04.023,4591,3(a),5859,x=0.0125,Mg2.9875Na0.0125Sb2,380,0.00004033,0.00032298,0.00010529,1.5706,0.10055,24795.4376394743,0.0002056412
73,10.1016/j.actamat.2015.04.023,4591,3(a),5859,x=0.0125,Mg2.9875Na0.0125Sb2,380.5,0.000040337,0.00032358,0.0001054,1.5697,0.10117,24791.1346902348,0.0002061413
73,10.1016/j.actamat.2015.04.023,4591,3(a),5859,x=0.0125,Mg2.9875Na0.0125Sb2,381,0.000040344,0.00032419,0.00010551,1.5688,0.10179,24786.833234186,0.0002066484
73,10.1016/j.actamat.2015.04.023,4591,3(a),5859,x=0.0125,Mg2.9875Na0.0125Sb2,381.5,0.00004035,0.0003248,0.00010562,1.5678,0.10242,24783.1474597274,0.0002071693
73,10.1016/j.actamat.2015.04.023,4591,3(a),5859,x=0.0125,Mg2.9875Na0.0125Sb2,382,0.000040357,0.00032541,0.00010573,1.5669,0.10304,24778.8487746859,0.0002076776
73,10.1016/j.actamat.2015.04.023,4591,3(a),5859,x=0.0125,Mg2.9875Na0.0125Sb2,382.5,0.000040363,0.00032602,0.00010585,1.566,0.10366,24775.1653742289,0.0002081865
73,10.1016/j.actamat.2015.04.023,4591,3(a),5859,x=0.0125,Mg2.9875Na0.0125Sb2,383,0.00004037,0.00032662,0.00010596,1.5651,0.10428,24770.869457518,0.0002086895
73,10.1016/j.actamat.2015.04.023,4591,3(a),5859,x=0.0125,Mg2.9875Na0.0125Sb2,383.5,0.000040377,0.00032723,0.00010607,1.5642,0.10491,24766.5750303391,0.0002091996
73,10.1016/j.actamat.2015.04.023,4591,3(a),5859,x=0.0125,Mg2.9875Na0.0125Sb2,384,0.000040383,0.00032784,0.00010618,1.5633,0.10553,24762.8952777159,0.0002097102
73,10.1016/j.actamat.2015.04.023,4591,3(a),5859,x=0.0125,Mg2.9875Na0.0125Sb2,384.5,0.00004039,0.00032845,0.00010629,1.5624,0.10615,24758.6036147561,0.0002102215
73,10.1016/j.actamat.2015.04.023,4591,3(a),5859,x=0.0125,Mg2.9875Na0.0125Sb2,385,0.000040396,0.00032905,0.0001064,1.5615,0.10677,24754.9262303198,0.0002107269
73,10.1016/j.actamat.2015.04.023,4591,3(a),5859,x=0.0125,Mg2.9875Na0.0125Sb2,385.5,0.000040403,0.00032966,0.00010651,1.5606,0.1074,24750.6373289112,0.0002112393
73,10.1016/j.actamat.2015.04.023,4591,3(a),5859,x=0.0125,Mg2.9875Na0.0125Sb2,386,0.00004041,0.00033027,0.00010662,1.5597,0.10802,24746.3499133878,0.0002117523
73,10.1016/j.actamat.2015.04.023,4591,3(a),5859,x=0.0125,Mg2.9875Na0.0125Sb2,386.5,0.000040416,0.00033088,0.00010674,1.5588,0.10864,24742.6761678543,0.0002122658
73,10.1016/j.actamat.2015.04.023,4591,3(a),5859,x=0.0125,Mg2.9875Na0.0125Sb2,387,0.000040423,0.00033148,0.00010685,1.5579,0.10926,24738.391509784,0.0002127736
73,10.1016/j.actamat.2015.04.023,4591,3(a),5859,x=0.0125,Mg2.9875Na0.0125Sb2,387.5,0.000040429,0.00033209,0.00010696,1.557,0.10988,24734.7201266418,0.0002132884
73,10.1016/j.actamat.2015.04.023,4591,3(a),5859,x=0.0125,Mg2.9875Na0.0125Sb2,388,0.000040436,0.0003327,0.00010707,1.556,0.11051,24730.4382233653,0.0002138175
73,10.1016/j.actamat.2015.04.023,4591,3(a),5859,x=0.0125,Mg2.9875Na0.0125Sb2,388.5,0.000040443,0.00033331,0.00010718,1.5551,0.11113,24726.1578023391,0.0002143335
73,10.1016/j.actamat.2015.04.023,4591,3(a),5859,x=0.0125,Mg2.9875Na0.0125Sb2,389,0.000040449,0.00033391,0.00010729,1.5542,0.11175,24722.4900491978,0.0002148436
73,10.1016/j.actamat.2015.04.023,4591,3(a),5859,x=0.0125,Mg2.9875Na0.0125Sb2,389.5,0.000040456,0.00033452,0.0001074,1.5533,0.11237,24718.2123788808,0.0002153608
73,10.1016/j.actamat.2015.04.023,4591,3(a),5859,x=0.0125,Mg2.9875Na0.0125Sb2,390,0.000040462,0.00033513,0.00010751,1.5524,0.113,24714.5469823538,0.0002158786
73,10.1016/j.actamat.2015.04.023,4591,3(a),5859,x=0.0125,Mg2.9875Na0.0125Sb2,390.5,0.000040469,0.00033574,0.00010762,1.5515,0.11362,24710.2720600954,0.000216397
73,10.1016/j.actamat.2015.04.023,4591,3(a),5859,x=0.0125,Mg2.9875Na0.0125Sb2,391,0.000040476,0.00033634,0.00010774,1.5506,0.11424,24705.9986164641,0.0002169096
73,10.1016/j.actamat.2015.04.023,4591,3(a),5859,x=0.0125,Mg2.9875Na0.0125Sb2,391.5,0.000040482,0.00033695,0.00010785,1.5497,0.11486,24702.3368410652,0.0002174292
73,10.1016/j.actamat.2015.04.023,4591,3(a),5859,x=0.0125,Mg2.9875Na0.0125Sb2,392,0.000040489,0.00033756,0.00010796,1.5488,0.11549,24698.0661414211,0.0002179494
73,10.1016/j.actamat.2015.04.023,4591,3(a),5859,x=0.0125,Mg2.9875Na0.0125Sb2,392.5,0.000040496,0.00033817,0.00010807,1.5479,0.11611,24693.7969182141,0.0002184702
73,10.1016/j.actamat.2015.04.023,4591,3(a),5859,x=0.0125,Mg2.9875Na0.0125Sb2,393,0.000040502,0.00033877,0.00010818,1.547,0.11673,24690.1387585798,0.0002189851
73,10.1016/j.actamat.2015.04.023,4591,3(a),5859,x=0.0125,Mg2.9875Na0.0125Sb2,393.5,0.000040509,0.00033938,0.00010829,1.5461,0.11735,24685.8722752968,0.0002195071
73,10.1016/j.actamat.2015.04.023,4591,3(a),5859,x=0.0125,Mg2.9875Na0.0125Sb2,394,0.000040515,0.00033999,0.0001084,1.5452,0.11798,24682.2164630384,0.0002200298
73,10.1016/j.actamat.2015.04.023,4591,3(a),5859,x=0.0125,Mg2.9875Na0.0125Sb2,394.5,0.000040522,0.0003406,0.00010851,1.5443,0.1186,24677.9527170426,0.000220553
73,10.1016/j.actamat.2015.04.023,4591,3(a),5859,x=0.0125,Mg2.9875Na0.0125Sb2,395,0.000040529,0.0003412,0.00010863,1.5433,0.11922,24673.6904438797,0.0002210847
73,10.1016/j.actamat.2015.04.023,4591,3(a),5859,x=0.0125,Mg2.9875Na0.0125Sb2,395.5,0.000040535,0.00034181,0.00010874,1.5424,0.11984,24670.0382385593,0.0002216092
73,10.1016/j.actamat.2015.04.023,4591,3(a),5859,x=0.0125,Mg2.9875Na0.0125Sb2,396,0.000040542,0.00034242,0.00010885,1.5415,0.12046,24665.7786986335,0.0002221343
73,10.1016/j.actamat.2015.04.023,4591,3(a),5859,x=0.0125,Mg2.9875Na0.0125Sb2,396.5,0.000040548,0.00034303,0.00010896,1.5406,0.12109,24662.128834961,0.00022266
73,10.1016/j.actamat.2015.04.023,4591,3(a),5859,x=0.0125,Mg2.9875Na0.0125Sb2,397,0.000040555,0.00034363,0.00010907,1.5397,0.12171,24657.8720256442,0.0002231798
73,10.1016/j.actamat.2015.04.023,4591,3(a),5859,x=0.0125,Mg2.9875Na0.0125Sb2,397.5,0.000040562,0.00034424,0.00010918,1.5388,0.12233,24653.6166855678,0.0002237068
73,10.1016/j.actamat.2015.04.023,4591,3(a),5859,x=0.0125,Mg2.9875Na0.0125Sb2,398,0.000040568,0.00034485,0.00010929,1.5379,0.12295,24649.9704200355,0.0002242343
73,10.1016/j.actamat.2015.04.023,4591,3(a),5859,x=0.0125,Mg2.9875Na0.0125Sb2,398.5,0.000040575,0.00034546,0.0001094,1.537,0.12358,24645.7178065311,0.0002247625
73,10.1016/j.actamat.2015.04.023,4591,3(a),5859,x=0.0125,Mg2.9875Na0.0125Sb2,399,0.000040581,0.00034606,0.00010951,1.5361,0.1242,24642.0738769375,0.0002252848
73,10.1016/j.actamat.2015.04.023,4591,3(a),5859,x=0.0125,Mg2.9875Na0.0125Sb2,399.5,0.000040588,0.00034667,0.00010963,1.5352,0.12482,24637.8239873854,0.0002258142
73,10.1016/j.actamat.2015.04.023,4591,3(a),5859,x=0.0125,Mg2.9875Na0.0125Sb2,400,0.000040595,0.00034728,0.00010974,1.5343,0.12544,24633.575563493,0.0002263443
73,10.1016/j.actamat.2015.04.023,4591,3(a),5859,x=0.0125,Mg2.9875Na0.0125Sb2,400.5,0.000040601,0.00034789,0.00010985,1.5334,0.12607,24629.9352232704,0.0002268749
73,10.1016/j.actamat.2015.04.023,4591,3(a),5859,x=0.0125,Mg2.9875Na0.0125Sb2,401,0.000040608,0.0003485,0.00010996,1.5325,0.12669,24625.6895193065,0.0002274062
73,10.1016/j.actamat.2015.04.023,4591,3(a),5859,x=0.0125,Mg2.9875Na0.0125Sb2,401.5,0.000040614,0.0003491,0.00011007,1.5315,0.12731,24622.0515093318,0.0002279465
73,10.1016/j.actamat.2015.04.023,4591,3(a),5859,x=0.0125,Mg2.9875Na0.0125Sb2,402,0.000040621,0.00034971,0.00011018,1.5306,0.12793,24617.8085226853,0.000228479
73,10.1016/j.actamat.2015.04.023,4591,3(a),5859,x=0.0125,Mg2.9875Na0.0125Sb2,402.5,0.000040628,0.00035032,0.00011029,1.5297,0.12855,24613.5669981294,0.0002290122
73,10.1016/j.actamat.2015.04.023,4591,3(a),5859,x=0.0125,Mg2.9875Na0.0125Sb2,403,0.000040634,0.00035093,0.0001104,1.5288,0.12918,24609.9325687848,0.000229546
73,10.1016/j.actamat.2015.04.023,4591,3(a),5859,x=0.0125,Mg2.9875Na0.0125Sb2,403.5,0.000040641,0.00035153,0.00011052,1.5279,0.1298,24605.6937575355,0.000230074
73,10.1016/j.actamat.2015.04.023,4591,3(a),5859,x=0.0125,Mg2.9875Na0.0125Sb2,404,0.000040647,0.00035214,0.00011063,1.527,0.13042,24602.0616527665,0.000230609
73,10.1016/j.actamat.2015.04.023,4591,3(a),5859,x=0.0125,Mg2.9875Na0.0125Sb2,404.5,0.000040654,0.00035275,0.00011074,1.5261,0.13104,24597.8255522212,0.0002311447
73,10.1016/j.actamat.2015.04.023,4591,3(a),5859,x=0.0125,Mg2.9875Na0.0125Sb2,405,0.000040661,0.00035336,0.00011085,1.5252,0.13167,24593.5909102088,0.0002316811
73,10.1016/j.actamat.2015.04.023,4591,3(a),5859,x=0.0125,Mg2.9875Na0.0125Sb2,405.5,0.000040667,0.00035396,0.00011096,1.5243,0.13229,24589.9623773576,0.0002322115
73,10.1016/j.actamat.2015.04.023,4591,3(a),5859,x=0.0125,Mg2.9875Na0.0125Sb2,406,0.000040674,0.00035457,0.00011107,1.5234,0.13291,24585.7304420514,0.0002327491
73,10.1016/j.actamat.2015.04.023,4591,3(a),5859,x=0.0125,Mg2.9875Na0.0125Sb2,406.5,0.00004068,0.00035518,0.00011118,1.5225,0.13353,24582.1042281219,0.0002332874
73,10.1016/j.actamat.2015.04.023,4591,3(a),5859,x=0.0125,Mg2.9875Na0.0125Sb2,407,0.000040687,0.00035579,0.00011129,1.5216,0.13416,24577.8749969278,0.0002338262
73,10.1016/j.actamat.2015.04.023,4591,3(a),5859,x=0.0125,Mg2.9875Na0.0125Sb2,407.5,0.000040694,0.00035639,0.00011141,1.5207,0.13478,24573.6472207205,0.0002343592
73,10.1016/j.actamat.2015.04.023,4591,3(a),5859,x=0.0125,Mg2.9875Na0.0125Sb2,408,0.0000407,0.000357,0.00011152,1.5198,0.1354,24570.0245700246,0.0002348993
73,10.1016/j.actamat.2015.04.023,4591,3(a),5859,x=0.0125,Mg2.9875Na0.0125Sb2,408.5,0.000040707,0.00035761,0.00011163,1.5188,0.13602,24565.7994939445,0.0002354556
73,10.1016/j.actamat.2015.04.023,4591,3(a),5859,x=0.0125,Mg2.9875Na0.0125Sb2,409,0.000040714,0.00035822,0.00011174,1.5179,0.13665,24561.5758707079,0.0002359971
73,10.1016/j.actamat.2015.04.023,4591,3(a),5859,x=0.0125,Mg2.9875Na0.0125Sb2,409.5,0.00004072,0.00035882,0.00011185,1.517,0.13727,24557.9567779961,0.0002365326
73,10.1016/j.actamat.2015.04.023,4591,3(a),5859,x=0.0125,Mg2.9875Na0.0125Sb2,410,0.000040727,0.00035943,0.00011196,1.5161,0.13789,24553.7358509097,0.0002370754
73,10.1016/j.actamat.2015.04.023,4591,3(a),5859,x=0.0125,Mg2.9875Na0.0125Sb2,410.5,0.000040733,0.00036004,0.00011207,1.5152,0.13851,24550.1190680775,0.0002376188