sid,DOI,figureid,fignum,sampleid,samplename,composition,Temperature,Electrical resistivity,Power factor,Seebeck coefficient,Thermal conductivity,ZT,Electrical conductivity,Figure of merit Z
10954,10.1007/s11664-015-4303-6,5134,3(a),6471,x=0.9,Ca0.1Eu0.9Zn2Sb2,586,0.00001846,0.0015502,0.0001692,1.8044,0.5267,54171.1809317443,0.0008591221
10954,10.1007/s11664-015-4303-6,5134,3(a),6471,x=0.9,Ca0.1Eu0.9Zn2Sb2,586.5,0.000018475,0.0015509,0.00016929,1.8028,0.52753,54127.198917456,0.0008602729
10954,10.1007/s11664-015-4303-6,5134,3(a),6471,x=0.9,Ca0.1Eu0.9Zn2Sb2,587,0.000018489,0.0015516,0.00016939,1.8013,0.52835,54086.2134241982,0.0008613779
10954,10.1007/s11664-015-4303-6,5134,3(a),6471,x=0.9,Ca0.1Eu0.9Zn2Sb2,587.5,0.000018504,0.0015523,0.00016949,1.7997,0.52917,54042.3692174665,0.0008625326
10954,10.1007/s11664-015-4303-6,5134,3(a),6471,x=0.9,Ca0.1Eu0.9Zn2Sb2,588,0.000018519,0.001553,0.00016959,1.7981,0.53,53998.596036503,0.0008636894
10954,10.1007/s11664-015-4303-6,5134,3(a),6471,x=0.9,Ca0.1Eu0.9Zn2Sb2,588.5,0.000018534,0.0015537,0.00016969,1.7965,0.53082,53954.8937088594,0.0008648483
10954,10.1007/s11664-015-4303-6,5134,3(a),6471,x=0.9,Ca0.1Eu0.9Zn2Sb2,589,0.000018549,0.0015545,0.00016979,1.7949,0.53165,53911.2620626449,0.000866065
10954,10.1007/s11664-015-4303-6,5134,3(a),6471,x=0.9,Ca0.1Eu0.9Zn2Sb2,589.5,0.000018564,0.0015552,0.00016989,1.7934,0.53247,53867.7009265245,0.0008671797
10954,10.1007/s11664-015-4303-6,5134,3(a),6471,x=0.9,Ca0.1Eu0.9Zn2Sb2,590,0.000018578,0.0015559,0.00016999,1.7918,0.53329,53827.107331252,0.0008683447
10954,10.1007/s11664-015-4303-6,5134,3(a),6471,x=0.9,Ca0.1Eu0.9Zn2Sb2,590.5,0.000018593,0.0015566,0.00017008,1.7902,0.53412,53783.6820308718,0.0008695118
10954,10.1007/s11664-015-4303-6,5134,3(a),6471,x=0.9,Ca0.1Eu0.9Zn2Sb2,591,0.000018608,0.0015573,0.00017018,1.7886,0.53494,53740.3267411866,0.000870681
10954,10.1007/s11664-015-4303-6,5134,3(a),6471,x=0.9,Ca0.1Eu0.9Zn2Sb2,591.5,0.000018623,0.001558,0.00017028,1.787,0.53577,53697.0412930247,0.0008718523
10954,10.1007/s11664-015-4303-6,5134,3(a),6471,x=0.9,Ca0.1Eu0.9Zn2Sb2,592,0.000018638,0.0015587,0.00017038,1.7855,0.53659,53653.8255177594,0.0008729768
10954,10.1007/s11664-015-4303-6,5134,3(a),6471,x=0.9,Ca0.1Eu0.9Zn2Sb2,592.5,0.000018653,0.0015594,0.00017048,1.7839,0.53742,53610.6792473061,0.0008741521
10954,10.1007/s11664-015-4303-6,5134,3(a),6471,x=0.9,Ca0.1Eu0.9Zn2Sb2,593,0.000018668,0.0015601,0.00017058,1.7823,0.53824,53567.6023141204,0.0008753296
10954,10.1007/s11664-015-4303-6,5134,3(a),6471,x=0.9,Ca0.1Eu0.9Zn2Sb2,593.5,0.000018683,0.0015608,0.00017068,1.7807,0.53906,53524.5945511963,0.0008765092
10954,10.1007/s11664-015-4303-6,5134,3(a),6471,x=0.9,Ca0.1Eu0.9Zn2Sb2,594,0.000018698,0.0015615,0.00017078,1.7792,0.53989,53481.6557920633,0.0008776416
10954,10.1007/s11664-015-4303-6,5134,3(a),6471,x=0.9,Ca0.1Eu0.9Zn2Sb2,594.5,0.000018713,0.0015622,0.00017087,1.7776,0.54071,53438.785870785,0.0008788254
10954,10.1007/s11664-015-4303-6,5134,3(a),6471,x=0.9,Ca0.1Eu0.9Zn2Sb2,595,0.000018728,0.0015629,0.00017097,1.776,0.54154,53395.9846219564,0.0008800113
10954,10.1007/s11664-015-4303-6,5134,3(a),6471,x=0.9,Ca0.1Eu0.9Zn2Sb2,595.5,0.000018743,0.0015636,0.00017107,1.7744,0.54236,53353.2518807021,0.0008811993
10954,10.1007/s11664-015-4303-6,5134,3(a),6471,x=0.9,Ca0.1Eu0.9Zn2Sb2,596,0.000018758,0.0015643,0.00017117,1.7728,0.54318,53310.5874826741,0.0008823894
10954,10.1007/s11664-015-4303-6,5134,3(a),6471,x=0.9,Ca0.1Eu0.9Zn2Sb2,596.5,0.000018773,0.001565,0.00017127,1.7713,0.54401,53267.9912640494,0.0008835319
10954,10.1007/s11664-015-4303-6,5134,3(a),6471,x=0.9,Ca0.1Eu0.9Zn2Sb2,597,0.000018788,0.0015657,0.00017137,1.7697,0.54483,53225.4630615286,0.0008847262
10954,10.1007/s11664-015-4303-6,5134,3(a),6471,x=0.9,Ca0.1Eu0.9Zn2Sb2,597.5,0.000018803,0.0015665,0.00017147,1.7681,0.54566,53183.0027123331,0.0008859793
10954,10.1007/s11664-015-4303-6,5134,3(a),6471,x=0.9,Ca0.1Eu0.9Zn2Sb2,598,0.000018818,0.0015672,0.00017157,1.7665,0.54648,53140.6100542034,0.000887178
10954,10.1007/s11664-015-4303-6,5134,3(a),6471,x=0.9,Ca0.1Eu0.9Zn2Sb2,598.5,0.000018833,0.0015679,0.00017166,1.7649,0.5473,53098.2849253969,0.0008883789
10954,10.1007/s11664-015-4303-6,5134,3(a),6471,x=0.9,Ca0.1Eu0.9Zn2Sb2,599,0.000018848,0.0015686,0.00017176,1.7634,0.54813,53056.0271646859,0.0008895316
10954,10.1007/s11664-015-4303-6,5134,3(a),6471,x=0.9,Ca0.1Eu0.9Zn2Sb2,599.5,0.000018863,0.0015693,0.00017186,1.7618,0.54895,53013.8366113556,0.0008907367
10954,10.1007/s11664-015-4303-6,5134,3(a),6471,x=0.9,Ca0.1Eu0.9Zn2Sb2,600,0.000018878,0.00157,0.00017196,1.7602,0.54978,52971.7131052018,0.0008919441
10954,10.1007/s11664-015-4303-6,5134,3(a),6471,x=0.9,Ca0.1Eu0.9Zn2Sb2,600.5,0.000018893,0.0015707,0.00017206,1.7586,0.5506,52929.6564865294,0.0008931536
10954,10.1007/s11664-015-4303-6,5134,3(a),6471,x=0.9,Ca0.1Eu0.9Zn2Sb2,601,0.000018908,0.0015714,0.00017216,1.7571,0.55142,52887.6665961498,0.0008943145
10954,10.1007/s11664-015-4303-6,5134,3(a),6471,x=0.9,Ca0.1Eu0.9Zn2Sb2,601.5,0.000018923,0.0015721,0.00017226,1.7555,0.55225,52845.7432753792,0.0008955283
10954,10.1007/s11664-015-4303-6,5134,3(a),6471,x=0.9,Ca0.1Eu0.9Zn2Sb2,602,0.000018938,0.0015728,0.00017236,1.7539,0.55307,52803.8863660365,0.0008967444
10954,10.1007/s11664-015-4303-6,5134,3(a),6471,x=0.9,Ca0.1Eu0.9Zn2Sb2,602.5,0.000018953,0.0015735,0.00017245,1.7523,0.5539,52762.0957104416,0.0008979627
10954,10.1007/s11664-015-4303-6,5134,3(a),6471,x=0.9,Ca0.1Eu0.9Zn2Sb2,603,0.000018968,0.0015742,0.00017255,1.7507,0.55472,52720.3711514129,0.0008991832
10954,10.1007/s11664-015-4303-6,5134,3(a),6471,x=0.9,Ca0.1Eu0.9Zn2Sb2,603.5,0.000018983,0.0015749,0.00017265,1.7492,0.55555,52678.7125322657,0.0009003544
10954,10.1007/s11664-015-4303-6,5134,3(a),6471,x=0.9,Ca0.1Eu0.9Zn2Sb2,604,0.000018998,0.0015756,0.00017275,1.7476,0.55637,52637.1196968102,0.0009015793
10954,10.1007/s11664-015-4303-6,5134,3(a),6471,x=0.9,Ca0.1Eu0.9Zn2Sb2,604.5,0.000019013,0.0015763,0.00017285,1.746,0.55719,52595.5924893494,0.0009028064
10954,10.1007/s11664-015-4303-6,5134,3(a),6471,x=0.9,Ca0.1Eu0.9Zn2Sb2,605,0.000019028,0.001577,0.00017295,1.7444,0.55802,52554.1307546773,0.0009040358
10954,10.1007/s11664-015-4303-6,5134,3(a),6471,x=0.9,Ca0.1Eu0.9Zn2Sb2,605.5,0.000019044,0.0015777,0.00017305,1.7428,0.55884,52509.9768956102,0.0009052674
10954,10.1007/s11664-015-4303-6,5134,3(a),6471,x=0.9,Ca0.1Eu0.9Zn2Sb2,606,0.000019059,0.0015785,0.00017315,1.7413,0.55967,52468.649981636,0.0009065066
10954,10.1007/s11664-015-4303-6,5134,3(a),6471,x=0.9,Ca0.1Eu0.9Zn2Sb2,606.5,0.000019074,0.0015792,0.00017324,1.7397,0.56049,52427.3880675265,0.0009077427
10954,10.1007/s11664-015-4303-6,5134,3(a),6471,x=0.9,Ca0.1Eu0.9Zn2Sb2,607,0.000019089,0.0015799,0.00017334,1.7381,0.56131,52386.1910000524,0.0009089811
10954,10.1007/s11664-015-4303-6,5134,3(a),6471,x=0.9,Ca0.1Eu0.9Zn2Sb2,607.5,0.000019104,0.0015806,0.00017344,1.7365,0.56214,52345.0586264657,0.0009102217
10954,10.1007/s11664-015-4303-6,5134,3(a),6471,x=0.9,Ca0.1Eu0.9Zn2Sb2,608,0.000019119,0.0015813,0.00017354,1.7349,0.56296,52303.9907944976,0.0009114646
10954,10.1007/s11664-015-4303-6,5134,3(a),6471,x=0.9,Ca0.1Eu0.9Zn2Sb2,608.5,0.000019134,0.001582,0.00017364,1.7334,0.56379,52262.9873523571,0.0009126572
10954,10.1007/s11664-015-4303-6,5134,3(a),6471,x=0.9,Ca0.1Eu0.9Zn2Sb2,609,0.00001915,0.0015827,0.00017374,1.7318,0.56461,52219.3211488251,0.0009139046
10954,10.1007/s11664-015-4303-6,5134,3(a),6471,x=0.9,Ca0.1Eu0.9Zn2Sb2,609.5,0.000019165,0.0015834,0.00017384,1.7302,0.56543,52178.4503000261,0.0009151543
10954,10.1007/s11664-015-4303-6,5134,3(a),6471,x=0.9,Ca0.1Eu0.9Zn2Sb2,610,0.00001918,0.0015841,0.00017394,1.7286,0.56626,52137.6433785193,0.0009164063
10954,10.1007/s11664-015-4303-6,5134,3(a),6471,x=0.9,Ca0.1Eu0.9Zn2Sb2,610.5,0.000019195,0.0015848,0.00017403,1.7271,0.56708,52096.9002344361,0.0009176076
10954,10.1007/s11664-015-4303-6,5134,3(a),6471,x=0.9,Ca0.1Eu0.9Zn2Sb2,611,0.00001921,0.0015855,0.00017413,1.7255,0.56791,52056.2207183758,0.0009188641
10954,10.1007/s11664-015-4303-6,5134,3(a),6471,x=0.9,Ca0.1Eu0.9Zn2Sb2,611.5,0.000019226,0.0015862,0.00017423,1.7239,0.56873,52012.8991990014,0.000920123
10954,10.1007/s11664-015-4303-6,5134,3(a),6471,x=0.9,Ca0.1Eu0.9Zn2Sb2,612,0.000019241,0.0015869,0.00017433,1.7223,0.56955,51972.3507094226,0.0009213842
10954,10.1007/s11664-015-4303-6,5134,3(a),6471,x=0.9,Ca0.1Eu0.9Zn2Sb2,612.5,0.000019256,0.0015876,0.00017443,1.7207,0.57038,51931.8653926049,0.0009226478
10954,10.1007/s11664-015-4303-6,5134,3(a),6471,x=0.9,Ca0.1Eu0.9Zn2Sb2,613,0.000019271,0.0015883,0.00017453,1.7192,0.5712,51891.4431010326,0.0009238599
10954,10.1007/s11664-015-4303-6,5134,3(a),6471,x=0.9,Ca0.1Eu0.9Zn2Sb2,613.5,0.000019287,0.001589,0.00017463,1.7176,0.57203,51848.3952921657,0.0009251281
10954,10.1007/s11664-015-4303-6,5134,3(a),6471,x=0.9,Ca0.1Eu0.9Zn2Sb2,614,0.000019302,0.0015897,0.00017473,1.716,0.57285,51808.1027872759,0.0009263986
10954,10.1007/s11664-015-4303-6,5134,3(a),6471,x=0.9,Ca0.1Eu0.9Zn2Sb2,614.5,0.000019317,0.0015905,0.00017482,1.7144,0.57368,51767.8728581043,0.0009277298
10954,10.1007/s11664-015-4303-6,5134,3(a),6471,x=0.9,Ca0.1Eu0.9Zn2Sb2,615,0.000019332,0.0015912,0.00017492,1.7128,0.5745,51727.7053589903,0.0009290051
10954,10.1007/s11664-015-4303-6,5134,3(a),6471,x=0.9,Ca0.1Eu0.9Zn2Sb2,615.5,0.000019348,0.0015919,0.00017502,1.7113,0.57532,51684.9286747984,0.0009302285
10954,10.1007/s11664-015-4303-6,5134,3(a),6471,x=0.9,Ca0.1Eu0.9Zn2Sb2,616,0.000019363,0.0015926,0.00017512,1.7097,0.57615,51644.8897381604,0.0009315085
10954,10.1007/s11664-015-4303-6,5134,3(a),6471,x=0.9,Ca0.1Eu0.9Zn2Sb2,616.5,0.000019378,0.0015933,0.00017522,1.7081,0.57697,51604.9127876974,0.0009327908
10954,10.1007/s11664-015-4303-6,5134,3(a),6471,x=0.9,Ca0.1Eu0.9Zn2Sb2,617,0.000019394,0.001594,0.00017532,1.7065,0.5778,51562.338867691,0.0009340756
10954,10.1007/s11664-015-4303-6,5134,3(a),6471,x=0.9,Ca0.1Eu0.9Zn2Sb2,617.5,0.000019409,0.0015947,0.00017542,1.705,0.57862,51522.4895666959,0.0009353079
10954,10.1007/s11664-015-4303-6,5134,3(a),6471,x=0.9,Ca0.1Eu0.9Zn2Sb2,618,0.000019424,0.0015954,0.00017552,1.7034,0.57944,51482.7018121911,0.0009365974
10954,10.1007/s11664-015-4303-6,5134,3(a),6471,x=0.9,Ca0.1Eu0.9Zn2Sb2,618.5,0.00001944,0.0015961,0.00017561,1.7018,0.58027,51440.329218107,0.0009378893
10954,10.1007/s11664-015-4303-6,5134,3(a),6471,x=0.9,Ca0.1Eu0.9Zn2Sb2,619,0.000019455,0.0015968,0.00017571,1.7002,0.58109,51400.6682086867,0.0009391836
10954,10.1007/s11664-015-4303-6,5134,3(a),6471,x=0.9,Ca0.1Eu0.9Zn2Sb2,619.5,0.00001947,0.0015975,0.00017581,1.6986,0.58192,51361.0683102208,0.0009404804
10954,10.1007/s11664-015-4303-6,5134,3(a),6471,x=0.9,Ca0.1Eu0.9Zn2Sb2,620,0.000019486,0.0015982,0.00017591,1.6971,0.58274,51318.8956173663,0.0009417241
10954,10.1007/s11664-015-4303-6,5134,3(a),6471,x=0.9,Ca0.1Eu0.9Zn2Sb2,620.5,0.000019501,0.0015989,0.00017601,1.6955,0.58356,51279.4215681247,0.0009430257
10954,10.1007/s11664-015-4303-6,5134,3(a),6471,x=0.9,Ca0.1Eu0.9Zn2Sb2,621,0.000019516,0.0015996,0.00017611,1.6939,0.58439,51240.0081984013,0.0009443297
10954,10.1007/s11664-015-4303-6,5134,3(a),6471,x=0.9,Ca0.1Eu0.9Zn2Sb2,621.5,0.000019532,0.0016003,0.00017621,1.6923,0.58521,51198.0339954946,0.0009456361
10954,10.1007/s11664-015-4303-6,5134,3(a),6471,x=0.9,Ca0.1Eu0.9Zn2Sb2,622,0.000019547,0.001601,0.00017631,1.6907,0.58604,51158.7455875582,0.0009469451
10954,10.1007/s11664-015-4303-6,5134,3(a),6471,x=0.9,Ca0.1Eu0.9Zn2Sb2,622.5,0.000019562,0.0016017,0.0001764,1.6892,0.58686,51119.5174317554,0.0009482003
10954,10.1007/s11664-015-4303-6,5134,3(a),6471,x=0.9,Ca0.1Eu0.9Zn2Sb2,623,0.000019578,0.0016025,0.0001765,1.6876,0.58768,51077.7403207682,0.0009495734
10954,10.1007/s11664-015-4303-6,5134,3(a),6471,x=0.9,Ca0.1Eu0.9Zn2Sb2,623.5,0.000019593,0.0016032,0.0001766,1.686,0.58851,51038.6362476395,0.0009508897
10954,10.1007/s11664-015-4303-6,5134,3(a),6471,x=0.9,Ca0.1Eu0.9Zn2Sb2,624,0.000019609,0.0016039,0.0001767,1.6844,0.58933,50996.9911775205,0.0009522085
10954,10.1007/s11664-015-4303-6,5134,3(a),6471,x=0.9,Ca0.1Eu0.9Zn2Sb2,624.5,0.000019624,0.0016046,0.0001768,1.6828,0.59016,50958.0105992662,0.0009535298
10954,10.1007/s11664-015-4303-6,5134,3(a),6471,x=0.9,Ca0.1Eu0.9Zn2Sb2,625,0.000019639,0.0016053,0.0001769,1.6813,0.59098,50919.0895666786,0.0009547969
10954,10.1007/s11664-015-4303-6,5134,3(a),6471,x=0.9,Ca0.1Eu0.9Zn2Sb2,625.5,0.000019655,0.001606,0.000177,1.6797,0.59181,50877.6392775375,0.0009561231
10954,10.1007/s11664-015-4303-6,5134,3(a),6471,x=0.9,Ca0.1Eu0.9Zn2Sb2,626,0.00001967,0.0016067,0.0001771,1.6781,0.59263,50838.8408744281,0.0009574519
10954,10.1007/s11664-015-4303-6,5134,3(a),6471,x=0.9,Ca0.1Eu0.9Zn2Sb2,626.5,0.000019686,0.0016074,0.00017719,1.6765,0.59345,50797.5210809712,0.0009587832
10954,10.1007/s11664-015-4303-6,5134,3(a),6471,x=0.9,Ca0.1Eu0.9Zn2Sb2,627,0.000019701,0.0016081,0.00017729,1.675,0.59428,50758.844728694,0.0009600597
10954,10.1007/s11664-015-4303-6,5134,3(a),6471,x=0.9,Ca0.1Eu0.9Zn2Sb2,627.5,0.000019717,0.0016088,0.00017739,1.6734,0.5951,50717.6548156413,0.000961396
10954,10.1007/s11664-015-4303-6,5134,3(a),6471,x=0.9,Ca0.1Eu0.9Zn2Sb2,628,0.000019732,0.0016095,0.00017749,1.6718,0.59593,50679.0999391851,0.0009627348
10954,10.1007/s11664-015-4303-6,5134,3(a),6471,x=0.9,Ca0.1Eu0.9Zn2Sb2,628.5,0.000019748,0.0016102,0.00017759,1.6702,0.59675,50638.0392951185,0.0009640762
10954,10.1007/s11664-015-4303-6,5134,3(a),6471,x=0.9,Ca0.1Eu0.9Zn2Sb2,629,0.000019763,0.0016109,0.00017769,1.6686,0.59757,50599.6053230785,0.0009654201
10954,10.1007/s11664-015-4303-6,5134,3(a),6471,x=0.9,Ca0.1Eu0.9Zn2Sb2,629.5,0.000019779,0.0016116,0.00017779,1.6671,0.5984,50558.6733404115,0.0009667087
10954,10.1007/s11664-015-4303-6,5134,3(a),6471,x=0.9,Ca0.1Eu0.9Zn2Sb2,630,0.000019794,0.0016123,0.00017789,1.6655,0.59922,50520.3597049611,0.0009680576
10954,10.1007/s11664-015-4303-6,5134,3(a),6471,x=0.9,Ca0.1Eu0.9Zn2Sb2,630.5,0.00001981,0.001613,0.00017798,1.6639,0.60005,50479.5557799091,0.0009694092
10954,10.1007/s11664-015-4303-6,5134,3(a),6471,x=0.9,Ca0.1Eu0.9Zn2Sb2,631,0.000019825,0.0016137,0.00017808,1.6623,0.60087,50441.3619167717,0.0009707634
10954,10.1007/s11664-015-4303-6,5134,3(a),6471,x=0.9,Ca0.1Eu0.9Zn2Sb2,631.5,0.000019841,0.0016145,0.00017818,1.6607,0.60169,50400.6854493221,0.0009721804
10954,10.1007/s11664-015-4303-6,5134,3(a),6471,x=0.9,Ca0.1Eu0.9Zn2Sb2,632,0.000019856,0.0016152,0.00017828,1.6592,0.60252,50362.6107977437,0.0009734812
10954,10.1007/s11664-015-4303-6,5134,3(a),6471,x=0.9,Ca0.1Eu0.9Zn2Sb2,632.5,0.000019872,0.0016159,0.00017838,1.6576,0.60334,50322.0611916264,0.0009748431
10954,10.1007/s11664-015-4303-6,5134,3(a),6471,x=0.9,Ca0.1Eu0.9Zn2Sb2,633,0.000019887,0.0016166,0.00017848,1.656,0.60417,50284.1051943481,0.0009762077
10954,10.1007/s11664-015-4303-6,5134,3(a),6471,x=0.9,Ca0.1Eu0.9Zn2Sb2,633.5,0.000019903,0.0016173,0.00017858,1.6544,0.60499,50243.6818570065,0.000977575
10954,10.1007/s11664-015-4303-6,5134,3(a),6471,x=0.9,Ca0.1Eu0.9Zn2Sb2,634,0.000019919,0.001618,0.00017868,1.6529,0.60581,50203.3234600131,0.0009788856
10954,10.1007/s11664-015-4303-6,5134,3(a),6471,x=0.9,Ca0.1Eu0.9Zn2Sb2,634.5,0.000019934,0.0016187,0.00017877,1.6513,0.60664,50165.5463027992,0.000980258
10954,10.1007/s11664-015-4303-6,5134,3(a),6471,x=0.9,Ca0.1Eu0.9Zn2Sb2,635,0.00001995,0.0016194,0.00017887,1.6497,0.60746,50125.313283208,0.000981633
10954,10.1007/s11664-015-4303-6,5134,3(a),6471,x=0.9,Ca0.1Eu0.9Zn2Sb2,635.5,0.000019965,0.0016201,0.00017897,1.6481,0.60829,50087.6533934385,0.0009830107
10954,10.1007/s11664-015-4303-6,5134,3(a),6471,x=0.9,Ca0.1Eu0.9Zn2Sb2,636,0.000019981,0.0016208,0.00017907,1.6465,0.60911,50047.5451679095,0.0009843911
10954,10.1007/s11664-015-4303-6,5134,3(a),6471,x=0.9,Ca0.1Eu0.9Zn2Sb2,636.5,0.000019996,0.0016215,0.00017917,1.645,0.60994,50010.0020004001,0.0009857143
10954,10.1007/s11664-015-4303-6,5134,3(a),6471,x=0.9,Ca0.1Eu0.9Zn2Sb2,637,0.000020012,0.0016222,0.00017927,1.6434,0.61076,49970.0179892065,0.0009870999
10954,10.1007/s11664-015-4303-6,5134,3(a),6471,x=0.9,Ca0.1Eu0.9Zn2Sb2,637.5,0.000020028,0.0016229,0.00017937,1.6418,0.61158,49930.0978629918,0.0009884882
10954,10.1007/s11664-015-4303-6,5134,3(a),6471,x=0.9,Ca0.1Eu0.9Zn2Sb2,638,0.000020043,0.0016236,0.00017947,1.6402,0.61241,49892.7306291473,0.0009898793
10954,10.1007/s11664-015-4303-6,5134,3(a),6471,x=0.9,Ca0.1Eu0.9Zn2Sb2,638.5,0.000020059,0.0016243,0.00017956,1.6386,0.61323,49852.9338451568,0.000991273
10954,10.1007/s11664-015-4303-6,5134,3(a),6471,x=0.9,Ca0.1Eu0.9Zn2Sb2,639,0.000020075,0.001625,0.00017966,1.6371,0.61406,49813.200498132,0.0009926089
10954,10.1007/s11664-015-4303-6,5134,3(a),6471,x=0.9,Ca0.1Eu0.9Zn2Sb2,639.5,0.00002009,0.0016257,0.00017976,1.6355,0.61488,49776.0079641613,0.0009940079
10954,10.1007/s11664-015-4303-6,5134,3(a),6471,x=0.9,Ca0.1Eu0.9Zn2Sb2,640,0.000020106,0.0016265,0.00017986,1.6339,0.6157,49736.3970953944,0.000995471
10954,10.1007/s11664-015-4303-6,5134,3(a),6471,x=0.9,Ca0.1Eu0.9Zn2Sb2,640.5,0.000020122,0.0016272,0.00017996,1.6323,0.61653,49696.8492197595,0.0009968756
10954,10.1007/s11664-015-4303-6,5134,3(a),6471,x=0.9,Ca0.1Eu0.9Zn2Sb2,641,0.000020137,0.0016279,0.00018006,1.6307,0.61735,49659.8301633808,0.0009982829
10954,10.1007/s11664-015-4303-6,5134,3(a),6471,x=0.9,Ca0.1Eu0.9Zn2Sb2,641.5,0.000020153,0.0016286,0.00018016,1.6292,0.61818,49620.4039100878,0.0009996317
10954,10.1007/s11664-015-4303-6,5134,3(a),6471,x=0.9,Ca0.1Eu0.9Zn2Sb2,642,0.000020169,0.0016293,0.00018026,1.6276,0.619,49581.0402102236,0.0010010445
10954,10.1007/s11664-015-4303-6,5134,3(a),6471,x=0.9,Ca0.1Eu0.9Zn2Sb2,642.5,0.000020184,0.00163,0.00018035,1.626,0.61982,49544.1934205311,0.00100246
10954,10.1007/s11664-015-4303-6,5134,3(a),6471,x=0.9,Ca0.1Eu0.9Zn2Sb2,643,0.0000202,0.0016307,0.00018045,1.6244,0.62065,49504.9504950495,0.0010038784
10954,10.1007/s11664-015-4303-6,5134,3(a),6471,x=0.9,Ca0.1Eu0.9Zn2Sb2,643.5,0.000020216,0.0016314,0.00018055,1.6229,0.62147,49465.7696873763,0.0010052375
10954,10.1007/s11664-015-4303-6,5134,3(a),6471,x=0.9,Ca0.1Eu0.9Zn2Sb2,644,0.000020232,0.0016321,0.00018065,1.6213,0.6223,49426.6508501384,0.0010066613
10954,10.1007/s11664-015-4303-6,5134,3(a),6471,x=0.9,Ca0.1Eu0.9Zn2Sb2,644.5,0.000020247,0.0016328,0.00018075,1.6197,0.62312,49390.0330913222,0.0010080879
10954,10.1007/s11664-015-4303-6,5134,3(a),6471,x=0.9,Ca0.1Eu0.9Zn2Sb2,645,0.000020263,0.0016335,0.00018085,1.6181,0.62394,49351.0339041603,0.0010095173
10954,10.1007/s11664-015-4303-6,5134,3(a),6471,x=0.9,Ca0.1Eu0.9Zn2Sb2,645.5,0.000020279,0.0016342,0.00018095,1.6165,0.62477,49312.0962572119,0.0010109496
10954,10.1007/s11664-015-4303-6,5134,3(a),6471,x=0.9,Ca0.1Eu0.9Zn2Sb2,646,0.000020295,0.0016349,0.00018105,1.615,0.62559,49273.2200049273,0.001012322
10954,10.1007/s11664-015-4303-6,5134,3(a),6471,x=0.9,Ca0.1Eu0.9Zn2Sb2,646.5,0.00002031,0.0016356,0.00018114,1.6134,0.62642,49236.8291482029,0.0010137598
10954,10.1007/s11664-015-4303-6,5134,3(a),6471,x=0.9,Ca0.1Eu0.9Zn2Sb2,647,0.000020326,0.0016363,0.00018124,1.6118,0.62724,49198.0714355997,0.0010152004
10954,10.1007/s11664-015-4303-6,5134,3(a),6471,x=0.9,Ca0.1Eu0.9Zn2Sb2,647.5,0.000020342,0.001637,0.00018134,1.6102,0.62807,49159.3746927539,0.0010166439
10954,10.1007/s11664-015-4303-6,5134,3(a),6471,x=0.9,Ca0.1Eu0.9Zn2Sb2,648,0.000020358,0.0016377,0.00018144,1.6086,0.62889,49120.7387759112,0.0010180903
10954,10.1007/s11664-015-4303-6,5134,3(a),6471,x=0.9,Ca0.1Eu0.9Zn2Sb2,648.5,0.000020373,0.0016385,0.00018154,1.6071,0.62971,49084.5727187945,0.0010195383
10954,10.1007/s11664-015-4303-6,5134,3(a),6471,x=0.9,Ca0.1Eu0.9Zn2Sb2,649,0.000020389,0.0016392,0.00018164,1.6055,0.63054,49046.054244936,0.0010209903
10954,10.1007/s11664-015-4303-6,5134,3(a),6471,x=0.9,Ca0.1Eu0.9Zn2Sb2,649.5,0.000020405,0.0016399,0.00018174,1.6039,0.63136,49007.5961774075,0.0010224453
10954,10.1007/s11664-015-4303-6,5134,3(a),6471,x=0.9,Ca0.1Eu0.9Zn2Sb2,650,0.000020421,0.0016406,0.00018184,1.6023,0.63219,48969.1983742226,0.0010239031
10954,10.1007/s11664-015-4303-6,5134,3(a),6471,x=0.9,Ca0.1Eu0.9Zn2Sb2,650.5,0.000020437,0.0016413,0.00018193,1.6007,0.63301,48930.8606938396,0.0010253639