sid,DOI,figureid,fignum,sampleid,samplename,composition,Temperature,Electrical resistivity,Power factor,Seebeck coefficient,Thermal conductivity,ZT,Electrical conductivity,Figure of merit Z
10954,10.1007/s11664-015-4303-6,5134,3(a),6470,x=0.7,Ca0.3Eu0.7Zn2Sb2,681.5,0.000022642,0.0015341,0.00018557,1.6943,0.55769,44165.7097429556,0.0009054477
10954,10.1007/s11664-015-4303-6,5134,3(a),6470,x=0.7,Ca0.3Eu0.7Zn2Sb2,682,0.000022654,0.0015347,0.00018566,1.6927,0.55836,44142.3148229893,0.000906658
10954,10.1007/s11664-015-4303-6,5134,3(a),6470,x=0.7,Ca0.3Eu0.7Zn2Sb2,682.5,0.000022667,0.0015354,0.00018576,1.6911,0.55902,44116.9982794371,0.0009079297
10954,10.1007/s11664-015-4303-6,5134,3(a),6470,x=0.7,Ca0.3Eu0.7Zn2Sb2,683,0.00002268,0.0015361,0.00018585,1.6896,0.55969,44091.7107583774,0.0009091501
10954,10.1007/s11664-015-4303-6,5134,3(a),6470,x=0.7,Ca0.3Eu0.7Zn2Sb2,683.5,0.000022693,0.0015368,0.00018595,1.688,0.56035,44066.4522099326,0.0009104265
10954,10.1007/s11664-015-4303-6,5134,3(a),6470,x=0.7,Ca0.3Eu0.7Zn2Sb2,684,0.000022706,0.0015375,0.00018604,1.6864,0.56101,44041.2225843389,0.0009117054
10954,10.1007/s11664-015-4303-6,5134,3(a),6470,x=0.7,Ca0.3Eu0.7Zn2Sb2,684.5,0.000022719,0.0015381,0.00018614,1.6848,0.56168,44016.0218319468,0.0009129274
10954,10.1007/s11664-015-4303-6,5134,3(a),6470,x=0.7,Ca0.3Eu0.7Zn2Sb2,685,0.000022731,0.0015388,0.00018623,1.6832,0.56234,43992.7851832299,0.000914211
10954,10.1007/s11664-015-4303-6,5134,3(a),6470,x=0.7,Ca0.3Eu0.7Zn2Sb2,685.5,0.000022744,0.0015395,0.00018633,1.6816,0.563,43967.6398170946,0.0009154971
10954,10.1007/s11664-015-4303-6,5134,3(a),6470,x=0.7,Ca0.3Eu0.7Zn2Sb2,686,0.000022757,0.0015402,0.00018642,1.68,0.56367,43942.523179681,0.0009167857
10954,10.1007/s11664-015-4303-6,5134,3(a),6470,x=0.7,Ca0.3Eu0.7Zn2Sb2,686.5,0.00002277,0.0015409,0.00018652,1.6785,0.56433,43917.435221783,0.000918022
10954,10.1007/s11664-015-4303-6,5134,3(a),6470,x=0.7,Ca0.3Eu0.7Zn2Sb2,687,0.000022783,0.0015416,0.00018661,1.6769,0.565,43892.3758943072,0.0009193154
10954,10.1007/s11664-015-4303-6,5134,3(a),6470,x=0.7,Ca0.3Eu0.7Zn2Sb2,687.5,0.000022796,0.0015422,0.00018671,1.6753,0.56566,43867.3451482716,0.0009205515
10954,10.1007/s11664-015-4303-6,5134,3(a),6470,x=0.7,Ca0.3Eu0.7Zn2Sb2,688,0.000022808,0.0015429,0.0001868,1.6737,0.56632,43844.2651701158,0.0009218498
10954,10.1007/s11664-015-4303-6,5134,3(a),6470,x=0.7,Ca0.3Eu0.7Zn2Sb2,688.5,0.000022821,0.0015436,0.00018689,1.6721,0.56699,43819.2892511283,0.0009231505
10954,10.1007/s11664-015-4303-6,5134,3(a),6470,x=0.7,Ca0.3Eu0.7Zn2Sb2,689,0.000022834,0.0015443,0.00018699,1.6705,0.56765,43794.3417710432,0.0009244538
10954,10.1007/s11664-015-4303-6,5134,3(a),6470,x=0.7,Ca0.3Eu0.7Zn2Sb2,689.5,0.000022847,0.001545,0.00018708,1.6689,0.56831,43769.4226813148,0.0009257595
10954,10.1007/s11664-015-4303-6,5134,3(a),6470,x=0.7,Ca0.3Eu0.7Zn2Sb2,690,0.00002286,0.0015457,0.00018718,1.6673,0.56898,43744.5319335083,0.0009270677
10954,10.1007/s11664-015-4303-6,5134,3(a),6470,x=0.7,Ca0.3Eu0.7Zn2Sb2,690.5,0.000022873,0.0015463,0.00018727,1.6658,0.56964,43719.6694792987,0.0009282627
10954,10.1007/s11664-015-4303-6,5134,3(a),6470,x=0.7,Ca0.3Eu0.7Zn2Sb2,691,0.000022886,0.001547,0.00018737,1.6642,0.57031,43694.835270471,0.0009295758
10954,10.1007/s11664-015-4303-6,5134,3(a),6470,x=0.7,Ca0.3Eu0.7Zn2Sb2,691.5,0.000022898,0.0015477,0.00018746,1.6626,0.57097,43671.9364136606,0.0009308914
10954,10.1007/s11664-015-4303-6,5134,3(a),6470,x=0.7,Ca0.3Eu0.7Zn2Sb2,692,0.000022911,0.0015484,0.00018756,1.661,0.57163,43647.1563877613,0.0009322095
10954,10.1007/s11664-015-4303-6,5134,3(a),6470,x=0.7,Ca0.3Eu0.7Zn2Sb2,692.5,0.000022924,0.0015491,0.00018765,1.6594,0.5723,43622.4044669342,0.0009335302
10954,10.1007/s11664-015-4303-6,5134,3(a),6470,x=0.7,Ca0.3Eu0.7Zn2Sb2,693,0.000022937,0.0015497,0.00018775,1.6578,0.57296,43597.6806033919,0.0009347931
10954,10.1007/s11664-015-4303-6,5134,3(a),6470,x=0.7,Ca0.3Eu0.7Zn2Sb2,693.5,0.00002295,0.0015504,0.00018784,1.6562,0.57362,43572.9847494553,0.0009361188
10954,10.1007/s11664-015-4303-6,5134,3(a),6470,x=0.7,Ca0.3Eu0.7Zn2Sb2,694,0.000022963,0.0015511,0.00018794,1.6546,0.57429,43548.3168575535,0.0009374471
10954,10.1007/s11664-015-4303-6,5134,3(a),6470,x=0.7,Ca0.3Eu0.7Zn2Sb2,694.5,0.000022975,0.0015518,0.00018803,1.6531,0.57495,43525.571273123,0.0009387212
10954,10.1007/s11664-015-4303-6,5134,3(a),6470,x=0.7,Ca0.3Eu0.7Zn2Sb2,695,0.000022988,0.0015525,0.00018813,1.6515,0.57562,43500.9570210545,0.0009400545
10954,10.1007/s11664-015-4303-6,5134,3(a),6470,x=0.7,Ca0.3Eu0.7Zn2Sb2,695.5,0.000023001,0.0015532,0.00018822,1.6499,0.57628,43476.3705925829,0.0009413904
10954,10.1007/s11664-015-4303-6,5134,3(a),6470,x=0.7,Ca0.3Eu0.7Zn2Sb2,696,0.000023014,0.0015538,0.00018832,1.6483,0.57694,43451.8119405579,0.0009426682
10954,10.1007/s11664-015-4303-6,5134,3(a),6470,x=0.7,Ca0.3Eu0.7Zn2Sb2,696.5,0.000023027,0.0015545,0.00018841,1.6467,0.57761,43427.2810179355,0.0009440092
10954,10.1007/s11664-015-4303-6,5134,3(a),6470,x=0.7,Ca0.3Eu0.7Zn2Sb2,697,0.00002304,0.0015552,0.00018851,1.6451,0.57827,43402.7777777778,0.0009453529
10954,10.1007/s11664-015-4303-6,5134,3(a),6470,x=0.7,Ca0.3Eu0.7Zn2Sb2,697.5,0.000023052,0.0015559,0.0001886,1.6435,0.57893,43380.1839319799,0.0009466991
10954,10.1007/s11664-015-4303-6,5134,3(a),6470,x=0.7,Ca0.3Eu0.7Zn2Sb2,698,0.000023065,0.0015566,0.0001887,1.6419,0.5796,43355.7337957945,0.000948048
10954,10.1007/s11664-015-4303-6,5134,3(a),6470,x=0.7,Ca0.3Eu0.7Zn2Sb2,698.5,0.000023078,0.0015572,0.00018879,1.6404,0.58026,43331.3112054771,0.0009492807
10954,10.1007/s11664-015-4303-6,5134,3(a),6470,x=0.7,Ca0.3Eu0.7Zn2Sb2,699,0.000023091,0.0015579,0.00018889,1.6388,0.58093,43306.9161145035,0.0009506346
10954,10.1007/s11664-015-4303-6,5134,3(a),6470,x=0.7,Ca0.3Eu0.7Zn2Sb2,699.5,0.000023104,0.0015586,0.00018898,1.6372,0.58159,43282.5484764543,0.0009519912
10954,10.1007/s11664-015-4303-6,5134,3(a),6470,x=0.7,Ca0.3Eu0.7Zn2Sb2,700,0.000023117,0.0015593,0.00018908,1.6356,0.58225,43258.2082450145,0.0009533505
10954,10.1007/s11664-015-4303-6,5134,3(a),6470,x=0.7,Ca0.3Eu0.7Zn2Sb2,700.5,0.000023129,0.00156,0.00018917,1.634,0.58292,43235.7646244974,0.0009547124
10954,10.1007/s11664-015-4303-6,5134,3(a),6470,x=0.7,Ca0.3Eu0.7Zn2Sb2,701,0.000023142,0.0015607,0.00018927,1.6324,0.58358,43211.4769682828,0.0009560769
10954,10.1007/s11664-015-4303-6,5134,3(a),6470,x=0.7,Ca0.3Eu0.7Zn2Sb2,701.5,0.000023155,0.0015613,0.00018936,1.6308,0.58424,43187.2165838912,0.0009573829
10954,10.1007/s11664-015-4303-6,5134,3(a),6470,x=0.7,Ca0.3Eu0.7Zn2Sb2,702,0.000023168,0.001562,0.00018946,1.6293,0.58491,43162.9834254144,0.0009586939
10954,10.1007/s11664-015-4303-6,5134,3(a),6470,x=0.7,Ca0.3Eu0.7Zn2Sb2,702.5,0.000023181,0.0015627,0.00018955,1.6277,0.58557,43138.7774470471,0.0009600664
10954,10.1007/s11664-015-4303-6,5134,3(a),6470,x=0.7,Ca0.3Eu0.7Zn2Sb2,703,0.000023194,0.0015634,0.00018965,1.6261,0.58624,43114.598603087,0.0009614415
10954,10.1007/s11664-015-4303-6,5134,3(a),6470,x=0.7,Ca0.3Eu0.7Zn2Sb2,703.5,0.000023207,0.0015641,0.00018974,1.6245,0.5869,43090.4468479338,0.0009628193
10954,10.1007/s11664-015-4303-6,5134,3(a),6470,x=0.7,Ca0.3Eu0.7Zn2Sb2,704,0.000023219,0.0015648,0.00018984,1.6229,0.58756,43068.1769240708,0.0009641999
10954,10.1007/s11664-015-4303-6,5134,3(a),6470,x=0.7,Ca0.3Eu0.7Zn2Sb2,704.5,0.000023232,0.0015654,0.00018993,1.6213,0.58823,43044.0771349862,0.0009655215
10954,10.1007/s11664-015-4303-6,5134,3(a),6470,x=0.7,Ca0.3Eu0.7Zn2Sb2,705,0.000023245,0.0015661,0.00019003,1.6197,0.58889,43020.0043020004,0.0009669075
10954,10.1007/s11664-015-4303-6,5134,3(a),6470,x=0.7,Ca0.3Eu0.7Zn2Sb2,705.5,0.000023258,0.0015668,0.00019012,1.6181,0.58955,42995.9583799123,0.0009682961
10954,10.1007/s11664-015-4303-6,5134,3(a),6470,x=0.7,Ca0.3Eu0.7Zn2Sb2,706,0.000023271,0.0015675,0.00019021,1.6166,0.59022,42971.9393236217,0.0009696276
10954,10.1007/s11664-015-4303-6,5134,3(a),6470,x=0.7,Ca0.3Eu0.7Zn2Sb2,706.5,0.000023284,0.0015682,0.00019031,1.615,0.59088,42947.9470881292,0.0009710217
10954,10.1007/s11664-015-4303-6,5134,3(a),6470,x=0.7,Ca0.3Eu0.7Zn2Sb2,707,0.000023296,0.0015688,0.0001904,1.6134,0.59155,42925.8241758242,0.0009723565
10954,10.1007/s11664-015-4303-6,5134,3(a),6470,x=0.7,Ca0.3Eu0.7Zn2Sb2,707.5,0.000023309,0.0015695,0.0001905,1.6118,0.59221,42901.8833926809,0.000973756
10954,10.1007/s11664-015-4303-6,5134,3(a),6470,x=0.7,Ca0.3Eu0.7Zn2Sb2,708,0.000023322,0.0015702,0.00019059,1.6102,0.59287,42877.969299374,0.0009751584
10954,10.1007/s11664-015-4303-6,5134,3(a),6470,x=0.7,Ca0.3Eu0.7Zn2Sb2,708.5,0.000023335,0.0015709,0.00019069,1.6086,0.59354,42854.0818512963,0.0009765635
10954,10.1007/s11664-015-4303-6,5134,3(a),6470,x=0.7,Ca0.3Eu0.7Zn2Sb2,709,0.000023348,0.0015716,0.00019078,1.607,0.5942,42830.2210039404,0.0009779714
10954,10.1007/s11664-015-4303-6,5134,3(a),6470,x=0.7,Ca0.3Eu0.7Zn2Sb2,709.5,0.000023361,0.0015723,0.00019088,1.6054,0.59486,42806.3867128976,0.0009793821
10954,10.1007/s11664-015-4303-6,5134,3(a),6470,x=0.7,Ca0.3Eu0.7Zn2Sb2,710,0.000023373,0.0015729,0.00019097,1.6039,0.59553,42784.4093612288,0.0009806721
10954,10.1007/s11664-015-4303-6,5134,3(a),6470,x=0.7,Ca0.3Eu0.7Zn2Sb2,710.5,0.000023386,0.0015736,0.00019107,1.6023,0.59619,42760.6260155649,0.0009820882
10954,10.1007/s11664-015-4303-6,5134,3(a),6470,x=0.7,Ca0.3Eu0.7Zn2Sb2,711,0.000023399,0.0015743,0.00019116,1.6007,0.59686,42736.86909697,0.0009835072
10954,10.1007/s11664-015-4303-6,5134,3(a),6470,x=0.7,Ca0.3Eu0.7Zn2Sb2,711.5,0.000023412,0.001575,0.00019126,1.5991,0.59752,42713.1385614215,0.000984929
10954,10.1007/s11664-015-4303-6,5134,3(a),6470,x=0.7,Ca0.3Eu0.7Zn2Sb2,712,0.000023425,0.0015757,0.00019135,1.5975,0.59818,42689.4343649947,0.0009863537
10954,10.1007/s11664-015-4303-6,5134,3(a),6470,x=0.7,Ca0.3Eu0.7Zn2Sb2,712.5,0.000023438,0.0015764,0.00019145,1.5959,0.59885,42665.7564638621,0.0009877812
10954,10.1007/s11664-015-4303-6,5134,3(a),6470,x=0.7,Ca0.3Eu0.7Zn2Sb2,713,0.000023451,0.001577,0.00019154,1.5943,0.59951,42642.1048142936,0.0009891488
10954,10.1007/s11664-015-4303-6,5134,3(a),6470,x=0.7,Ca0.3Eu0.7Zn2Sb2,713.5,0.000023463,0.0015777,0.00019164,1.5927,0.60017,42620.2957848528,0.000990582
10954,10.1007/s11664-015-4303-6,5134,3(a),6470,x=0.7,Ca0.3Eu0.7Zn2Sb2,714,0.000023476,0.0015784,0.00019173,1.5912,0.60084,42596.6944965071,0.0009919558
10954,10.1007/s11664-015-4303-6,5134,3(a),6470,x=0.7,Ca0.3Eu0.7Zn2Sb2,714.5,0.000023489,0.0015791,0.00019183,1.5896,0.6015,42573.1193324535,0.0009933946
10954,10.1007/s11664-015-4303-6,5134,3(a),6470,x=0.7,Ca0.3Eu0.7Zn2Sb2,715,0.000023502,0.0015798,0.00019192,1.588,0.60217,42549.5702493405,0.0009948363
10954,10.1007/s11664-015-4303-6,5134,3(a),6470,x=0.7,Ca0.3Eu0.7Zn2Sb2,715.5,0.000023515,0.0015804,0.00019202,1.5864,0.60283,42526.0472039124,0.0009962179
10954,10.1007/s11664-015-4303-6,5134,3(a),6470,x=0.7,Ca0.3Eu0.7Zn2Sb2,716,0.000023528,0.0015811,0.00019211,1.5848,0.60349,42502.5501530092,0.0009976653
10954,10.1007/s11664-015-4303-6,5134,3(a),6470,x=0.7,Ca0.3Eu0.7Zn2Sb2,716.5,0.00002354,0.0015818,0.00019221,1.5832,0.60416,42480.8836023789,0.0009991157
10954,10.1007/s11664-015-4303-6,5134,3(a),6470,x=0.7,Ca0.3Eu0.7Zn2Sb2,717,0.000023553,0.0015825,0.0001923,,0.60482,42457.436419989,
10954,10.1007/s11664-015-4303-6,5134,3(a),6470,x=0.7,Ca0.3Eu0.7Zn2Sb2,717.5,0.000023566,0.0015832,0.0001924,,0.60548,42434.0151065094,
10954,10.1007/s11664-015-4303-6,5136,3(b),6470,x=0.7,Ca0.3Eu0.7Zn2Sb2,300.5,,,0.00011328,2.9037,0.05191,,
10954,10.1007/s11664-015-4303-6,5136,3(b),6470,x=0.7,Ca0.3Eu0.7Zn2Sb2,301,,,0.00011337,2.9021,0.052574,,
10954,10.1007/s11664-015-4303-6,5136,3(b),6470,x=0.7,Ca0.3Eu0.7Zn2Sb2,718,,0.0015839,0.00019249,,0.60615,,
10954,10.1007/s11664-015-4303-6,5136,3(b),6470,x=0.7,Ca0.3Eu0.7Zn2Sb2,718.5,,,0.00019259,,0.60681,,
10954,10.1007/s11664-015-4303-6,5136,3(b),6470,x=0.7,Ca0.3Eu0.7Zn2Sb2,719,,,0.00019268,,0.60748,,
10954,10.1007/s11664-015-4303-6,5136,3(b),6470,x=0.7,Ca0.3Eu0.7Zn2Sb2,719.5,,,0.00019278,,0.60814,,
10954,10.1007/s11664-015-4303-6,5136,3(b),6470,x=0.7,Ca0.3Eu0.7Zn2Sb2,720,,,0.00019287,,,,
10954,10.1007/s11664-015-4303-6,5136,3(b),6470,x=0.7,Ca0.3Eu0.7Zn2Sb2,720.5,,,0.00019297,,,,
10954,10.1007/s11664-015-4303-6,5136,3(b),6470,x=0.7,Ca0.3Eu0.7Zn2Sb2,721,,,0.00019306,,,,
10954,10.1007/s11664-015-4303-6,5139,4,6470,x=0.7,Ca0.3Eu0.7Zn2Sb2,299,,,,,0.049919,,
10954,10.1007/s11664-015-4303-6,5139,4,6470,x=0.7,Ca0.3Eu0.7Zn2Sb2,299.5,,,,,0.050582,,
10954,10.1007/s11664-015-4303-6,5139,4,6470,x=0.7,Ca0.3Eu0.7Zn2Sb2,300,,,,,0.051246,,
10954,10.1007/s11664-015-4303-6,5134,3(a),6471,x=0.9,Ca0.1Eu0.9Zn2Sb2,301.5,0.0000113,0.0011486,0.00011301,2.7028,0.057794,88495.5752212389,0.0004249667
10954,10.1007/s11664-015-4303-6,5134,3(a),6471,x=0.9,Ca0.1Eu0.9Zn2Sb2,302,0.00001131,0.0011493,0.00011311,2.7012,0.058618,88417.3297966401,0.0004254776
10954,10.1007/s11664-015-4303-6,5134,3(a),6471,x=0.9,Ca0.1Eu0.9Zn2Sb2,302.5,0.000011321,0.00115,0.00011321,2.6996,0.059442,88331.4194859111,0.000425989
10954,10.1007/s11664-015-4303-6,5134,3(a),6471,x=0.9,Ca0.1Eu0.9Zn2Sb2,303,0.000011331,0.0011507,0.00011331,2.698,0.060266,88253.46394846,0.0004265011
10954,10.1007/s11664-015-4303-6,5134,3(a),6471,x=0.9,Ca0.1Eu0.9Zn2Sb2,303.5,0.000011341,0.0011514,0.0001134,2.6964,0.061091,88175.6458866061,0.0004270138
10954,10.1007/s11664-015-4303-6,5134,3(a),6471,x=0.9,Ca0.1Eu0.9Zn2Sb2,304,0.000011352,0.0011521,0.0001135,2.6949,0.061915,88090.2043692741,0.0004275112
10954,10.1007/s11664-015-4303-6,5134,3(a),6471,x=0.9,Ca0.1Eu0.9Zn2Sb2,304.5,0.000011362,0.0011528,0.0001136,2.6933,0.062739,88012.6738250308,0.0004280251
10954,10.1007/s11664-015-4303-6,5134,3(a),6471,x=0.9,Ca0.1Eu0.9Zn2Sb2,305,0.000011373,0.0011535,0.0001137,2.6917,0.063563,87927.5477006946,0.0004285396
10954,10.1007/s11664-015-4303-6,5134,3(a),6471,x=0.9,Ca0.1Eu0.9Zn2Sb2,305.5,0.000011383,0.0011542,0.0001138,2.6901,0.064387,87850.3030835456,0.0004290547
10954,10.1007/s11664-015-4303-6,5134,3(a),6471,x=0.9,Ca0.1Eu0.9Zn2Sb2,306,0.000011393,0.0011549,0.0001139,2.6885,0.065211,87773.1940665321,0.0004295704
10954,10.1007/s11664-015-4303-6,5134,3(a),6471,x=0.9,Ca0.1Eu0.9Zn2Sb2,306.5,0.000011404,0.0011556,0.000114,2.687,0.066035,87688.5303402315,0.0004300707
10954,10.1007/s11664-015-4303-6,5134,3(a),6471,x=0.9,Ca0.1Eu0.9Zn2Sb2,307,0.000011414,0.0011563,0.0001141,2.6854,0.066859,87611.7049237778,0.0004305876
10954,10.1007/s11664-015-4303-6,5134,3(a),6471,x=0.9,Ca0.1Eu0.9Zn2Sb2,307.5,0.000011425,0.001157,0.00011419,2.6838,0.067683,87527.352297593,0.0004311051
10954,10.1007/s11664-015-4303-6,5134,3(a),6471,x=0.9,Ca0.1Eu0.9Zn2Sb2,308,0.000011435,0.0011577,0.00011429,2.6822,0.068507,87450.8089199825,0.0004316233
10954,10.1007/s11664-015-4303-6,5134,3(a),6471,x=0.9,Ca0.1Eu0.9Zn2Sb2,308.5,0.000011446,0.0011585,0.00011439,2.6807,0.069331,87366.7656823344,0.0004321632
10954,10.1007/s11664-015-4303-6,5134,3(a),6471,x=0.9,Ca0.1Eu0.9Zn2Sb2,309,0.000011456,0.0011592,0.00011449,2.6791,0.070156,87290.5027932961,0.0004326826
10954,10.1007/s11664-015-4303-6,5134,3(a),6471,x=0.9,Ca0.1Eu0.9Zn2Sb2,309.5,0.000011467,0.0011599,0.00011459,2.6775,0.07098,87206.7672451382,0.0004332026
10954,10.1007/s11664-015-4303-6,5134,3(a),6471,x=0.9,Ca0.1Eu0.9Zn2Sb2,310,0.000011477,0.0011606,0.00011469,2.6759,0.071804,87130.7833057419,0.0004337232
10954,10.1007/s11664-015-4303-6,5134,3(a),6471,x=0.9,Ca0.1Eu0.9Zn2Sb2,310.5,0.000011488,0.0011613,0.00011479,2.6743,0.072628,87047.3537604457,0.0004342445
10954,10.1007/s11664-015-4303-6,5134,3(a),6471,x=0.9,Ca0.1Eu0.9Zn2Sb2,311,0.000011498,0.001162,0.00011489,2.6728,0.073452,86971.6472429988,0.0004347501
10954,10.1007/s11664-015-4303-6,5134,3(a),6471,x=0.9,Ca0.1Eu0.9Zn2Sb2,311.5,0.000011509,0.0011627,0.00011498,2.6712,0.074276,86888.5220262403,0.0004352725
10954,10.1007/s11664-015-4303-6,5134,3(a),6471,x=0.9,Ca0.1Eu0.9Zn2Sb2,312,0.000011519,0.0011634,0.00011508,2.6696,0.0751,86813.0914141853,0.0004357956
10954,10.1007/s11664-015-4303-6,5134,3(a),6471,x=0.9,Ca0.1Eu0.9Zn2Sb2,312.5,0.00001153,0.0011641,0.00011518,2.668,0.075924,86730.2688638335,0.0004363193
10954,10.1007/s11664-015-4303-6,5134,3(a),6471,x=0.9,Ca0.1Eu0.9Zn2Sb2,313,0.00001154,0.0011648,0.00011528,2.6664,0.076748,86655.1126516464,0.0004368437
10954,10.1007/s11664-015-4303-6,5134,3(a),6471,x=0.9,Ca0.1Eu0.9Zn2Sb2,313.5,0.000011551,0.0011655,0.00011538,2.6649,0.077572,86572.5911176521,0.0004373522
10954,10.1007/s11664-015-4303-6,5134,3(a),6471,x=0.9,Ca0.1Eu0.9Zn2Sb2,314,0.000011561,0.0011662,0.00011548,2.6633,0.078396,86497.707810743,0.0004378778
10954,10.1007/s11664-015-4303-6,5134,3(a),6471,x=0.9,Ca0.1Eu0.9Zn2Sb2,314.5,0.000011572,0.0011669,0.00011558,2.6617,0.079221,86415.4856550294,0.000438404
10954,10.1007/s11664-015-4303-6,5134,3(a),6471,x=0.9,Ca0.1Eu0.9Zn2Sb2,315,0.000011582,0.0011676,0.00011568,2.6601,0.080045,86340.8737696426,0.0004389309
10954,10.1007/s11664-015-4303-6,5134,3(a),6471,x=0.9,Ca0.1Eu0.9Zn2Sb2,315.5,0.000011593,0.0011683,0.00011577,2.6585,0.080869,86258.9493659967,0.0004394583
10954,10.1007/s11664-015-4303-6,5134,3(a),6471,x=0.9,Ca0.1Eu0.9Zn2Sb2,316,0.000011603,0.001169,0.00011587,2.657,0.081693,86184.6074291132,0.0004399699
10954,10.1007/s11664-015-4303-6,5134,3(a),6471,x=0.9,Ca0.1Eu0.9Zn2Sb2,316.5,0.000011614,0.0011697,0.00011597,2.6554,0.082517,86102.979163079,0.0004404986
10954,10.1007/s11664-015-4303-6,5134,3(a),6471,x=0.9,Ca0.1Eu0.9Zn2Sb2,317,0.000011625,0.0011705,0.00011607,2.6538,0.083341,86021.5053763441,0.0004410656
10954,10.1007/s11664-015-4303-6,5134,3(a),6471,x=0.9,Ca0.1Eu0.9Zn2Sb2,317.5,0.000011635,0.0011712,0.00011617,2.6522,0.084165,85947.5719810915,0.0004415957
10954,10.1007/s11664-015-4303-6,5134,3(a),6471,x=0.9,Ca0.1Eu0.9Zn2Sb2,318,0.000011646,0.0011719,0.00011627,2.6507,0.084989,85866.3918942126,0.0004421096
10954,10.1007/s11664-015-4303-6,5134,3(a),6471,x=0.9,Ca0.1Eu0.9Zn2Sb2,318.5,0.000011656,0.0011726,0.00011637,2.6491,0.085813,85792.7247769389,0.0004426409
10954,10.1007/s11664-015-4303-6,5134,3(a),6471,x=0.9,Ca0.1Eu0.9Zn2Sb2,319,0.000011667,0.0011733,0.00011647,2.6475,0.086637,85711.8368046627,0.0004431728
10954,10.1007/s11664-015-4303-6,5134,3(a),6471,x=0.9,Ca0.1Eu0.9Zn2Sb2,319.5,0.000011678,0.001174,0.00011656,2.6459,0.087461,85631.1012159616,0.0004437054
10954,10.1007/s11664-015-4303-6,5134,3(a),6471,x=0.9,Ca0.1Eu0.9Zn2Sb2,320,0.000011688,0.0011747,0.00011666,2.6443,0.088286,85557.8370978782,0.0004442386
10954,10.1007/s11664-015-4303-6,5134,3(a),6471,x=0.9,Ca0.1Eu0.9Zn2Sb2,320.5,0.000011699,0.0011754,0.00011676,2.6428,0.08911,85477.3912300197,0.0004447556
10954,10.1007/s11664-015-4303-6,5134,3(a),6471,x=0.9,Ca0.1Eu0.9Zn2Sb2,321,0.00001171,0.0011761,0.00011686,2.6412,0.089934,85397.0964987191,0.00044529
10954,10.1007/s11664-015-4303-6,5134,3(a),6471,x=0.9,Ca0.1Eu0.9Zn2Sb2,321.5,0.00001172,0.0011768,0.00011696,2.6396,0.090758,85324.2320819113,0.0004458251
10954,10.1007/s11664-015-4303-6,5134,3(a),6471,x=0.9,Ca0.1Eu0.9Zn2Sb2,322,0.000011731,0.0011775,0.00011706,2.638,0.091582,85244.2247037763,0.0004463609
10954,10.1007/s11664-015-4303-6,5134,3(a),6471,x=0.9,Ca0.1Eu0.9Zn2Sb2,322.5,0.000011742,0.0011782,0.00011716,2.6364,0.092406,85164.3672287515,0.0004468973
10954,10.1007/s11664-015-4303-6,5134,3(a),6471,x=0.9,Ca0.1Eu0.9Zn2Sb2,323,0.000011752,0.0011789,0.00011726,2.6349,0.09323,85091.8992511913,0.0004474174
10954,10.1007/s11664-015-4303-6,5134,3(a),6471,x=0.9,Ca0.1Eu0.9Zn2Sb2,323.5,0.000011763,0.0011796,0.00011735,2.6333,0.094054,85012.3267873842,0.000447955
10954,10.1007/s11664-015-4303-6,5134,3(a),6471,x=0.9,Ca0.1Eu0.9Zn2Sb2,324,0.000011774,0.0011803,0.00011745,2.6317,0.094878,84932.9030066248,0.0004484934
10954,10.1007/s11664-015-4303-6,5134,3(a),6471,x=0.9,Ca0.1Eu0.9Zn2Sb2,324.5,0.000011784,0.001181,0.00011755,2.6301,0.095702,84860.8282416836,0.0004490324
10954,10.1007/s11664-015-4303-6,5134,3(a),6471,x=0.9,Ca0.1Eu0.9Zn2Sb2,325,0.000011795,0.0011817,0.00011765,2.6286,0.096526,84781.6871555744,0.0004495549
10954,10.1007/s11664-015-4303-6,5134,3(a),6471,x=0.9,Ca0.1Eu0.9Zn2Sb2,325.5,0.000011806,0.0011825,0.00011775,2.627,0.097351,84702.6935456548,0.0004501332