sid,DOI,figureid,fignum,sampleid,samplename,composition,Temperature,Electrical resistivity,Power factor,Seebeck coefficient,Thermal conductivity,ZT,Electrical conductivity,Figure of merit Z
10954,10.1007/s11664-015-4303-6,5134,3(a),6467,x=0,Ca1Zn2Sb2,640.5,0.00004537,0.00075991,0.00018671,2.2639,0.20896,22040.9962530306,0.0003356641
10954,10.1007/s11664-015-4303-6,5134,3(a),6467,x=0,Ca1Zn2Sb2,641,0.000045391,0.00076029,0.0001868,2.262,0.20923,22030.7990570818,0.0003361141
10954,10.1007/s11664-015-4303-6,5134,3(a),6467,x=0,Ca1Zn2Sb2,641.5,0.000045413,0.00076067,0.00018689,2.2601,0.20951,22020.1263955255,0.0003365648
10954,10.1007/s11664-015-4303-6,5134,3(a),6467,x=0,Ca1Zn2Sb2,642,0.000045434,0.00076106,0.00018698,2.2582,0.20978,22009.9484967205,0.0003370206
10954,10.1007/s11664-015-4303-6,5134,3(a),6467,x=0,Ca1Zn2Sb2,642.5,0.000045456,0.00076144,0.00018708,2.2562,0.21005,21999.2960225273,0.0003374878
10954,10.1007/s11664-015-4303-6,5134,3(a),6467,x=0,Ca1Zn2Sb2,643,0.000045477,0.00076182,0.00018717,2.2543,0.21033,21989.1373661411,0.0003379408
10954,10.1007/s11664-015-4303-6,5134,3(a),6467,x=0,Ca1Zn2Sb2,643.5,0.000045499,0.0007622,0.00018726,2.2524,0.2106,21978.5050220884,0.0003383946
10954,10.1007/s11664-015-4303-6,5134,3(a),6467,x=0,Ca1Zn2Sb2,644,0.00004552,0.00076258,0.00018735,2.2505,0.21087,21968.3655536028,0.0003388491
10954,10.1007/s11664-015-4303-6,5134,3(a),6467,x=0,Ca1Zn2Sb2,644.5,0.000045541,0.00076297,0.00018744,2.2486,0.21115,21958.2354362003,0.0003393089
10954,10.1007/s11664-015-4303-6,5134,3(a),6467,x=0,Ca1Zn2Sb2,645,0.000045563,0.00076335,0.00018753,2.2467,0.21142,21947.6329477866,0.000339765
10954,10.1007/s11664-015-4303-6,5134,3(a),6467,x=0,Ca1Zn2Sb2,645.5,0.000045584,0.00076373,0.00018763,2.2447,0.2117,21937.5219375219,0.000340237
10954,10.1007/s11664-015-4303-6,5134,3(a),6467,x=0,Ca1Zn2Sb2,646,0.000045606,0.00076411,0.00018772,2.2428,0.21197,21926.9394377933,0.0003406947
10954,10.1007/s11664-015-4303-6,5134,3(a),6467,x=0,Ca1Zn2Sb2,646.5,0.000045627,0.0007645,0.00018781,2.2409,0.21224,21916.8474806584,0.0003411576
10954,10.1007/s11664-015-4303-6,5134,3(a),6467,x=0,Ca1Zn2Sb2,647,0.000045648,0.00076488,0.0001879,2.239,0.21252,21906.764808973,0.0003416168
10954,10.1007/s11664-015-4303-6,5134,3(a),6467,x=0,Ca1Zn2Sb2,647.5,0.00004567,0.00076526,0.00018799,2.2371,0.21279,21896.2119553317,0.0003420768
10954,10.1007/s11664-015-4303-6,5134,3(a),6467,x=0,Ca1Zn2Sb2,648,0.000045691,0.00076564,0.00018808,2.2352,0.21306,21886.1482567683,0.0003425376
10954,10.1007/s11664-015-4303-6,5134,3(a),6467,x=0,Ca1Zn2Sb2,648.5,0.000045713,0.00076603,0.00018818,2.2332,0.21334,21875.615251679,0.000343019
10954,10.1007/s11664-015-4303-6,5134,3(a),6467,x=0,Ca1Zn2Sb2,649,0.000045734,0.00076641,0.00018827,2.2313,0.21361,21865.5704727336,0.0003434814
10954,10.1007/s11664-015-4303-6,5134,3(a),6467,x=0,Ca1Zn2Sb2,649.5,0.000045756,0.00076679,0.00018836,2.2294,0.21388,21855.05726025,0.0003439446
10954,10.1007/s11664-015-4303-6,5134,3(a),6467,x=0,Ca1Zn2Sb2,650,0.000045777,0.00076717,0.00018845,2.2275,0.21416,21845.03134762,0.0003444085
10954,10.1007/s11664-015-4303-6,5134,3(a),6467,x=0,Ca1Zn2Sb2,650.5,0.000045798,0.00076756,0.00018854,2.2256,0.21443,21835.0146294598,0.0003448778
10954,10.1007/s11664-015-4303-6,5134,3(a),6467,x=0,Ca1Zn2Sb2,651,0.00004582,0.00076794,0.00018863,2.2237,0.21471,21824.5307725884,0.0003453433
10954,10.1007/s11664-015-4303-6,5134,3(a),6467,x=0,Ca1Zn2Sb2,651.5,0.000045841,0.00076832,0.00018873,2.2218,0.21498,21814.5328417792,0.0003458097
10954,10.1007/s11664-015-4303-6,5134,3(a),6467,x=0,Ca1Zn2Sb2,652,0.000045863,0.0007687,0.00018882,2.2198,0.21525,21804.0686392081,0.0003462925
10954,10.1007/s11664-015-4303-6,5134,3(a),6467,x=0,Ca1Zn2Sb2,652.5,0.000045884,0.00076908,0.00018891,2.2179,0.21553,21794.0894429431,0.0003467604
10954,10.1007/s11664-015-4303-6,5134,3(a),6467,x=0,Ca1Zn2Sb2,653,0.000045906,0.00076947,0.000189,2.216,0.2158,21783.6448394545,0.0003472338
10954,10.1007/s11664-015-4303-6,5134,3(a),6467,x=0,Ca1Zn2Sb2,653.5,0.000045927,0.00076985,0.00018909,2.2141,0.21607,21773.6843251247,0.0003477034
10954,10.1007/s11664-015-4303-6,5134,3(a),6467,x=0,Ca1Zn2Sb2,654,0.000045948,0.00077023,0.00018918,2.2122,0.21635,21763.7329154697,0.0003481738
10954,10.1007/s11664-015-4303-6,5134,3(a),6467,x=0,Ca1Zn2Sb2,654.5,0.00004597,0.00077061,0.00018927,2.2103,0.21662,21753.3173809006,0.000348645
10954,10.1007/s11664-015-4303-6,5134,3(a),6467,x=0,Ca1Zn2Sb2,655,0.000045991,0.000771,0.00018937,2.2083,0.21689,21743.384575243,0.0003491373
10954,10.1007/s11664-015-4303-6,5134,3(a),6467,x=0,Ca1Zn2Sb2,655.5,0.000046013,0.00077138,0.00018946,2.2064,0.21717,21732.9885032491,0.0003496102
10954,10.1007/s11664-015-4303-6,5134,3(a),6467,x=0,Ca1Zn2Sb2,656,0.000046034,0.00077176,0.00018955,2.2045,0.21744,21723.0742494678,0.0003500839
10954,10.1007/s11664-015-4303-6,5134,3(a),6467,x=0,Ca1Zn2Sb2,656.5,0.000046055,0.00077214,0.00018964,2.2026,0.21772,21713.169037021,0.0003505584
10954,10.1007/s11664-015-4303-6,5134,3(a),6467,x=0,Ca1Zn2Sb2,657,0.000046077,0.00077253,0.00018973,2.2007,0.21799,21702.8018317165,0.0003510383
10954,10.1007/s11664-015-4303-6,5134,3(a),6467,x=0,Ca1Zn2Sb2,657.5,0.000046098,0.00077291,0.00018982,2.1988,0.21826,21692.9150939303,0.0003515145
10954,10.1007/s11664-015-4303-6,5134,3(a),6467,x=0,Ca1Zn2Sb2,658,0.00004612,0.00077329,0.00018992,2.1968,0.21854,21682.5672159584,0.0003520075
10954,10.1007/s11664-015-4303-6,5134,3(a),6467,x=0,Ca1Zn2Sb2,658.5,0.000046141,0.00077367,0.00019001,2.1949,0.21881,21672.6989011942,0.0003524853
10954,10.1007/s11664-015-4303-6,5134,3(a),6467,x=0,Ca1Zn2Sb2,659,0.000046163,0.00077406,0.0001901,2.193,0.21908,21662.3702965578,0.0003529685
10954,10.1007/s11664-015-4303-6,5134,3(a),6467,x=0,Ca1Zn2Sb2,659.5,0.000046184,0.00077444,0.00019019,2.1911,0.21936,21652.5203533691,0.000353448
10954,10.1007/s11664-015-4303-6,5134,3(a),6467,x=0,Ca1Zn2Sb2,660,0.000046205,0.00077482,0.00019028,2.1892,0.21963,21642.6793637052,0.0003539284
10954,10.1007/s11664-015-4303-6,5134,3(a),6467,x=0,Ca1Zn2Sb2,660.5,0.000046227,0.0007752,0.00019037,2.1873,0.2199,21632.3793454042,0.0003544095
10954,10.1007/s11664-015-4303-6,5134,3(a),6467,x=0,Ca1Zn2Sb2,661,0.000046248,0.00077558,0.00019047,2.1853,0.22018,21622.5566510984,0.0003549078
10954,10.1007/s11664-015-4303-6,5134,3(a),6467,x=0,Ca1Zn2Sb2,661.5,0.00004627,0.00077597,0.00019056,2.1834,0.22045,21612.2757726389,0.0003553953
10954,10.1007/s11664-015-4303-6,5134,3(a),6467,x=0,Ca1Zn2Sb2,662,0.000046291,0.00077635,0.00019065,2.1815,0.22073,21602.4713227193,0.000355879
10954,10.1007/s11664-015-4303-6,5134,3(a),6467,x=0,Ca1Zn2Sb2,662.5,0.000046313,0.00077673,0.00019074,2.1796,0.221,21592.2095308013,0.0003563636
10954,10.1007/s11664-015-4303-6,5134,3(a),6467,x=0,Ca1Zn2Sb2,663,0.000046334,0.00077711,0.00019083,2.1777,0.22127,21582.4232744853,0.000356849
10954,10.1007/s11664-015-4303-6,5134,3(a),6467,x=0,Ca1Zn2Sb2,663.5,0.000046355,0.0007775,0.00019092,2.1758,0.22155,21572.6458850178,0.0003573398
10954,10.1007/s11664-015-4303-6,5134,3(a),6467,x=0,Ca1Zn2Sb2,664,0.000046377,0.00077788,0.00019102,2.1738,0.22182,21562.4124026996,0.0003578434
10954,10.1007/s11664-015-4303-6,5134,3(a),6467,x=0,Ca1Zn2Sb2,664.5,0.000046398,0.00077826,0.00019111,2.1719,0.22209,21552.6531316005,0.0003583314
10954,10.1007/s11664-015-4303-6,5134,3(a),6467,x=0,Ca1Zn2Sb2,665,0.00004642,0.00077864,0.0001912,2.17,0.22237,21542.43860405,0.0003588203
10954,10.1007/s11664-015-4303-6,5134,3(a),6467,x=0,Ca1Zn2Sb2,665.5,0.000046441,0.00077903,0.00019129,2.1681,0.22264,21532.6974010034,0.0003593146
10954,10.1007/s11664-015-4303-6,5134,3(a),6467,x=0,Ca1Zn2Sb2,666,0.000046462,0.00077941,0.00019138,2.1662,0.22291,21522.9650036589,0.0003598052
10954,10.1007/s11664-015-4303-6,5134,3(a),6467,x=0,Ca1Zn2Sb2,666.5,0.000046484,0.00077979,0.00019147,2.1643,0.22319,21512.7785904827,0.0003602966
10954,10.1007/s11664-015-4303-6,5134,3(a),6467,x=0,Ca1Zn2Sb2,667,0.000046505,0.00078017,0.00019157,2.1623,0.22346,21503.0641866466,0.0003608056
10954,10.1007/s11664-015-4303-6,5134,3(a),6467,x=0,Ca1Zn2Sb2,667.5,0.000046527,0.00078055,0.00019166,2.1604,0.22373,21492.8965976745,0.0003612988
10954,10.1007/s11664-015-4303-6,5134,3(a),6467,x=0,Ca1Zn2Sb2,668,0.000046548,0.00078094,0.00019175,2.1585,0.22401,21483.2001374925,0.0003617975
10954,10.1007/s11664-015-4303-6,5134,3(a),6467,x=0,Ca1Zn2Sb2,668.5,0.00004657,0.00078132,0.00019184,2.1566,0.22428,21473.0513205927,0.0003622925
10954,10.1007/s11664-015-4303-6,5134,3(a),6467,x=0,Ca1Zn2Sb2,669,0.000046591,0.0007817,0.00019193,2.1547,0.22456,21463.3727543946,0.0003627883
10954,10.1007/s11664-015-4303-6,5134,3(a),6467,x=0,Ca1Zn2Sb2,669.5,0.000046612,0.00078208,0.00019202,2.1528,0.22483,21453.7029091221,0.000363285
10954,10.1007/s11664-015-4303-6,5134,3(a),6467,x=0,Ca1Zn2Sb2,670,0.000046634,0.00078247,0.00019212,2.1508,0.2251,21443.5819359266,0.0003638042
10954,10.1007/s11664-015-4303-6,5134,3(a),6467,x=0,Ca1Zn2Sb2,670.5,0.000046655,0.00078285,0.00019221,2.1489,0.22538,21433.9299110492,0.0003643027
10954,10.1007/s11664-015-4303-6,5134,3(a),6467,x=0,Ca1Zn2Sb2,671,0.000046677,0.00078323,0.0001923,2.147,0.22565,21423.8275810356,0.000364802
10954,10.1007/s11664-015-4303-6,5134,3(a),6467,x=0,Ca1Zn2Sb2,671.5,0.000046698,0.00078361,0.00019239,2.1451,0.22592,21414.1933273374,0.0003653023
10954,10.1007/s11664-015-4303-6,5134,3(a),6467,x=0,Ca1Zn2Sb2,672,0.00004672,0.000784,0.00019248,2.1432,0.2262,21404.1095890411,0.0003658081
10954,10.1007/s11664-015-4303-6,5134,3(a),6467,x=0,Ca1Zn2Sb2,672.5,0.000046741,0.00078438,0.00019257,2.1413,0.22647,21394.493057487,0.0003663102
10954,10.1007/s11664-015-4303-6,5134,3(a),6467,x=0,Ca1Zn2Sb2,673,0.000046762,0.00078476,0.00019267,2.1393,0.22674,21384.8851631667,0.0003668303
10954,10.1007/s11664-015-4303-6,5134,3(a),6467,x=0,Ca1Zn2Sb2,673.5,0.000046784,0.00078514,0.00019276,2.1374,0.22702,21374.829001368,0.0003673341
10954,10.1007/s11664-015-4303-6,5134,3(a),6467,x=0,Ca1Zn2Sb2,674,0.000046805,0.00078553,0.00019285,2.1355,0.22729,21365.2387565431,0.0003678436
10954,10.1007/s11664-015-4303-6,5134,3(a),6467,x=0,Ca1Zn2Sb2,674.5,0.000046827,0.00078591,0.00019294,2.1336,0.22757,21355.201059218,0.0003683493
10954,10.1007/s11664-015-4303-6,5134,3(a),6467,x=0,Ca1Zn2Sb2,675,0.000046848,0.00078629,0.00019303,2.1317,0.22784,21345.6284153005,0.0003688558
10954,10.1007/s11664-015-4303-6,5134,3(a),6467,x=0,Ca1Zn2Sb2,675.5,0.00004687,0.00078667,0.00019312,2.1298,0.22811,21335.6091316407,0.0003693633
10954,10.1007/s11664-015-4303-6,5134,3(a),6467,x=0,Ca1Zn2Sb2,676,0.000046891,0.00078705,0.00019322,2.1278,0.22839,21326.0540402209,0.0003698891
10954,10.1007/s11664-015-4303-6,5134,3(a),6467,x=0,Ca1Zn2Sb2,676.5,0.000046912,0.00078744,0.00019331,2.1259,0.22866,21316.5075034106,0.0003704031
10954,10.1007/s11664-015-4303-6,5134,3(a),6467,x=0,Ca1Zn2Sb2,677,0.000046934,0.00078782,0.0001934,2.124,0.22893,21306.5155324498,0.0003709134
10954,10.1007/s11664-015-4303-6,5134,3(a),6467,x=0,Ca1Zn2Sb2,677.5,0.000046955,0.0007882,0.00019349,2.1221,0.22921,21296.9864764136,0.0003714245
10954,10.1007/s11664-015-4303-6,5134,3(a),6467,x=0,Ca1Zn2Sb2,678,0.000046977,0.00078858,0.00019358,2.1202,0.22948,21287.0127934947,0.0003719366
10954,10.1007/s11664-015-4303-6,5134,3(a),6467,x=0,Ca1Zn2Sb2,678.5,0.000046998,0.00078897,0.00019367,2.1183,0.22975,21277.5011702626,0.0003724543
10954,10.1007/s11664-015-4303-6,5134,3(a),6467,x=0,Ca1Zn2Sb2,679,0.000047019,0.00078935,0.00019377,2.1163,0.23003,21267.9980433442,0.0003729859
10954,10.1007/s11664-015-4303-6,5134,3(a),6467,x=0,Ca1Zn2Sb2,679.5,0.000047041,0.00078973,0.00019386,2.1144,0.2303,21258.0514870007,0.0003735008
10954,10.1007/s11664-015-4303-6,5134,3(a),6467,x=0,Ca1Zn2Sb2,680,0.000047062,0.00079011,0.00019395,2.1125,0.23058,21248.5657218138,0.0003740166
10954,10.1007/s11664-015-4303-6,5134,3(a),6467,x=0,Ca1Zn2Sb2,680.5,0.000047084,0.0007905,0.00019404,2.1106,0.23085,21238.637329029,0.000374538
10954,10.1007/s11664-015-4303-6,5134,3(a),6467,x=0,Ca1Zn2Sb2,681,0.000047105,0.00079088,0.00019413,2.1087,0.23112,21229.1688780384,0.0003750557
10954,10.1007/s11664-015-4303-6,5134,3(a),6467,x=0,Ca1Zn2Sb2,681.5,0.000047127,0.00079126,0.00019422,2.1068,0.2314,21219.2585991045,0.0003755743
10954,10.1007/s11664-015-4303-6,5134,3(a),6467,x=0,Ca1Zn2Sb2,682,0.000047148,0.00079164,0.00019432,2.1048,0.23167,21209.8074149487,0.0003761117
10954,10.1007/s11664-015-4303-6,5134,3(a),6467,x=0,Ca1Zn2Sb2,682.5,0.000047169,0.00079202,0.00019441,2.1029,0.23194,21200.3646462719,0.0003766323
10954,10.1007/s11664-015-4303-6,5134,3(a),6467,x=0,Ca1Zn2Sb2,683,0.000047191,0.00079241,0.0001945,2.101,0.23222,21190.4812358289,0.0003771585
10954,10.1007/s11664-015-4303-6,5134,3(a),6467,x=0,Ca1Zn2Sb2,683.5,0.000047212,0.00079279,0.00019459,2.0991,0.23249,21181.0556638143,0.0003776809
10954,10.1007/s11664-015-4303-6,5134,3(a),6467,x=0,Ca1Zn2Sb2,684,0.000047234,0.00079317,0.00019468,2.0972,0.23276,21171.1902443155,0.0003782043
10954,10.1007/s11664-015-4303-6,5134,3(a),6467,x=0,Ca1Zn2Sb2,684.5,0.000047255,0.00079355,0.00019477,2.0953,0.23304,21161.7818220294,0.0003787286
10954,10.1007/s11664-015-4303-6,5134,3(a),6467,x=0,Ca1Zn2Sb2,685,0.000047277,0.00079394,0.00019487,2.0934,0.23331,21151.9343443958,0.0003792586
10954,10.1007/s11664-015-4303-6,5134,3(a),6467,x=0,Ca1Zn2Sb2,685.5,0.000047298,0.00079432,0.00019496,2.0914,0.23359,21142.5430250751,0.000379803
10954,10.1007/s11664-015-4303-6,5134,3(a),6467,x=0,Ca1Zn2Sb2,686,0.000047319,0.0007947,0.00019505,2.0895,0.23386,21133.160041421,0.0003803302
10954,10.1007/s11664-015-4303-6,5134,3(a),6467,x=0,Ca1Zn2Sb2,686.5,0.000047341,0.00079508,0.00019514,2.0876,0.23413,21123.3391774572,0.0003808584
10954,10.1007/s11664-015-4303-6,5134,3(a),6467,x=0,Ca1Zn2Sb2,687,0.000047362,0.00079547,0.00019523,2.0857,0.23441,21113.9732274819,0.0003813923
10954,10.1007/s11664-015-4303-6,5134,3(a),6467,x=0,Ca1Zn2Sb2,687.5,0.000047384,0.00079585,0.00019532,2.0838,0.23468,21104.1701840284,0.0003819224
10954,10.1007/s11664-015-4303-6,5134,3(a),6467,x=0,Ca1Zn2Sb2,688,0.000047405,0.00079623,0.00019542,2.0819,0.23495,21094.8212213901,0.0003824535
10954,10.1007/s11664-015-4303-6,5134,3(a),6467,x=0,Ca1Zn2Sb2,688.5,0.000047426,0.00079661,0.00019551,2.0799,0.23523,21085.4805381015,0.000383004
10954,10.1007/s11664-015-4303-6,5134,3(a),6467,x=0,Ca1Zn2Sb2,689,0.000047448,0.000797,0.0001956,2.078,0.2355,21075.7039285112,0.0003835419
10954,10.1007/s11664-015-4303-6,5134,3(a),6467,x=0,Ca1Zn2Sb2,689.5,0.000047469,0.00079738,0.00019569,2.0761,0.23577,21066.3801638964,0.0003840759
10954,10.1007/s11664-015-4303-6,5134,3(a),6467,x=0,Ca1Zn2Sb2,690,0.000047491,0.00079776,0.00019578,2.0742,0.23605,21056.6212545535,0.0003846109
10954,10.1007/s11664-015-4303-6,5134,3(a),6467,x=0,Ca1Zn2Sb2,690.5,0.000047512,0.00079814,0.00019587,2.0723,0.23632,21047.3143626873,0.0003851469
10954,10.1007/s11664-015-4303-6,5134,3(a),6467,x=0,Ca1Zn2Sb2,691,0.000047534,0.00079852,0.00019596,2.0704,0.23659,21037.5731055665,0.0003856839
10954,10.1007/s11664-015-4303-6,5134,3(a),6467,x=0,Ca1Zn2Sb2,691.5,0.000047555,0.00079891,0.00019606,2.0684,0.23687,21028.2830406897,0.0003862454
10954,10.1007/s11664-015-4303-6,5134,3(a),6467,x=0,Ca1Zn2Sb2,692,0.000047576,0.00079929,0.00019615,2.0665,0.23714,21019.0011770641,0.0003867844
10954,10.1007/s11664-015-4303-6,5134,3(a),6467,x=0,Ca1Zn2Sb2,692.5,0.000047598,0.00079967,0.00019624,2.0646,0.23742,21009.2861044582,0.0003873244
10954,10.1007/s11664-015-4303-6,5134,3(a),6467,x=0,Ca1Zn2Sb2,693,0.000047619,0.00080005,0.00019633,2.0627,0.23769,21000.021000021,0.0003878654
10954,10.1007/s11664-015-4303-6,5134,3(a),6467,x=0,Ca1Zn2Sb2,693.5,0.000047641,0.00080044,0.00019642,2.0608,0.23796,20990.3234608845,0.0003884123
10954,10.1007/s11664-015-4303-6,5134,3(a),6467,x=0,Ca1Zn2Sb2,694,0.000047662,0.00080082,0.00019651,2.0589,0.23824,20981.0750702866,0.0003889553
10954,10.1007/s11664-015-4303-6,5134,3(a),6467,x=0,Ca1Zn2Sb2,694.5,0.000047684,0.0008012,0.00019661,2.0569,0.23851,20971.3950171965,0.0003895182
10954,10.1007/s11664-015-4303-6,5134,3(a),6467,x=0,Ca1Zn2Sb2,695,0.000047705,0.00080158,0.0001967,2.055,0.23878,20962.1632952521,0.0003900633
10954,10.1007/s11664-015-4303-6,5134,3(a),6467,x=0,Ca1Zn2Sb2,695.5,0.000047726,0.00080197,0.00019679,2.0531,0.23906,20952.9396974396,0.0003906142
10954,10.1007/s11664-015-4303-6,5134,3(a),6467,x=0,Ca1Zn2Sb2,696,0.000047748,0.00080235,0.00019688,2.0512,0.23933,20943.2855826422,0.0003911613
10954,10.1007/s11664-015-4303-6,5134,3(a),6467,x=0,Ca1Zn2Sb2,696.5,0.000047769,0.00080273,0.00019697,2.0493,0.2396,20934.078586531,0.0003917094
10954,10.1007/s11664-015-4303-6,5134,3(a),6467,x=0,Ca1Zn2Sb2,697,0.000047791,0.00080311,0.00019706,2.0474,0.23988,20924.4418405139,0.0003922585
10954,10.1007/s11664-015-4303-6,5134,3(a),6467,x=0,Ca1Zn2Sb2,697.5,0.000047812,0.0008035,0.00019716,2.0454,0.24015,20915.2514013218,0.0003928327
10954,10.1007/s11664-015-4303-6,5134,3(a),6467,x=0,Ca1Zn2Sb2,698,0.000047833,0.00080388,0.00019725,2.0435,0.24043,20906.0690318399,0.0003933839
10954,10.1007/s11664-015-4303-6,5134,3(a),6467,x=0,Ca1Zn2Sb2,698.5,0.000047855,0.00080426,0.00019734,2.0416,0.2407,20896.4580503605,0.0003939361
10954,10.1007/s11664-015-4303-6,5134,3(a),6467,x=0,Ca1Zn2Sb2,699,0.000047876,0.00080464,0.00019743,2.0397,0.24097,20887.2921714429,0.0003944894
10954,10.1007/s11664-015-4303-6,5134,3(a),6467,x=0,Ca1Zn2Sb2,699.5,0.000047898,0.00080502,0.00019752,2.0378,0.24125,20877.6984425237,0.0003950437
10954,10.1007/s11664-015-4303-6,5134,3(a),6467,x=0,Ca1Zn2Sb2,700,0.000047919,0.00080541,0.00019761,2.0359,0.24152,20868.5490097873,0.0003956039
10954,10.1007/s11664-015-4303-6,5134,3(a),6467,x=0,Ca1Zn2Sb2,700.5,0.000047941,0.00080579,0.00019771,2.0339,0.24179,20858.9724870153,0.0003961798
10954,10.1007/s11664-015-4303-6,5134,3(a),6467,x=0,Ca1Zn2Sb2,701,0.000047962,0.00080617,0.0001978,2.032,0.24207,20849.8394562362,0.0003967372
10954,10.1007/s11664-015-4303-6,5134,3(a),6467,x=0,Ca1Zn2Sb2,701.5,0.000047983,0.00080655,0.00019789,2.0301,0.24234,20840.7144196903,0.0003972957
10954,10.1007/s11664-015-4303-6,5134,3(a),6467,x=0,Ca1Zn2Sb2,702,0.000048005,0.00080694,0.00019798,2.0282,0.24261,20831.163420477,0.0003978602
10954,10.1007/s11664-015-4303-6,5134,3(a),6467,x=0,Ca1Zn2Sb2,702.5,0.000048026,0.00080732,0.00019807,2.0263,0.24289,20822.0547203598,0.0003984208
10954,10.1007/s11664-015-4303-6,5134,3(a),6467,x=0,Ca1Zn2Sb2,703,0.000048048,0.0008077,0.00019816,2.0244,0.24316,20812.5208125208,0.0003989824
10954,10.1007/s11664-015-4303-6,5134,3(a),6467,x=0,Ca1Zn2Sb2,703.5,0.000048069,0.00080808,0.00019826,2.0224,0.24344,20803.4284050011,0.0003995649
10954,10.1007/s11664-015-4303-6,5134,3(a),6467,x=0,Ca1Zn2Sb2,704,0.000048091,0.00080847,0.00019835,2.0205,0.24371,20793.9115427003,0.0004001336
10954,10.1007/s11664-015-4303-6,5134,3(a),6467,x=0,Ca1Zn2Sb2,704.5,0.000048112,0.00080885,0.00019844,2.0186,0.24398,20784.8353841038,0.0004006985
10954,10.1007/s11664-015-4303-6,5134,3(a),6467,x=0,Ca1Zn2Sb2,705,0.000048133,0.00080923,0.00019853,2.0167,0.24426,20775.7671452018,0.0004012644
10954,10.1007/s11664-015-4303-6,5134,3(a),6467,x=0,Ca1Zn2Sb2,705.5,0.000048155,0.00080961,0.00019862,2.0148,0.24453,20766.2755684768,0.0004018314
10954,10.1007/s11664-015-4303-6,5134,3(a),6467,x=0,Ca1Zn2Sb2,706,0.000048176,0.00080999,0.00019871,2.0129,0.2448,20757.2235137828,0.0004023995
10954,10.1007/s11664-015-4303-6,5134,3(a),6467,x=0,Ca1Zn2Sb2,706.5,0.000048198,0.00081038,0.00019881,2.0109,0.24508,20747.7488692477,0.0004029937
10954,10.1007/s11664-015-4303-6,5134,3(a),6467,x=0,Ca1Zn2Sb2,707,0.000048219,0.00081076,0.0001989,2.009,0.24535,20738.712955474,0.000403564
10954,10.1007/s11664-015-4303-6,5134,3(a),6467,x=0,Ca1Zn2Sb2,707.5,0.000048241,0.00081114,0.00019899,2.0071,0.24562,20729.2551978607,0.0004041353
10954,10.1007/s11664-015-4303-6,5134,3(a),6467,x=0,Ca1Zn2Sb2,708,0.000048262,0.00081152,0.00019908,2.0052,0.2459,20720.2353818739,0.0004047078
10954,10.1007/s11664-015-4303-6,5134,3(a),6467,x=0,Ca1Zn2Sb2,708.5,0.000048283,0.00081191,0.00019917,2.0033,0.24617,20711.2234119669,0.0004052863