sid,DOI,figureid,fignum,sampleid,samplename,composition,Temperature,Electrical resistivity,Power factor,Seebeck coefficient,Thermal conductivity,ZT,Electrical conductivity,Figure of merit Z
73,10.1016/j.actamat.2015.04.023,4591,3(a),5857,x=0,Mg3Sb2,521.5,0.13683,0.00010284,0.0006092,0.9975,0.089014,7.3083388146,0.0001030977
73,10.1016/j.actamat.2015.04.023,4591,3(a),5857,x=0,Mg3Sb2,522,0.13619,0.00010316,0.00060851,0.99687,0.089318,7.3426830164,0.0001034839
73,10.1016/j.actamat.2015.04.023,4591,3(a),5857,x=0,Mg3Sb2,522.5,0.13555,0.00010349,0.00060782,0.99624,0.089621,7.3773515308,0.0001038806
73,10.1016/j.actamat.2015.04.023,4591,3(a),5857,x=0,Mg3Sb2,523,0.13491,0.00010381,0.00060713,0.9956,0.089925,7.4123489734,0.0001042688
73,10.1016/j.actamat.2015.04.023,4591,3(a),5857,x=0,Mg3Sb2,523.5,0.13427,0.00010414,0.00060644,0.99497,0.090229,7.4476800477,0.0001046665
73,10.1016/j.actamat.2015.04.023,4591,3(a),5857,x=0,Mg3Sb2,524,0.13363,0.00010446,0.00060575,0.99434,0.090532,7.4833495473,0.0001050546
73,10.1016/j.actamat.2015.04.023,4591,3(a),5857,x=0,Mg3Sb2,524.5,0.13298,0.00010479,0.00060507,0.99371,0.090836,7.5199278087,0.0001054533
73,10.1016/j.actamat.2015.04.023,4591,3(a),5857,x=0,Mg3Sb2,525,0.13234,0.00010511,0.00060438,0.99307,0.091139,7.5562943932,0.0001058435
73,10.1016/j.actamat.2015.04.023,4591,3(a),5857,x=0,Mg3Sb2,525.5,0.1317,0.00010544,0.00060369,0.99244,0.091443,7.5930144267,0.0001062432
73,10.1016/j.actamat.2015.04.023,4591,3(a),5857,x=0,Mg3Sb2,526,0.13106,0.00010576,0.000603,0.99181,0.091746,7.6300930871,0.0001066333
73,10.1016/j.actamat.2015.04.023,4591,3(a),5857,x=0,Mg3Sb2,526.5,0.13042,0.00010609,0.00060231,0.99118,0.09205,7.667535654,0.000107034
73,10.1016/j.actamat.2015.04.023,4591,3(a),5857,x=0,Mg3Sb2,527,0.12978,0.00010641,0.00060162,0.99054,0.092353,7.7053475112,0.0001074263
73,10.1016/j.actamat.2015.04.023,4591,3(a),5857,x=0,Mg3Sb2,527.5,0.12914,0.00010674,0.00060093,0.98991,0.092657,7.743534149,0.000107828
73,10.1016/j.actamat.2015.04.023,4591,3(a),5857,x=0,Mg3Sb2,528,0.1285,0.00010706,0.00060024,0.98928,0.09296,7.7821011673,0.0001082201
73,10.1016/j.actamat.2015.04.023,4591,3(a),5857,x=0,Mg3Sb2,528.5,0.12786,0.00010739,0.00059955,0.98865,0.093264,7.8210542781,0.0001086229
73,10.1016/j.actamat.2015.04.023,4591,3(a),5857,x=0,Mg3Sb2,529,0.12721,0.00010771,0.00059886,0.98801,0.093567,7.8610172156,0.0001090171
73,10.1016/j.actamat.2015.04.023,4591,3(a),5857,x=0,Mg3Sb2,529.5,0.12657,0.00010804,0.00059817,0.98738,0.093871,7.9007663743,0.0001094209
73,10.1016/j.actamat.2015.04.023,4591,3(a),5857,x=0,Mg3Sb2,530,0.12593,0.00010836,0.00059748,0.98675,0.094174,7.9409195585,0.000109815
73,10.1016/j.actamat.2015.04.023,4591,3(a),5857,x=0,Mg3Sb2,530.5,0.12529,0.00010868,0.00059679,0.98612,0.094478,7.9814829595,0.0001102097
73,10.1016/j.actamat.2015.04.023,4591,3(a),5857,x=0,Mg3Sb2,531,0.12465,0.00010901,0.0005961,0.98548,0.094782,8.0224628961,0.0001106161
73,10.1016/j.actamat.2015.04.023,4591,3(a),5857,x=0,Mg3Sb2,531.5,0.12401,0.00010933,0.00059541,0.98485,0.095085,8.0638658173,0.0001110118
73,10.1016/j.actamat.2015.04.023,4591,3(a),5857,x=0,Mg3Sb2,532,0.12337,0.00010966,0.00059472,0.98422,0.095389,8.1056983059,0.0001114182
73,10.1016/j.actamat.2015.04.023,4591,3(a),5857,x=0,Mg3Sb2,532.5,0.12273,0.00010998,0.00059403,0.98359,0.095692,8.1479670822,0.0001118149
73,10.1016/j.actamat.2015.04.023,4591,3(a),5857,x=0,Mg3Sb2,533,0.12209,0.00011031,0.00059334,0.98295,0.095996,8.1906790073,0.0001122234
73,10.1016/j.actamat.2015.04.023,4591,3(a),5857,x=0,Mg3Sb2,533.5,0.12145,0.00011063,0.00059265,0.98232,0.096299,8.2338410869,0.0001126211
73,10.1016/j.actamat.2015.04.023,4591,3(a),5857,x=0,Mg3Sb2,534,0.1208,0.00011096,0.00059196,0.98169,0.096603,8.2781456954,0.0001130296
73,10.1016/j.actamat.2015.04.023,4591,3(a),5857,x=0,Mg3Sb2,534.5,0.12016,0.00011128,0.00059127,0.98106,0.096906,8.3222370173,0.0001134283
73,10.1016/j.actamat.2015.04.023,4591,3(a),5857,x=0,Mg3Sb2,535,0.11952,0.00011161,0.00059058,0.98042,0.09721,8.3668005355,0.000113839
73,10.1016/j.actamat.2015.04.023,4591,3(a),5857,x=0,Mg3Sb2,535.5,0.11888,0.00011193,0.00058989,0.97979,0.097513,8.4118438762,0.0001142388
73,10.1016/j.actamat.2015.04.023,4591,3(a),5857,x=0,Mg3Sb2,536,0.11824,0.00011226,0.0005892,0.97916,0.097817,8.4573748309,0.0001146493
73,10.1016/j.actamat.2015.04.023,4591,3(a),5857,x=0,Mg3Sb2,536.5,0.1176,0.00011258,0.00058851,0.97853,0.09812,8.5034013605,0.0001150501
73,10.1016/j.actamat.2015.04.023,4591,3(a),5857,x=0,Mg3Sb2,537,0.11696,0.00011291,0.00058783,0.97789,0.098424,8.5499316005,0.0001154629
73,10.1016/j.actamat.2015.04.023,4591,3(a),5857,x=0,Mg3Sb2,537.5,0.11632,0.00011323,0.00058714,0.97726,0.098727,8.5969738652,0.0001158648
73,10.1016/j.actamat.2015.04.023,4591,3(a),5857,x=0,Mg3Sb2,538,0.11568,0.00011356,0.00058645,0.97663,0.099031,8.6445366528,0.0001162774
73,10.1016/j.actamat.2015.04.023,4591,3(a),5857,x=0,Mg3Sb2,538.5,0.11503,0.00011388,0.00058576,0.97599,0.099335,8.6933843345,0.0001166815
73,10.1016/j.actamat.2015.04.023,4591,3(a),5857,x=0,Mg3Sb2,539,0.11439,0.00011421,0.00058507,0.97536,0.099638,8.7420229041,0.0001170952
73,10.1016/j.actamat.2015.04.023,4591,3(a),5857,x=0,Mg3Sb2,539.5,0.11375,0.00011453,0.00058438,0.97473,0.099942,8.7912087912,0.0001174992
73,10.1016/j.actamat.2015.04.023,4591,3(a),5857,x=0,Mg3Sb2,540,0.11311,0.00011486,0.00058369,0.9741,0.10025,8.8409512864,0.000117914
73,10.1016/j.actamat.2015.04.023,4591,3(a),5857,x=0,Mg3Sb2,540.5,0.11247,0.00011518,0.000583,0.97346,0.10055,8.8912598915,0.0001183202
73,10.1016/j.actamat.2015.04.023,4591,3(a),5857,x=0,Mg3Sb2,541,0.11183,0.0001155,0.00058231,0.97283,0.10085,8.9421443262,0.0001187258
73,10.1016/j.actamat.2015.04.023,4591,3(a),5857,x=0,Mg3Sb2,541.5,0.11119,0.00011583,0.00058162,0.9722,0.10116,8.9936145337,0.0001191422
73,10.1016/j.actamat.2015.04.023,4591,3(a),5857,x=0,Mg3Sb2,542,0.11055,0.00011615,0.00058093,0.97157,0.10146,9.0456806875,0.0001195488
73,10.1016/j.actamat.2015.04.023,4591,3(a),5857,x=0,Mg3Sb2,542.5,0.10991,0.00011648,0.00058024,0.97093,0.10176,9.0983531981,0.0001199675
73,10.1016/j.actamat.2015.04.023,4591,3(a),5857,x=0,Mg3Sb2,543,0.10927,0.0001168,0.00057955,0.9703,0.10207,9.1516427199,0.0001203751
73,10.1016/j.actamat.2015.04.023,4591,3(a),5857,x=0,Mg3Sb2,543.5,0.10862,0.00011713,0.00057886,0.96967,0.10237,9.2064076597,0.0001207937
73,10.1016/j.actamat.2015.04.023,4591,3(a),5857,x=0,Mg3Sb2,544,0.10798,0.00011745,0.00057817,0.96904,0.10267,9.2609742545,0.0001212024
73,10.1016/j.actamat.2015.04.023,4591,3(a),5857,x=0,Mg3Sb2,544.5,0.10734,0.00011778,0.00057748,0.9684,0.10298,9.3161915409,0.0001216233
73,10.1016/j.actamat.2015.04.023,4591,3(a),5857,x=0,Mg3Sb2,545,0.1067,0.0001181,0.00057679,0.96777,0.10328,9.3720712277,0.0001220331
73,10.1016/j.actamat.2015.04.023,4591,3(a),5857,x=0,Mg3Sb2,545.5,0.10606,0.00011843,0.0005761,0.96714,0.10358,9.4286253064,0.0001224538
73,10.1016/j.actamat.2015.04.023,4591,3(a),5857,x=0,Mg3Sb2,546,0.10542,0.00011875,0.00057541,0.96651,0.10389,9.4858660596,0.0001228647
73,10.1016/j.actamat.2015.04.023,4591,3(a),5857,x=0,Mg3Sb2,546.5,0.10478,0.00011908,0.00057472,0.96587,0.10419,9.5438060699,0.0001232878
73,10.1016/j.actamat.2015.04.023,4591,3(a),5857,x=0,Mg3Sb2,547,0.10414,0.0001194,0.00057403,0.96524,0.10449,9.6024582293,0.0001236998
73,10.1016/j.actamat.2015.04.023,4591,3(a),5857,x=0,Mg3Sb2,547.5,0.1035,0.00011973,0.00057334,0.96461,0.1048,9.6618357488,0.0001241227
73,10.1016/j.actamat.2015.04.023,4591,3(a),5857,x=0,Mg3Sb2,548,0.10285,0.00012005,0.00057265,0.96398,0.1051,9.7228974234,0.0001245358
73,10.1016/j.actamat.2015.04.023,4591,3(a),5857,x=0,Mg3Sb2,548.5,0.10221,0.00012038,0.00057196,0.96334,0.10541,9.7837784953,0.0001249611
73,10.1016/j.actamat.2015.04.023,4591,3(a),5857,x=0,Mg3Sb2,549,0.10157,0.0001207,0.00057128,0.96271,0.10571,9.8454267993,0.0001253752
73,10.1016/j.actamat.2015.04.023,4591,3(a),5857,x=0,Mg3Sb2,549.5,0.10093,0.00012103,0.00057059,0.96208,0.10601,9.9078569305,0.0001258003
73,10.1016/j.actamat.2015.04.023,4591,3(a),5857,x=0,Mg3Sb2,550,0.10029,0.00012135,0.0005699,0.96145,0.10632,9.9710838568,0.0001262156
73,10.1016/j.actamat.2015.04.023,4591,3(a),5857,x=0,Mg3Sb2,550.5,0.099649,0.00012167,0.00056921,0.96081,0.10662,10.035223635,0.0001266327
73,10.1016/j.actamat.2015.04.023,4591,3(a),5857,x=0,Mg3Sb2,551,0.099008,0.000122,0.00056852,0.96018,0.10692,10.1001939237,0.0001270595
73,10.1016/j.actamat.2015.04.023,4591,3(a),5857,x=0,Mg3Sb2,551.5,0.098367,0.00012232,0.00056783,0.95955,0.10723,10.166010959,0.0001274764
73,10.1016/j.actamat.2015.04.023,4591,3(a),5857,x=0,Mg3Sb2,552,0.097726,0.00012265,0.00056714,0.95892,0.10753,10.2326914025,0.0001279043
73,10.1016/j.actamat.2015.04.023,4591,3(a),5857,x=0,Mg3Sb2,552.5,0.097085,0.00012297,0.00056645,0.95828,0.10783,10.3002523562,0.0001283237
73,10.1016/j.actamat.2015.04.023,4591,3(a),5857,x=0,Mg3Sb2,553,0.096444,0.0001233,0.00056576,0.95765,0.10814,10.3687113766,0.0001287527
73,10.1016/j.actamat.2015.04.023,4591,3(a),5857,x=0,Mg3Sb2,553.5,0.095803,0.00012362,0.00056507,0.95702,0.10844,10.43808649,0.0001291718
73,10.1016/j.actamat.2015.04.023,4591,3(a),5857,x=0,Mg3Sb2,554,0.095162,0.00012395,0.00056438,0.95639,0.10874,10.5083962086,0.0001296019
73,10.1016/j.actamat.2015.04.023,4591,3(a),5857,x=0,Mg3Sb2,554.5,0.094521,0.00012427,0.00056369,0.95575,0.10905,10.5796595466,0.0001300235
73,10.1016/j.actamat.2015.04.023,4591,3(a),5857,x=0,Mg3Sb2,555,0.09388,0.0001246,0.000563,0.95512,0.10935,10.6518960375,0.0001304548
73,10.1016/j.actamat.2015.04.023,4591,3(a),5857,x=0,Mg3Sb2,555.5,0.093239,0.00012492,0.00056231,0.95449,0.10965,10.7251257521,0.0001308762
73,10.1016/j.actamat.2015.04.023,4591,3(a),5857,x=0,Mg3Sb2,556,0.092598,0.00012525,0.00056162,0.95386,0.10996,10.7993693168,0.0001313086
73,10.1016/j.actamat.2015.04.023,4591,3(a),5857,x=0,Mg3Sb2,556.5,0.091957,0.00012557,0.00056093,0.95322,0.11026,10.8746479333,0.0001317324
73,10.1016/j.actamat.2015.04.023,4591,3(a),5857,x=0,Mg3Sb2,557,0.091316,0.0001259,0.00056024,0.95259,0.11057,10.9509833983,0.000132166
73,10.1016/j.actamat.2015.04.023,4591,3(a),5857,x=0,Mg3Sb2,557.5,0.090674,0.00012622,0.00055955,0.95196,0.11087,11.0285197521,0.0001325896
73,10.1016/j.actamat.2015.04.023,4591,3(a),5857,x=0,Mg3Sb2,558,0.090033,0.00012655,0.00055886,0.95132,0.11117,11.1070385303,0.0001330257
73,10.1016/j.actamat.2015.04.023,4591,3(a),5857,x=0,Mg3Sb2,558.5,0.089392,0.00012687,0.00055817,0.95069,0.11148,11.1866833721,0.0001334504
73,10.1016/j.actamat.2015.04.023,4591,3(a),5857,x=0,Mg3Sb2,559,0.088751,0.0001272,0.00055748,0.95006,0.11178,11.2674786763,0.0001338863
73,10.1016/j.actamat.2015.04.023,4591,3(a),5857,x=0,Mg3Sb2,559.5,0.08811,0.00012752,0.00055679,0.94943,0.11208,11.3494495517,0.0001343122
73,10.1016/j.actamat.2015.04.023,4591,3(a),5857,x=0,Mg3Sb2,560,0.087469,0.00012785,0.0005561,0.94879,0.11239,11.4326218432,0.0001347506
73,10.1016/j.actamat.2015.04.023,4591,3(a),5857,x=0,Mg3Sb2,560.5,0.086828,0.00012817,0.00055541,0.94816,0.11269,11.5170221588,0.0001351776
73,10.1016/j.actamat.2015.04.023,4591,3(a),5857,x=0,Mg3Sb2,561,0.086187,0.00012849,0.00055473,0.94753,0.11299,11.6026778981,0.0001356052
73,10.1016/j.actamat.2015.04.023,4591,3(a),5857,x=0,Mg3Sb2,561.5,0.085546,0.00012882,0.00055404,0.9469,0.1133,11.6896172819,0.0001360439
73,10.1016/j.actamat.2015.04.023,4591,3(a),5857,x=0,Mg3Sb2,562,0.084905,0.00012914,0.00055335,0.94626,0.1136,11.7778693834,0.0001364741
73,10.1016/j.actamat.2015.04.023,4591,3(a),5857,x=0,Mg3Sb2,562.5,0.084264,0.00012947,0.00055266,0.94563,0.1139,11.8674641603,0.000136914
73,10.1016/j.actamat.2015.04.023,4591,3(a),5857,x=0,Mg3Sb2,563,0.083623,0.00012979,0.00055197,0.945,0.11421,11.9584324887,0.0001373439
73,10.1016/j.actamat.2015.04.023,4591,3(a),5857,x=0,Mg3Sb2,563.5,0.082982,0.00013012,0.00055128,0.94437,0.11451,12.0508061989,0.000137785
73,10.1016/j.actamat.2015.04.023,4591,3(a),5857,x=0,Mg3Sb2,564,0.082341,0.00013044,0.00055059,0.94373,0.11481,12.1446181125,0.0001382175
73,10.1016/j.actamat.2015.04.023,4591,3(a),5857,x=0,Mg3Sb2,564.5,0.0817,0.00013077,0.0005499,0.9431,0.11512,12.2399020808,0.0001386597
73,10.1016/j.actamat.2015.04.023,4591,3(a),5857,x=0,Mg3Sb2,565,0.081059,0.00013109,0.00054921,0.94247,0.11542,12.3366930261,0.000139092
73,10.1016/j.actamat.2015.04.023,4591,3(a),5857,x=0,Mg3Sb2,565.5,0.080418,0.00013142,0.00054852,0.94184,0.11573,12.435026984,0.0001395354
73,10.1016/j.actamat.2015.04.023,4591,3(a),5857,x=0,Mg3Sb2,566,0.079776,0.00013174,0.00054783,0.9412,0.11603,12.5350982752,0.0001399703
73,10.1016/j.actamat.2015.04.023,4591,3(a),5857,x=0,Mg3Sb2,566.5,0.079135,0.00013207,0.00054714,0.94057,0.11633,12.6366336008,0.0001404149
73,10.1016/j.actamat.2015.04.023,4591,3(a),5857,x=0,Mg3Sb2,567,0.078494,0.00013239,0.00054645,0.93994,0.11664,12.7398272479,0.0001408494
73,10.1016/j.actamat.2015.04.023,4591,3(a),5857,x=0,Mg3Sb2,567.5,0.077853,0.00013272,0.00054576,0.93931,0.11694,12.8447201778,0.0001412952
73,10.1016/j.actamat.2015.04.023,4591,3(a),5857,x=0,Mg3Sb2,568,0.077212,0.00013304,0.00054507,0.93867,0.11724,12.9513547117,0.0001417325
73,10.1016/j.actamat.2015.04.023,4591,3(a),5857,x=0,Mg3Sb2,568.5,0.076571,0.00013337,0.00054438,0.93804,0.11755,13.0597745883,0.0001421794
73,10.1016/j.actamat.2015.04.023,4591,3(a),5857,x=0,Mg3Sb2,569,0.07593,0.00013369,0.00054369,0.93741,0.11785,13.170025023,0.0001426164
73,10.1016/j.actamat.2015.04.023,4591,3(a),5857,x=0,Mg3Sb2,569.5,0.075289,0.00013402,0.000543,0.93678,0.11815,13.2821527713,0.0001430645
73,10.1016/j.actamat.2015.04.023,4591,3(a),5857,x=0,Mg3Sb2,570,0.074648,0.00013434,0.00054231,0.93614,0.11846,13.3962061944,0.0001435042
73,10.1016/j.actamat.2015.04.023,4591,3(a),5857,x=0,Mg3Sb2,570.5,0.074007,0.00013466,0.00054162,0.93551,0.11876,13.5122353291,0.0001439429
73,10.1016/j.actamat.2015.04.023,4591,3(a),5857,x=0,Mg3Sb2,571,0.073366,0.00013499,0.00054093,0.93488,0.11906,13.6302919609,0.0001443929
73,10.1016/j.actamat.2015.04.023,4591,3(a),5857,x=0,Mg3Sb2,571.5,0.072725,0.00013531,0.00054024,0.93425,0.11937,13.7504297009,0.0001448328
73,10.1016/j.actamat.2015.04.023,4591,3(a),5857,x=0,Mg3Sb2,572,0.072084,0.00013564,0.00053955,0.93361,0.11967,13.8727040675,0.0001452855
73,10.1016/j.actamat.2015.04.023,4591,3(a),5857,x=0,Mg3Sb2,572.5,0.071443,0.00013596,0.00053886,0.93298,0.11997,13.9971725711,0.0001457266
73,10.1016/j.actamat.2015.04.023,4591,3(a),5857,x=0,Mg3Sb2,573,0.070802,0.00013629,0.00053818,0.93235,0.12028,14.1238948052,0.000146179
73,10.1016/j.actamat.2015.04.023,4591,3(a),5857,x=0,Mg3Sb2,573.5,0.070161,0.00013661,0.00053749,0.93172,0.12058,14.2529325409,0.0001466213
73,10.1016/j.actamat.2015.04.023,4591,3(a),5857,x=0,Mg3Sb2,574,0.06952,0.00013694,0.0005368,0.93108,0.12089,14.3843498274,0.0001470765
73,10.1016/j.actamat.2015.04.023,4591,3(a),5857,x=0,Mg3Sb2,574.5,0.068878,0.00013726,0.00053611,0.93045,0.12119,14.5184238799,0.00014752
73,10.1016/j.actamat.2015.04.023,4591,3(a),5857,x=0,Mg3Sb2,575,0.068237,0.00013759,0.00053542,0.92982,0.12149,14.6548060436,0.0001479749
73,10.1016/j.actamat.2015.04.023,4591,3(a),5857,x=0,Mg3Sb2,575.5,0.067596,0.00013791,0.00053473,0.92919,0.1218,14.7937747796,0.0001484196
73,10.1016/j.actamat.2015.04.023,4591,3(a),5857,x=0,Mg3Sb2,576,0.066955,0.00013824,0.00053404,0.92855,0.1221,14.9354043761,0.0001488773
73,10.1016/j.actamat.2015.04.023,4591,3(a),5857,x=0,Mg3Sb2,576.5,0.066314,0.00013856,0.00053335,0.92792,0.1224,15.0797719938,0.0001493232
73,10.1016/j.actamat.2015.04.023,4591,3(a),5857,x=0,Mg3Sb2,577,0.065673,0.00013889,0.00053266,0.92729,0.12271,15.2269578061,0.0001497805
73,10.1016/j.actamat.2015.04.023,4591,3(a),5857,x=0,Mg3Sb2,577.5,0.065032,0.00013921,0.00053197,0.92665,0.12301,15.377045147,0.0001502293
73,10.1016/j.actamat.2015.04.023,4591,3(a),5857,x=0,Mg3Sb2,578,0.064391,0.00013954,0.00053128,0.92602,0.12331,15.530120669,0.0001506879
73,10.1016/j.actamat.2015.04.023,4591,3(a),5857,x=0,Mg3Sb2,578.5,0.06375,0.00013986,0.00053059,0.92539,0.12362,15.6862745098,0.0001511363
73,10.1016/j.actamat.2015.04.023,4591,3(a),5857,x=0,Mg3Sb2,579,0.063109,0.00014019,0.0005299,0.92476,0.12392,15.845600469,0.0001515961
73,10.1016/j.actamat.2015.04.023,4591,3(a),5857,x=0,Mg3Sb2,579.5,0.062468,0.00014051,0.00052921,0.92412,0.12422,16.0081961965,0.0001520474
73,10.1016/j.actamat.2015.04.023,4591,3(a),5857,x=0,Mg3Sb2,580,0.061827,0.00014083,0.00052852,0.92349,0.12453,16.1741633914,0.0001524976
73,10.1016/j.actamat.2015.04.023,4591,3(a),5857,x=0,Mg3Sb2,580.5,0.061186,0.00014116,0.00052783,0.92286,0.12483,16.3436080149,0.0001529593
73,10.1016/j.actamat.2015.04.023,4591,3(a),5857,x=0,Mg3Sb2,581,0.060545,0.00014148,0.00052714,0.92223,0.12513,16.5166405153,0.0001534108
73,10.1016/j.actamat.2015.04.023,4591,3(a),5857,x=0,Mg3Sb2,581.5,0.059904,0.00014181,0.00052645,0.92159,0.12544,16.6933760684,0.0001538754
73,10.1016/j.actamat.2015.04.023,4591,3(a),5857,x=0,Mg3Sb2,582,0.059263,0.00014213,0.00052576,0.92096,0.12574,16.8739348329,0.0001543281
73,10.1016/j.actamat.2015.04.023,4591,3(a),5857,x=0,Mg3Sb2,582.5,0.058622,0.00014246,0.00052507,0.92033,0.12605,17.0584422231,0.0001547923
73,10.1016/j.actamat.2015.04.023,4591,3(a),5857,x=0,Mg3Sb2,583,0.057981,0.00014278,0.00052438,0.9197,0.12635,17.2470291992,0.0001552463
73,10.1016/j.actamat.2015.04.023,4591,3(a),5857,x=0,Mg3Sb2,583.5,0.057339,0.00014311,0.00052369,0.91906,0.12665,17.4401367307,0.0001557134
73,10.1016/j.actamat.2015.04.023,4591,3(a),5857,x=0,Mg3Sb2,584,0.056698,0.00014343,0.000523,0.91843,0.12696,17.6373064306,0.0001561687
73,10.1016/j.actamat.2015.04.023,4591,3(a),5857,x=0,Mg3Sb2,584.5,0.056057,0.00014376,0.00052231,0.9178,0.12726,17.8389853185,0.0001566354
73,10.1016/j.actamat.2015.04.023,4591,3(a),5857,x=0,Mg3Sb2,585,0.055416,0.00014408,0.00052163,0.91717,0.12756,18.0453298686,0.0001570919
73,10.1016/j.actamat.2015.04.023,4591,3(a),5857,x=0,Mg3Sb2,585.5,0.054775,0.00014441,0.00052094,0.91653,0.12787,18.2565038795,0.0001575617
73,10.1016/j.actamat.2015.04.023,4591,3(a),5857,x=0,Mg3Sb2,586,0.054134,0.00014473,0.00052025,0.9159,0.12817,18.4726789079,0.0001580194
73,10.1016/j.actamat.2015.04.023,4591,3(a),5857,x=0,Mg3Sb2,586.5,0.053493,0.00014506,0.00051956,0.91527,0.12847,18.6940347335,0.0001584888
73,10.1016/j.actamat.2015.04.023,4591,3(a),5857,x=0,Mg3Sb2,587,0.052852,0.00014538,0.00051887,0.91464,0.12878,18.9207598577,0.0001589478
73,10.1016/j.actamat.2015.04.023,4591,3(a),5857,x=0,Mg3Sb2,587.5,0.052211,0.00014571,0.00051818,0.914,0.12908,19.1530520388,0.0001594201
73,10.1016/j.actamat.2015.04.023,4591,3(a),5857,x=0,Mg3Sb2,588,0.05157,0.00014603,0.00051749,0.91337,0.12938,19.3911188676,0.0001598804
73,10.1016/j.actamat.2015.04.023,4591,3(a),5857,x=0,Mg3Sb2,588.5,0.050929,0.00014636,0.0005168,0.91274,0.12969,19.6351783856,0.0001603523
73,10.1016/j.actamat.2015.04.023,4591,3(a),5857,x=0,Mg3Sb2,589,0.050288,0.00014668,0.00051611,0.91211,0.12999,19.8854597518,0.0001608139
73,10.1016/j.actamat.2015.04.023,4591,3(a),5857,x=0,Mg3Sb2,589.5,0.049647,0.00014701,0.00051542,0.91147,0.13029,20.14220396,0.0001612889
73,10.1016/j.actamat.2015.04.023,4591,3(a),5857,x=0,Mg3Sb2,590,0.049006,0.00014733,0.00051473,0.91084,0.1306,20.4056646125,0.0001617518
73,10.1016/j.actamat.2015.04.023,4591,3(a),5857,x=0,Mg3Sb2,590.5,0.048365,0.00014765,0.00051404,0.91021,0.1309,20.6761087563,0.0001622153
73,10.1016/j.actamat.2015.04.023,4591,3(a),5857,x=0,Mg3Sb2,591,0.047724,0.00014798,0.00051335,0.90958,0.13121,20.9538177856,0.0001626905
73,10.1016/j.actamat.2015.04.023,4591,3(a),5857,x=0,Mg3Sb2,591.5,0.047083,0.0001483,0.00051266,0.90894,0.13151,21.2390884183,0.0001631571
73,10.1016/j.actamat.2015.04.023,4591,3(a),5857,x=0,Mg3Sb2,592,0.046441,0.00014863,0.00051197,0.90831,0.13181,21.532697401,0.0001636336
73,10.1016/j.actamat.2015.04.023,4591,3(a),5857,x=0,Mg3Sb2,592.5,0.0458,0.00014895,0.00051128,0.90768,0.13212,21.8340611354,0.0001640997
73,10.1016/j.actamat.2015.04.023,4591,3(a),5857,x=0,Mg3Sb2,593,0.045159,0.00014928,0.00051059,0.90705,0.13242,22.143980159,0.0001645775