sid,DOI,figureid,fignum,sampleid,samplename,composition,Temperature,Electrical resistivity,Power factor,Seebeck coefficient,Thermal conductivity,ZT,Electrical conductivity,Figure of merit Z
10954,10.1007/s11664-015-4303-6,5134,3(a),6472,x=1,Eu1Zn2Sb2,571.5,0.000015611,0.0018139,0.0001723,1.6546,0.66406,64057.395426302,0.001096277
10954,10.1007/s11664-015-4303-6,5134,3(a),6472,x=1,Eu1Zn2Sb2,572,0.000015619,0.001815,0.00017239,1.6532,0.66514,64024.5854408093,0.0010978708
10954,10.1007/s11664-015-4303-6,5134,3(a),6472,x=1,Eu1Zn2Sb2,572.5,0.000015627,0.001816,0.00017248,1.6517,0.66622,63991.8090484418,0.0010994733
10954,10.1007/s11664-015-4303-6,5134,3(a),6472,x=1,Eu1Zn2Sb2,573,0.000015635,0.001817,0.00017257,1.6503,0.6673,63959.0661976335,0.0011010119
10954,10.1007/s11664-015-4303-6,5134,3(a),6472,x=1,Eu1Zn2Sb2,573.5,0.000015643,0.0018181,0.00017266,1.6489,0.66838,63926.3568369239,0.0011026139
10954,10.1007/s11664-015-4303-6,5134,3(a),6472,x=1,Eu1Zn2Sb2,574,0.000015651,0.0018191,0.00017275,1.6475,0.66946,63893.6809149575,0.0011041578
10954,10.1007/s11664-015-4303-6,5134,3(a),6472,x=1,Eu1Zn2Sb2,574.5,0.000015659,0.0018201,0.00017283,1.6461,0.67054,63861.0383804841,0.0011057044
10954,10.1007/s11664-015-4303-6,5134,3(a),6472,x=1,Eu1Zn2Sb2,575,0.000015667,0.0018211,0.00017292,1.6446,0.67162,63828.4291823578,0.0011073209
10954,10.1007/s11664-015-4303-6,5134,3(a),6472,x=1,Eu1Zn2Sb2,575.5,0.000015675,0.0018222,0.00017301,1.6432,0.6727,63795.8532695375,0.0011089338
10954,10.1007/s11664-015-4303-6,5134,3(a),6472,x=1,Eu1Zn2Sb2,576,0.000015683,0.0018232,0.0001731,1.6418,0.67378,63763.3105910859,0.0011104885
10954,10.1007/s11664-015-4303-6,5134,3(a),6472,x=1,Eu1Zn2Sb2,576.5,0.000015691,0.0018242,0.00017319,1.6404,0.67486,63730.8010961698,0.0011120458
10954,10.1007/s11664-015-4303-6,5134,3(a),6472,x=1,Eu1Zn2Sb2,577,0.000015699,0.0018253,0.00017327,1.639,0.67594,63698.3247340595,0.0011136669
10954,10.1007/s11664-015-4303-6,5134,3(a),6472,x=1,Eu1Zn2Sb2,577.5,0.000015707,0.0018263,0.00017336,1.6376,0.67702,63665.8814541287,0.0011152296
10954,10.1007/s11664-015-4303-6,5134,3(a),6472,x=1,Eu1Zn2Sb2,578,0.000015715,0.0018273,0.00017345,1.6361,0.6781,63633.4712058543,0.0011168633
10954,10.1007/s11664-015-4303-6,5134,3(a),6472,x=1,Eu1Zn2Sb2,578.5,0.000015723,0.0018284,0.00017354,1.6347,0.67918,63601.0939388158,0.0011184927
10954,10.1007/s11664-015-4303-6,5134,3(a),6472,x=1,Eu1Zn2Sb2,579,0.000015731,0.0018294,0.00017362,1.6333,0.68026,63568.7496026953,0.0011200637
10954,10.1007/s11664-015-4303-6,5134,3(a),6472,x=1,Eu1Zn2Sb2,579.5,0.000015739,0.0018304,0.00017371,1.6319,0.68134,63536.4381472775,0.0011216374
10954,10.1007/s11664-015-4303-6,5134,3(a),6472,x=1,Eu1Zn2Sb2,580,0.000015747,0.0018315,0.0001738,1.6305,0.68242,63504.1595224487,0.0011232751
10954,10.1007/s11664-015-4303-6,5134,3(a),6472,x=1,Eu1Zn2Sb2,580.5,0.000015755,0.0018325,0.00017388,1.629,0.6835,63471.9136781974,0.0011249233
10954,10.1007/s11664-015-4303-6,5134,3(a),6472,x=1,Eu1Zn2Sb2,581,0.000015763,0.0018335,0.00017397,1.6276,0.68458,63439.7005646133,0.0011265053
10954,10.1007/s11664-015-4303-6,5134,3(a),6472,x=1,Eu1Zn2Sb2,581.5,0.000015771,0.0018345,0.00017406,1.6262,0.68566,63407.5201318876,0.00112809
10954,10.1007/s11664-015-4303-6,5134,3(a),6472,x=1,Eu1Zn2Sb2,582,0.000015779,0.0018356,0.00017414,1.6248,0.68674,63375.3723303124,0.001129739
10954,10.1007/s11664-015-4303-6,5134,3(a),6472,x=1,Eu1Zn2Sb2,582.5,0.000015788,0.0018366,0.00017423,1.6234,0.68782,63339.2449961997,0.0011313293
10954,10.1007/s11664-015-4303-6,5134,3(a),6472,x=1,Eu1Zn2Sb2,583,0.000015796,0.0018376,0.00017432,1.622,0.6889,63307.1663712332,0.0011329223
10954,10.1007/s11664-015-4303-6,5134,3(a),6472,x=1,Eu1Zn2Sb2,583.5,0.000015804,0.0018387,0.0001744,1.6205,0.68998,63275.1202227284,0.0011346498
10954,10.1007/s11664-015-4303-6,5134,3(a),6472,x=1,Eu1Zn2Sb2,584,0.000015812,0.0018397,0.00017449,1.6191,0.69106,63243.1065013913,0.0011362485
10954,10.1007/s11664-015-4303-6,5134,3(a),6472,x=1,Eu1Zn2Sb2,584.5,0.00001582,0.0018407,0.00017457,1.6177,0.69214,63211.1251580278,0.00113785
10954,10.1007/s11664-015-4303-6,5134,3(a),6472,x=1,Eu1Zn2Sb2,585,0.000015828,0.0018418,0.00017466,1.6163,0.69321,63179.1761435431,0.0011395162
10954,10.1007/s11664-015-4303-6,5134,3(a),6472,x=1,Eu1Zn2Sb2,585.5,0.000015836,0.0018428,0.00017474,1.6149,0.69429,63147.2594089417,0.0011411233
10954,10.1007/s11664-015-4303-6,5134,3(a),6472,x=1,Eu1Zn2Sb2,586,0.000015844,0.0018438,0.00017483,1.6134,0.69537,63115.3749053269,0.001142804
10954,10.1007/s11664-015-4303-6,5134,3(a),6472,x=1,Eu1Zn2Sb2,586.5,0.000015852,0.0018449,0.00017491,1.612,0.69645,63083.5225839011,0.0011444789
10954,10.1007/s11664-015-4303-6,5134,3(a),6472,x=1,Eu1Zn2Sb2,587,0.00001586,0.0018459,0.000175,1.6106,0.69753,63051.7023959647,0.0011460946
10954,10.1007/s11664-015-4303-6,5134,3(a),6472,x=1,Eu1Zn2Sb2,587.5,0.000015868,0.0018469,0.00017508,1.6092,0.69861,63019.9142929166,0.0011477131
10954,10.1007/s11664-015-4303-6,5134,3(a),6472,x=1,Eu1Zn2Sb2,588,0.000015876,0.0018479,0.00017516,1.6078,0.69969,62988.1582262535,0.0011493345
10954,10.1007/s11664-015-4303-6,5134,3(a),6472,x=1,Eu1Zn2Sb2,588.5,0.000015884,0.001849,0.00017525,1.6064,0.70077,62956.4341475699,0.0011510209
10954,10.1007/s11664-015-4303-6,5134,3(a),6472,x=1,Eu1Zn2Sb2,589,0.000015892,0.00185,0.00017533,1.6049,0.70185,62924.7420085578,0.0011527198
10954,10.1007/s11664-015-4303-6,5134,3(a),6472,x=1,Eu1Zn2Sb2,589.5,0.0000159,0.001851,0.00017541,1.6035,0.70293,62893.0817610063,0.0011543499
10954,10.1007/s11664-015-4303-6,5134,3(a),6472,x=1,Eu1Zn2Sb2,590,0.000015908,0.0018521,0.0001755,1.6021,0.70401,62861.4533568016,0.0011560452
10954,10.1007/s11664-015-4303-6,5134,3(a),6472,x=1,Eu1Zn2Sb2,590.5,0.000015916,0.0018531,0.00017558,1.6007,0.70509,62829.8567479266,0.001157681
10954,10.1007/s11664-015-4303-6,5134,3(a),6472,x=1,Eu1Zn2Sb2,591,0.000015924,0.0018541,0.00017566,1.5993,0.70617,62798.2918864607,0.0011593197
10954,10.1007/s11664-015-4303-6,5134,3(a),6472,x=1,Eu1Zn2Sb2,591.5,0.000015932,0.0018552,0.00017575,1.5978,0.70725,62766.7587245795,0.0011610965
10954,10.1007/s11664-015-4303-6,5134,3(a),6472,x=1,Eu1Zn2Sb2,592,0.00001594,0.0018562,0.00017583,1.5964,0.70833,62735.2572145546,0.0011627412
10954,10.1007/s11664-015-4303-6,5134,3(a),6472,x=1,Eu1Zn2Sb2,592.5,0.000015948,0.0018572,0.00017591,1.595,0.70941,62703.7873087534,0.0011643887
10954,10.1007/s11664-015-4303-6,5134,3(a),6472,x=1,Eu1Zn2Sb2,593,0.000015956,0.0018583,0.00017599,1.5936,0.71049,62672.348959639,0.0011661019
10954,10.1007/s11664-015-4303-6,5134,3(a),6472,x=1,Eu1Zn2Sb2,593.5,0.000015964,0.0018593,0.00017608,1.5922,0.71157,62640.9421197695,0.0011677553
10954,10.1007/s11664-015-4303-6,5134,3(a),6472,x=1,Eu1Zn2Sb2,594,0.000015972,0.0018603,0.00017616,1.5908,0.71265,62609.5667417982,0.0011694116
10954,10.1007/s11664-015-4303-6,5134,3(a),6472,x=1,Eu1Zn2Sb2,594.5,0.00001598,0.0018613,0.00017624,1.5893,0.71373,62578.2227784731,0.0011711445
10954,10.1007/s11664-015-4303-6,5134,3(a),6472,x=1,Eu1Zn2Sb2,595,0.000015988,0.0018624,0.00017632,1.5879,0.71481,62546.910182637,0.0011728698
10954,10.1007/s11664-015-4303-6,5134,3(a),6472,x=1,Eu1Zn2Sb2,595.5,0.000015996,0.0018634,0.0001764,1.5865,0.71589,62515.6289072268,0.0011745351
10954,10.1007/s11664-015-4303-6,5134,3(a),6472,x=1,Eu1Zn2Sb2,596,0.000016004,0.0018644,0.00017648,1.5851,0.71697,62484.3789052737,0.0011762034
10954,10.1007/s11664-015-4303-6,5134,3(a),6472,x=1,Eu1Zn2Sb2,596.5,0.000016012,0.0018655,0.00017656,1.5837,0.71805,62453.1601299026,0.0011779377
10954,10.1007/s11664-015-4303-6,5134,3(a),6472,x=1,Eu1Zn2Sb2,597,0.00001602,0.0018665,0.00017664,1.5822,0.71913,62421.9725343321,0.0011796865
10954,10.1007/s11664-015-4303-6,5134,3(a),6472,x=1,Eu1Zn2Sb2,597.5,0.000016029,0.0018675,0.00017672,1.5808,0.72021,62386.9237007923,0.0011813639
10954,10.1007/s11664-015-4303-6,5134,3(a),6472,x=1,Eu1Zn2Sb2,598,0.000016037,0.0018686,0.0001768,1.5794,0.72129,62355.8022073954,0.0011831075
10954,10.1007/s11664-015-4303-6,5134,3(a),6472,x=1,Eu1Zn2Sb2,598.5,0.000016045,0.0018696,0.00017688,1.578,0.72237,62324.7117482082,0.0011847909
10954,10.1007/s11664-015-4303-6,5134,3(a),6472,x=1,Eu1Zn2Sb2,599,0.000016053,0.0018706,0.00017696,1.5766,0.72345,62293.652276833,0.0011864772
10954,10.1007/s11664-015-4303-6,5134,3(a),6472,x=1,Eu1Zn2Sb2,599.5,0.000016061,0.0018717,0.00017704,1.5752,0.72453,62262.6237469647,0.0011882301
10954,10.1007/s11664-015-4303-6,5134,3(a),6472,x=1,Eu1Zn2Sb2,600,0.000016069,0.0018727,0.00017712,1.5737,0.72561,62231.6261123903,0.0011899981
10954,10.1007/s11664-015-4303-6,5134,3(a),6472,x=1,Eu1Zn2Sb2,600.5,0.000016077,0.0018737,0.0001772,1.5723,0.72669,62200.6593269889,0.0011916937
10954,10.1007/s11664-015-4303-6,5134,3(a),6472,x=1,Eu1Zn2Sb2,601,0.000016085,0.0018747,0.00017728,1.5709,0.72777,62169.7233447311,0.0011933923
10954,10.1007/s11664-015-4303-6,5134,3(a),6472,x=1,Eu1Zn2Sb2,601.5,0.000016093,0.0018758,0.00017736,1.5695,0.72885,62138.8181196794,0.0011951577
10954,10.1007/s11664-015-4303-6,5134,3(a),6472,x=1,Eu1Zn2Sb2,602,0.000016101,0.0018768,0.00017744,1.5681,0.72993,62107.9436059872,0.0011968624
10954,10.1007/s11664-015-4303-6,5134,3(a),6472,x=1,Eu1Zn2Sb2,602.5,0.000016109,0.0018778,0.00017752,1.5666,0.731,62077.0997578993,0.0011986468
10954,10.1007/s11664-015-4303-6,5134,3(a),6472,x=1,Eu1Zn2Sb2,603,0.000016117,0.0018789,0.00017759,1.5652,0.73208,62046.2865297512,0.0012004217
10954,10.1007/s11664-015-4303-6,5134,3(a),6472,x=1,Eu1Zn2Sb2,603.5,0.000016125,0.0018799,0.00017767,1.5638,0.73316,62015.503875969,0.0012021358
10954,10.1007/s11664-015-4303-6,5134,3(a),6472,x=1,Eu1Zn2Sb2,604,0.000016133,0.0018809,0.00017775,1.5624,0.73424,61984.7517510692,0.001203853
10954,10.1007/s11664-015-4303-6,5134,3(a),6472,x=1,Eu1Zn2Sb2,604.5,0.000016141,0.001882,0.00017783,1.561,0.73532,61954.0301096586,0.0012056374
10954,10.1007/s11664-015-4303-6,5134,3(a),6472,x=1,Eu1Zn2Sb2,605,0.000016149,0.001883,0.0001779,1.5596,0.7364,61923.3389064338,0.0012073609
10954,10.1007/s11664-015-4303-6,5134,3(a),6472,x=1,Eu1Zn2Sb2,605.5,0.000016157,0.001884,0.00017798,1.5581,0.73748,61892.6780961812,0.001209165
10954,10.1007/s11664-015-4303-6,5134,3(a),6472,x=1,Eu1Zn2Sb2,606,0.000016165,0.0018851,0.00017806,1.5567,0.73856,61862.0476337767,0.0012109591
10954,10.1007/s11664-015-4303-6,5134,3(a),6472,x=1,Eu1Zn2Sb2,606.5,0.000016173,0.0018861,0.00017813,1.5553,0.73964,61831.4474741854,0.0012126921
10954,10.1007/s11664-015-4303-6,5134,3(a),6472,x=1,Eu1Zn2Sb2,607,0.000016181,0.0018871,0.00017821,1.5539,0.74072,61800.8775724615,0.0012144282
10954,10.1007/s11664-015-4303-6,5134,3(a),6472,x=1,Eu1Zn2Sb2,607.5,0.000016189,0.0018881,0.00017828,1.5525,0.7418,61770.3378837482,0.0012161675
10954,10.1007/s11664-015-4303-6,5134,3(a),6472,x=1,Eu1Zn2Sb2,608,0.000016197,0.0018892,0.00017836,1.551,0.74288,61739.8283632771,0.0012180529
10954,10.1007/s11664-015-4303-6,5134,3(a),6472,x=1,Eu1Zn2Sb2,608.5,0.000016205,0.0018902,0.00017844,1.5496,0.74396,61709.3489663684,0.0012197987
10954,10.1007/s11664-015-4303-6,5134,3(a),6472,x=1,Eu1Zn2Sb2,609,0.000016213,0.0018912,0.00017851,1.5482,0.74504,61678.8996484303,0.0012215476
10954,10.1007/s11664-015-4303-6,5134,3(a),6472,x=1,Eu1Zn2Sb2,609.5,0.000016221,0.0018923,0.00017859,1.5468,0.74612,61648.480364959,0.0012233644
10954,10.1007/s11664-015-4303-6,5134,3(a),6472,x=1,Eu1Zn2Sb2,610,0.000016229,0.0018933,0.00017866,1.5454,0.7472,61618.0910715386,0.0012251197
10954,10.1007/s11664-015-4303-6,5134,3(a),6472,x=1,Eu1Zn2Sb2,610.5,0.000016237,0.0018943,0.00017873,1.544,0.74828,61587.7317238406,0.0012268782
10954,10.1007/s11664-015-4303-6,5134,3(a),6472,x=1,Eu1Zn2Sb2,611,0.000016245,0.0018954,0.00017881,1.5425,0.74936,61557.4022776239,0.0012287844
10954,10.1007/s11664-015-4303-6,5134,3(a),6472,x=1,Eu1Zn2Sb2,611.5,0.000016253,0.0018964,0.00017888,1.5411,0.75044,61527.1026887344,0.0012305496
10954,10.1007/s11664-015-4303-6,5134,3(a),6472,x=1,Eu1Zn2Sb2,612,0.000016261,0.0018974,0.00017896,1.5397,0.75152,61496.832913105,0.001232318
10954,10.1007/s11664-015-4303-6,5134,3(a),6472,x=1,Eu1Zn2Sb2,612.5,0.00001627,0.0018985,0.00017903,1.5383,0.7526,61462.8149969269,0.0012341546
10954,10.1007/s11664-015-4303-6,5134,3(a),6472,x=1,Eu1Zn2Sb2,613,0.000016278,0.0018995,0.0001791,1.5369,0.75368,61432.6084285539,0.0012359295
10954,10.1007/s11664-015-4303-6,5134,3(a),6472,x=1,Eu1Zn2Sb2,613.5,0.000016286,0.0019005,0.00017917,1.5354,0.75476,61402.4315362888,0.0012377882
10954,10.1007/s11664-015-4303-6,5134,3(a),6472,x=1,Eu1Zn2Sb2,614,0.000016294,0.0019015,0.00017925,1.534,0.75584,61372.2842764208,0.0012395698
10954,10.1007/s11664-015-4303-6,5134,3(a),6472,x=1,Eu1Zn2Sb2,614.5,0.000016302,0.0019026,0.00017932,1.5326,0.75692,61342.1666053245,0.0012414198
10954,10.1007/s11664-015-4303-6,5134,3(a),6472,x=1,Eu1Zn2Sb2,615,0.00001631,0.0019036,0.00017939,1.5312,0.758,61312.0784794604,0.0012432079
10954,10.1007/s11664-015-4303-6,5134,3(a),6472,x=1,Eu1Zn2Sb2,615.5,0.000016318,0.0019046,0.00017946,1.5298,0.75908,61282.0198553744,0.0012449993
10954,10.1007/s11664-015-4303-6,5134,3(a),6472,x=1,Eu1Zn2Sb2,616,0.000016326,0.0019057,0.00017953,1.5284,0.76016,61251.9906896974,0.0012468595
10954,10.1007/s11664-015-4303-6,5134,3(a),6472,x=1,Eu1Zn2Sb2,616.5,0.000016334,0.0019067,0.0001796,1.5269,0.76124,61221.9909391453,0.0012487393
10954,10.1007/s11664-015-4303-6,5134,3(a),6472,x=1,Eu1Zn2Sb2,617,0.000016342,0.0019077,0.00017968,1.5255,0.76232,61192.0205605189,0.0012505408
10954,10.1007/s11664-015-4303-6,5134,3(a),6472,x=1,Eu1Zn2Sb2,617.5,0.00001635,0.0019088,0.00017975,1.5241,0.7634,61162.0795107034,0.0012524113
10954,10.1007/s11664-015-4303-6,5134,3(a),6472,x=1,Eu1Zn2Sb2,618,0.000016358,0.0019098,0.00017982,1.5227,0.76448,61132.1677466683,0.0012542195
10954,10.1007/s11664-015-4303-6,5134,3(a),6472,x=1,Eu1Zn2Sb2,618.5,0.000016366,0.0019108,0.00017989,1.5213,0.76556,61102.2852254674,0.001256031
10954,10.1007/s11664-015-4303-6,5134,3(a),6472,x=1,Eu1Zn2Sb2,619,0.000016374,0.0019119,0.00017996,1.5198,0.76664,61072.4319042384,0.0012579945
10954,10.1007/s11664-015-4303-6,5134,3(a),6472,x=1,Eu1Zn2Sb2,619.5,0.000016382,0.0019129,0.00018002,1.5184,0.76772,61042.6077402027,0.001259813
10954,10.1007/s11664-015-4303-6,5134,3(a),6472,x=1,Eu1Zn2Sb2,620,0.00001639,0.0019139,0.00018009,1.517,0.76879,61012.812690665,0.0012616348
10954,10.1007/s11664-015-4303-6,5134,3(a),6472,x=1,Eu1Zn2Sb2,620.5,0.000016398,0.0019149,0.00018016,1.5156,0.76987,60983.0467130138,0.00126346
10954,10.1007/s11664-015-4303-6,5134,3(a),6472,x=1,Eu1Zn2Sb2,621,0.000016406,0.001916,0.00018023,1.5142,0.77095,60953.3097647202,0.0012653546
10954,10.1007/s11664-015-4303-6,5134,3(a),6472,x=1,Eu1Zn2Sb2,621.5,0.000016414,0.001917,0.0001803,1.5128,0.77203,60923.6018033386,0.0012671867
10954,10.1007/s11664-015-4303-6,5134,3(a),6472,x=1,Eu1Zn2Sb2,622,0.000016422,0.001918,0.00018037,1.5113,0.77311,60893.9227865059,0.0012691061
10954,10.1007/s11664-015-4303-6,5134,3(a),6472,x=1,Eu1Zn2Sb2,622.5,0.00001643,0.0019191,0.00018043,1.5099,0.77419,60864.2726719416,0.0012710113
10954,10.1007/s11664-015-4303-6,5134,3(a),6472,x=1,Eu1Zn2Sb2,623,0.000016438,0.0019201,0.0001805,1.5085,0.77527,60834.6514174474,0.0012728538
10954,10.1007/s11664-015-4303-6,5134,3(a),6472,x=1,Eu1Zn2Sb2,623.5,0.000016446,0.0019211,0.00018057,1.5071,0.77635,60805.0589809072,0.0012746998
10954,10.1007/s11664-015-4303-6,5134,3(a),6472,x=1,Eu1Zn2Sb2,624,0.000016454,0.0019222,0.00018064,1.5057,0.77743,60775.4953202869,0.0012766155
10954,10.1007/s11664-015-4303-6,5134,3(a),6472,x=1,Eu1Zn2Sb2,624.5,0.000016462,0.0019232,0.0001807,1.5042,0.77851,60745.9603936338,0.0012785534
10954,10.1007/s11664-015-4303-6,5134,3(a),6472,x=1,Eu1Zn2Sb2,625,0.00001647,0.0019242,0.00018077,1.5028,0.77959,60716.4541590771,0.0012804099
10954,10.1007/s11664-015-4303-6,5134,3(a),6472,x=1,Eu1Zn2Sb2,625.5,0.000016478,0.0019252,0.00018083,1.5014,0.78067,60686.976574827,0.0012822699
10954,10.1007/s11664-015-4303-6,5134,3(a),6472,x=1,Eu1Zn2Sb2,626,0.000016486,0.0019263,0.0001809,1.5,0.78175,60657.5275991751,0.0012842
10954,10.1007/s11664-015-4303-6,5134,3(a),6472,x=1,Eu1Zn2Sb2,626.5,0.000016494,0.0019273,0.00018096,1.4986,0.78283,60628.1071904935,0.001286067
10954,10.1007/s11664-015-4303-6,5134,3(a),6472,x=1,Eu1Zn2Sb2,627,0.000016502,0.0019283,0.00018103,1.4972,0.78391,60598.7153072355,0.0012879375
10954,10.1007/s11664-015-4303-6,5134,3(a),6472,x=1,Eu1Zn2Sb2,627.5,0.000016511,0.0019294,0.00018109,1.4957,0.78499,60565.6834837381,0.0012899646
10954,10.1007/s11664-015-4303-6,5134,3(a),6472,x=1,Eu1Zn2Sb2,628,0.000016519,0.0019304,0.00018116,1.4943,0.78607,60536.3520794237,0.0012918423
10954,10.1007/s11664-015-4303-6,5134,3(a),6472,x=1,Eu1Zn2Sb2,628.5,0.000016527,0.0019314,0.00018122,1.4929,0.78715,60507.0490712168,0.0012937236
10954,10.1007/s11664-015-4303-6,5134,3(a),6472,x=1,Eu1Zn2Sb2,629,0.000016535,0.0019325,0.00018128,1.4915,0.78823,60477.7744179014,0.0012956755
10954,10.1007/s11664-015-4303-6,5134,3(a),6472,x=1,Eu1Zn2Sb2,629.5,0.000016543,0.0019335,0.00018135,1.4901,0.78931,60448.5280783413,0.0012975639
10954,10.1007/s11664-015-4303-6,5134,3(a),6472,x=1,Eu1Zn2Sb2,630,0.000016551,0.0019345,0.00018141,1.4886,0.79039,60419.3100114797,0.0012995432
10954,10.1007/s11664-015-4303-6,5134,3(a),6472,x=1,Eu1Zn2Sb2,630.5,0.000016559,0.0019356,0.00018147,1.4872,0.79147,60390.1201763392,0.0013015062
10954,10.1007/s11664-015-4303-6,5134,3(a),6472,x=1,Eu1Zn2Sb2,631,0.000016567,0.0019366,0.00018154,1.4858,0.79255,60360.9585320215,0.0013034056
10954,10.1007/s11664-015-4303-6,5134,3(a),6472,x=1,Eu1Zn2Sb2,631.5,0.000016575,0.0019376,0.0001816,1.4844,0.79363,60331.8250377074,0.0013053085
10954,10.1007/s11664-015-4303-6,5134,3(a),6472,x=1,Eu1Zn2Sb2,632,0.000016583,0.0019386,0.00018166,1.483,0.79471,60302.7196526563,0.0013072151
10954,10.1007/s11664-015-4303-6,5134,3(a),6472,x=1,Eu1Zn2Sb2,632.5,0.000016591,0.0019397,0.00018172,1.4816,0.79579,60273.6423362064,0.0013091928
10954,10.1007/s11664-015-4303-6,5134,3(a),6472,x=1,Eu1Zn2Sb2,633,0.000016599,0.0019407,0.00018178,1.4801,0.79687,60244.593047774,0.0013111952
10954,10.1007/s11664-015-4303-6,5134,3(a),6472,x=1,Eu1Zn2Sb2,633.5,0.000016607,0.0019417,0.00018184,1.4787,0.79795,60215.5717468537,0.0013131129
10954,10.1007/s11664-015-4303-6,5134,3(a),6472,x=1,Eu1Zn2Sb2,634,0.000016615,0.0019428,0.0001819,1.4773,0.79903,60186.5783930184,0.0013151019
10954,10.1007/s11664-015-4303-6,5134,3(a),6472,x=1,Eu1Zn2Sb2,634.5,0.000016623,0.0019438,0.00018196,1.4759,0.80011,60157.6129459183,0.0013170269
10954,10.1007/s11664-015-4303-6,5134,3(a),6472,x=1,Eu1Zn2Sb2,635,0.000016631,0.0019448,0.00018202,1.4745,0.80119,60128.6753652817,0.0013189556
10954,10.1007/s11664-015-4303-6,5134,3(a),6472,x=1,Eu1Zn2Sb2,635.5,0.000016639,0.0019459,0.00018208,1.473,0.80227,60099.7656109141,0.0013210455
10954,10.1007/s11664-015-4303-6,5134,3(a),6472,x=1,Eu1Zn2Sb2,636,0.000016647,0.0019469,0.00018214,1.4716,0.80335,60070.8836426984,0.0013229818
10954,10.1007/s11664-015-4303-6,5134,3(a),6472,x=1,Eu1Zn2Sb2,636.5,0.000016655,0.0019479,0.0001822,1.4702,0.80443,60042.0294205944,0.0013249218
10954,10.1007/s11664-015-4303-6,5134,3(a),6472,x=1,Eu1Zn2Sb2,637,0.000016663,0.001949,0.00018225,1.4688,0.80551,60013.202904639,0.0013269336
10954,10.1007/s11664-015-4303-6,5134,3(a),6472,x=1,Eu1Zn2Sb2,637.5,0.000016671,0.00195,0.00018231,1.4674,0.80658,59984.4040549457,0.001328881
10954,10.1007/s11664-015-4303-6,5134,3(a),6472,x=1,Eu1Zn2Sb2,638,0.000016679,0.001951,0.00018237,1.466,0.80766,59955.6328317045,0.0013308322
10954,10.1007/s11664-015-4303-6,5134,3(a),6472,x=1,Eu1Zn2Sb2,638.5,0.000016687,0.001952,0.00018243,1.4645,0.80874,59926.8891951819,0.0013328781
10954,10.1007/s11664-015-4303-6,5134,3(a),6472,x=1,Eu1Zn2Sb2,639,0.000016695,0.0019531,0.00018248,1.4631,0.80982,59898.1731057203,0.0013349053
10954,10.1007/s11664-015-4303-6,5134,3(a),6472,x=1,Eu1Zn2Sb2,639.5,0.000016703,0.0019541,0.00018254,1.4617,0.8109,59869.4845237383,0.001336868
10954,10.1007/s11664-015-4303-6,5134,3(a),6472,x=1,Eu1Zn2Sb2,640,0.000016711,0.0019551,0.00018259,1.4603,0.81198,59840.8234097301,0.0013388345