sid,DOI,figureid,fignum,sampleid,samplename,composition,Temperature,Electrical resistivity,Power factor,Seebeck coefficient,Thermal conductivity,ZT,Electrical conductivity,Figure of merit Z
10954,10.1007/s11664-015-4303-6,5134,3(a),6472,x=1,Eu1Zn2Sb2,640.5,0.000016719,0.0019562,0.00018265,1.4589,0.81306,59812.1897242658,0.0013408733
10954,10.1007/s11664-015-4303-6,5134,3(a),6472,x=1,Eu1Zn2Sb2,641,0.000016727,0.0019572,0.00018271,1.4574,0.81414,59783.5834279907,0.0013429395
10954,10.1007/s11664-015-4303-6,5134,3(a),6472,x=1,Eu1Zn2Sb2,641.5,0.000016735,0.0019582,0.00018276,1.456,0.81522,59755.0044816253,0.0013449176
10954,10.1007/s11664-015-4303-6,5134,3(a),6472,x=1,Eu1Zn2Sb2,642,0.000016744,0.0019593,0.00018281,1.4546,0.8163,59722.8858098423,0.0013469682
10954,10.1007/s11664-015-4303-6,5134,3(a),6472,x=1,Eu1Zn2Sb2,642.5,0.000016752,0.0019603,0.00018287,1.4532,0.81738,59694.364851958,0.001348954
10954,10.1007/s11664-015-4303-6,5134,3(a),6472,x=1,Eu1Zn2Sb2,643,0.00001676,0.0019613,0.00018292,1.4518,0.81846,59665.8711217184,0.0013509437
10954,10.1007/s11664-015-4303-6,5134,3(a),6472,x=1,Eu1Zn2Sb2,643.5,0.000016768,0.0019624,0.00018297,1.4504,0.81954,59637.4045801527,0.0013530061
10954,10.1007/s11664-015-4303-6,5134,3(a),6472,x=1,Eu1Zn2Sb2,644,0.000016776,0.0019634,0.00018303,1.4489,0.82062,59608.9651883643,0.001355097
10954,10.1007/s11664-015-4303-6,5134,3(a),6472,x=1,Eu1Zn2Sb2,644.5,0.000016784,0.0019644,0.00018308,1.4475,0.8217,59580.552907531,0.0013570984
10954,10.1007/s11664-015-4303-6,5134,3(a),6472,x=1,Eu1Zn2Sb2,645,0.000016792,0.0019654,0.00018313,1.4461,0.82278,59552.1676989042,0.0013591038
10954,10.1007/s11664-015-4303-6,5134,3(a),6472,x=1,Eu1Zn2Sb2,645.5,0.0000168,0.0019665,0.00018318,1.4447,0.82386,59523.8095238095,0.0013611823
10954,10.1007/s11664-015-4303-6,5134,3(a),6472,x=1,Eu1Zn2Sb2,646,0.000016808,0.0019675,0.00018323,1.4433,0.82494,59495.4783436459,0.0013631955
10954,10.1007/s11664-015-4303-6,5134,3(a),6472,x=1,Eu1Zn2Sb2,646.5,0.000016816,0.0019685,0.00018328,1.4418,0.82602,59467.1741198858,0.0013653073
10954,10.1007/s11664-015-4303-6,5134,3(a),6472,x=1,Eu1Zn2Sb2,647,0.000016824,0.0019696,0.00018334,1.4404,0.8271,59438.8968140751,0.0013673979
10954,10.1007/s11664-015-4303-6,5134,3(a),6472,x=1,Eu1Zn2Sb2,647.5,0.000016832,0.0019706,0.00018339,1.439,0.82818,59410.6463878327,0.0013694232
10954,10.1007/s11664-015-4303-6,5134,3(a),6472,x=1,Eu1Zn2Sb2,648,0.00001684,0.0019716,0.00018343,1.4376,0.82926,59382.4228028503,0.0013714524
10954,10.1007/s11664-015-4303-6,5134,3(a),6472,x=1,Eu1Zn2Sb2,648.5,0.000016848,0.0019727,0.00018348,1.4362,0.83034,59354.2260208927,0.0013735552
10954,10.1007/s11664-015-4303-6,5134,3(a),6472,x=1,Eu1Zn2Sb2,649,0.000016856,0.0019737,0.00018353,1.4348,0.83142,59326.0560037969,0.0013755924
10954,10.1007/s11664-015-4303-6,5134,3(a),6472,x=1,Eu1Zn2Sb2,649.5,0.000016864,0.0019747,0.00018358,1.4333,0.8325,59297.9127134725,0.0013777297
10954,10.1007/s11664-015-4303-6,5134,3(a),6472,x=1,Eu1Zn2Sb2,650,0.000016872,0.0019758,0.00018363,1.4319,0.83358,59269.7961119014,0.001379845
10954,10.1007/s11664-015-4303-6,5134,3(a),6472,x=1,Eu1Zn2Sb2,650.5,0.00001688,0.0019768,0.00018368,1.4305,0.83466,59241.7061611374,0.0013818944
10954,10.1007/s11664-015-4303-6,5134,3(a),6472,x=1,Eu1Zn2Sb2,651,0.000016888,0.0019778,0.00018372,1.4291,0.83574,59213.6428233065,0.0013839479
10954,10.1007/s11664-015-4303-6,5134,3(a),6472,x=1,Eu1Zn2Sb2,651.5,0.000016896,0.0019788,0.00018377,1.4277,0.83682,59185.6060606061,0.0013860055
10954,10.1007/s11664-015-4303-6,5134,3(a),6472,x=1,Eu1Zn2Sb2,652,0.000016904,0.0019799,0.00018382,1.4262,0.8379,59157.5958353053,0.0013882345
10954,10.1007/s11664-015-4303-6,5134,3(a),6472,x=1,Eu1Zn2Sb2,652.5,0.000016912,0.0019809,0.00018386,1.4248,0.83898,59129.6121097446,0.0013903004
10954,10.1007/s11664-015-4303-6,5134,3(a),6472,x=1,Eu1Zn2Sb2,653,0.00001692,0.0019819,0.00018391,1.4234,0.84006,59101.6548463357,0.0013923704
10954,10.1007/s11664-015-4303-6,5134,3(a),6472,x=1,Eu1Zn2Sb2,653.5,0.000016928,0.001983,0.00018395,1.422,0.84114,59073.7240075614,0.0013945148
10954,10.1007/s11664-015-4303-6,5134,3(a),6472,x=1,Eu1Zn2Sb2,654,0.000016936,0.001984,0.000184,1.4206,0.84222,59045.8195559754,0.001396593
10954,10.1007/s11664-015-4303-6,5134,3(a),6472,x=1,Eu1Zn2Sb2,654.5,0.000016944,0.001985,0.00018404,1.4192,0.84329,59017.9414542021,0.0013986753
10954,10.1007/s11664-015-4303-6,5134,3(a),6472,x=1,Eu1Zn2Sb2,655,0.000016952,0.0019861,0.00018408,1.4177,0.84437,58990.0896649363,0.0014009311
10954,10.1007/s11664-015-4303-6,5134,3(a),6472,x=1,Eu1Zn2Sb2,655.5,0.00001696,0.0019871,0.00018413,1.4163,0.84545,58962.2641509434,0.001403022
10954,10.1007/s11664-015-4303-6,5134,3(a),6472,x=1,Eu1Zn2Sb2,656,0.000016968,0.0019881,0.00018417,1.4149,0.84653,58934.4648750589,0.001405117
10954,10.1007/s11664-015-4303-6,5134,3(a),6472,x=1,Eu1Zn2Sb2,656.5,0.000016976,0.0019892,0.00018421,1.4135,0.84761,58906.6918001885,0.0014072869
10954,10.1007/s11664-015-4303-6,5134,3(a),6472,x=1,Eu1Zn2Sb2,657,0.000016985,0.0019902,0.00018425,1.4121,0.84869,58875.4783632617,0.0014093903
10954,10.1007/s11664-015-4303-6,5134,3(a),6472,x=1,Eu1Zn2Sb2,657.5,0.000016993,0.0019912,0.00018429,1.4106,0.84977,58847.7608426999,0.0014115979
10954,10.1007/s11664-015-4303-6,5134,3(a),6472,x=1,Eu1Zn2Sb2,658,0.000017001,0.0019922,0.00018433,1.4092,0.85085,58820.0694076819,0.0014137099
10954,10.1007/s11664-015-4303-6,5134,3(a),6472,x=1,Eu1Zn2Sb2,658.5,0.000017009,0.0019933,0.00018438,1.4078,0.85193,58792.4040214004,0.0014158971
10954,10.1007/s11664-015-4303-6,5134,3(a),6472,x=1,Eu1Zn2Sb2,659,0.000017017,0.0019943,0.00018442,1.4064,0.85301,58764.7646471176,0.0014180176
10954,10.1007/s11664-015-4303-6,5134,3(a),6472,x=1,Eu1Zn2Sb2,659.5,0.000017025,0.0019953,0.00018445,1.405,0.85409,58737.1512481645,0.0014201423
10954,10.1007/s11664-015-4303-6,5134,3(a),6472,x=1,Eu1Zn2Sb2,660,0.000017033,0.0019964,0.00018449,1.4036,0.85517,58709.563787941,0.0014223425
10954,10.1007/s11664-015-4303-6,5134,3(a),6472,x=1,Eu1Zn2Sb2,660.5,0.000017041,0.0019974,0.00018453,1.4021,0.85625,58682.0022299161,0.0014245774
10954,10.1007/s11664-015-4303-6,5134,3(a),6472,x=1,Eu1Zn2Sb2,661,0.000017049,0.0019984,0.00018457,1.4007,0.85733,58654.4665376268,0.0014267152
10954,10.1007/s11664-015-4303-6,5134,3(a),6472,x=1,Eu1Zn2Sb2,661.5,0.000017057,0.0019995,0.00018461,1.3993,0.85841,58626.956674679,0.0014289288
10954,10.1007/s11664-015-4303-6,5134,3(a),6472,x=1,Eu1Zn2Sb2,662,0.000017065,0.0020005,0.00018464,1.3979,0.85949,58599.4726047466,0.0014310752
10954,10.1007/s11664-015-4303-6,5134,3(a),6472,x=1,Eu1Zn2Sb2,662.5,0.000017073,0.0020015,0.00018468,1.3965,0.86057,58572.0142915715,0.0014332259
10954,10.1007/s11664-015-4303-6,5134,3(a),6472,x=1,Eu1Zn2Sb2,663,0.000017081,0.0020026,0.00018472,1.395,0.86165,58544.5816989638,0.0014355556
10954,10.1007/s11664-015-4303-6,5134,3(a),6472,x=1,Eu1Zn2Sb2,663.5,0.000017089,0.0020036,0.00018475,1.3936,0.86273,58517.1747908011,0.0014377153
10954,10.1007/s11664-015-4303-6,5134,3(a),6472,x=1,Eu1Zn2Sb2,664,0.000017097,0.0020046,0.00018479,1.3922,0.86381,58489.7935310288,0.0014398793
10954,10.1007/s11664-015-4303-6,5134,3(a),6472,x=1,Eu1Zn2Sb2,664.5,0.000017105,0.0020056,0.00018482,1.3908,0.86489,58462.4378836597,0.0014420477
10954,10.1007/s11664-015-4303-6,5134,3(a),6472,x=1,Eu1Zn2Sb2,665,0.000017113,0.0020067,0.00018486,1.3894,0.86597,58435.1078127739,0.0014442925
10954,10.1007/s11664-015-4303-6,5134,3(a),6472,x=1,Eu1Zn2Sb2,665.5,0.000017121,0.0020077,0.00018489,1.388,0.86705,58407.8032825185,0.0014464697
10954,10.1007/s11664-015-4303-6,5134,3(a),6472,x=1,Eu1Zn2Sb2,666,0.000017129,0.0020087,0.00018492,1.3865,0.86813,58380.5242571078,0.0014487559
10954,10.1007/s11664-015-4303-6,5134,3(a),6472,x=1,Eu1Zn2Sb2,666.5,0.000017137,0.0020098,0.00018496,1.3851,0.86921,58353.2707008228,0.0014510144
10954,10.1007/s11664-015-4303-6,5134,3(a),6472,x=1,Eu1Zn2Sb2,667,0.000017145,0.0020108,0.00018499,1.3837,0.87029,58326.0425780111,0.0014532052
10954,10.1007/s11664-015-4303-6,5134,3(a),6472,x=1,Eu1Zn2Sb2,667.5,0.000017153,0.0020118,0.00018502,1.3823,0.87137,58298.8398530869,0.0014554004
10954,10.1007/s11664-015-4303-6,5134,3(a),6472,x=1,Eu1Zn2Sb2,668,0.000017161,0.0020129,0.00018505,1.3809,0.87245,58271.6624905309,0.0014576725
10954,10.1007/s11664-015-4303-6,5134,3(a),6472,x=1,Eu1Zn2Sb2,668.5,0.000017169,0.0020139,0.00018508,1.3794,0.87353,58244.5104548896,0.0014599826
10954,10.1007/s11664-015-4303-6,5134,3(a),6472,x=1,Eu1Zn2Sb2,669,0.000017177,0.0020149,0.00018511,1.378,0.87461,58217.383710776,0.0014621916
10954,10.1007/s11664-015-4303-6,5134,3(a),6472,x=1,Eu1Zn2Sb2,669.5,0.000017185,0.002016,0.00018514,1.3766,0.87569,58190.2822228688,0.0014644777
10954,10.1007/s11664-015-4303-6,5134,3(a),6472,x=1,Eu1Zn2Sb2,670,0.000017193,0.002017,0.00018517,1.3752,0.87677,58163.2059559123,0.0014666958
10954,10.1007/s11664-015-4303-6,5134,3(a),6472,x=1,Eu1Zn2Sb2,670.5,0.000017201,0.002018,0.0001852,1.3738,0.87785,58136.1548747166,0.0014689183
10954,10.1007/s11664-015-4303-6,5134,3(a),6472,x=1,Eu1Zn2Sb2,671,0.000017209,0.002019,0.00018523,1.3724,0.87893,58109.1289441571,0.0014711454
10954,10.1007/s11664-015-4303-6,5134,3(a),6472,x=1,Eu1Zn2Sb2,671.5,0.000017217,0.0020201,0.00018525,1.3709,0.88001,58082.1281291746,0.0014735575
10954,10.1007/s11664-015-4303-6,5134,3(a),6472,x=1,Eu1Zn2Sb2,672,0.000017226,0.0020211,0.00018528,1.3695,0.88108,58051.7821897132,0.0014757941
10954,10.1007/s11664-015-4303-6,5134,3(a),6472,x=1,Eu1Zn2Sb2,672.5,0.000017234,0.0020221,0.00018531,1.3681,0.88216,58024.8346292213,0.0014780352
10954,10.1007/s11664-015-4303-6,5134,3(a),6472,x=1,Eu1Zn2Sb2,673,0.000017242,0.0020232,0.00018533,1.3667,0.88324,57997.9120751653,0.0014803541
10954,10.1007/s11664-015-4303-6,5134,3(a),6472,x=1,Eu1Zn2Sb2,673.5,0.00001725,0.0020242,0.00018536,1.3653,0.88432,57971.0144927536,0.0014826046
10954,10.1007/s11664-015-4303-6,5134,3(a),6472,x=1,Eu1Zn2Sb2,674,0.000017258,0.0020252,0.00018538,1.3638,0.8854,57944.1418472592,0.0014849685
10954,10.1007/s11664-015-4303-6,5134,3(a),6472,x=1,Eu1Zn2Sb2,674.5,0.000017266,0.0020263,0.00018541,1.3624,0.88648,57917.2941040195,0.0014873018
10954,10.1007/s11664-015-4303-6,5134,3(a),6472,x=1,Eu1Zn2Sb2,675,0.000017274,0.0020273,0.00018543,1.361,0.88756,57890.4712284358,0.0014895665
10954,10.1007/s11664-015-4303-6,5134,3(a),6472,x=1,Eu1Zn2Sb2,675.5,0.000017282,0.0020283,0.00018546,1.3596,0.88864,57863.6731859738,0.0014918358
10954,10.1007/s11664-015-4303-6,5134,3(a),6472,x=1,Eu1Zn2Sb2,676,0.00001729,0.0020294,0.00018548,1.3582,0.88972,57836.8999421631,0.0014941835
10954,10.1007/s11664-015-4303-6,5134,3(a),6472,x=1,Eu1Zn2Sb2,676.5,0.000017298,0.0020304,0.0001855,1.3568,0.8908,57810.1514625968,0.0014964623
10954,10.1007/s11664-015-4303-6,5134,3(a),6472,x=1,Eu1Zn2Sb2,677,0.000017306,0.0020314,0.00018552,1.3553,0.89188,57783.4277129319,0.0014988563
10954,10.1007/s11664-015-4303-6,5134,3(a),6472,x=1,Eu1Zn2Sb2,677.5,0.000017314,0.0020324,0.00018554,1.3539,0.89296,57756.7286588888,0.0015011448
10954,10.1007/s11664-015-4303-6,5134,3(a),6472,x=1,Eu1Zn2Sb2,678,0.000017322,0.0020335,0.00018556,1.3525,0.89404,57730.054266251,0.001503512
10954,10.1007/s11664-015-4303-6,5134,3(a),6472,x=1,Eu1Zn2Sb2,678.5,0.00001733,0.0020345,0.00018558,1.3511,0.89512,57703.4045008656,0.0015058101
10954,10.1007/s11664-015-4303-6,5134,3(a),6472,x=1,Eu1Zn2Sb2,679,0.000017338,0.0020355,0.0001856,1.3497,0.8962,57676.7793286423,0.0015081129
10954,10.1007/s11664-015-4303-6,5134,3(a),6472,x=1,Eu1Zn2Sb2,679.5,0.000017346,0.0020366,0.00018562,1.3482,0.89728,57650.178715554,0.0015106067
10954,10.1007/s11664-015-4303-6,5134,3(a),6472,x=1,Eu1Zn2Sb2,680,0.000017354,0.0020376,0.00018564,1.3468,0.89836,57623.6026276363,0.0015129195
10954,10.1007/s11664-015-4303-6,5134,3(a),6472,x=1,Eu1Zn2Sb2,680.5,0.000017362,0.0020386,0.00018566,1.3454,0.89944,57597.0510309872,0.0015152371
10954,10.1007/s11664-015-4303-6,5134,3(a),6472,x=1,Eu1Zn2Sb2,681,0.00001737,0.0020397,0.00018567,1.344,0.90052,57570.5238917674,0.0015176339
10954,10.1007/s11664-015-4303-6,5134,3(a),6472,x=1,Eu1Zn2Sb2,681.5,0.000017378,0.0020407,0.00018569,1.3426,0.9016,57544.0211761998,0.0015199613
10954,10.1007/s11664-015-4303-6,5134,3(a),6472,x=1,Eu1Zn2Sb2,682,0.000017386,0.0020417,0.00018571,1.3412,0.90268,57517.5428505694,0.0015222935
10954,10.1007/s11664-015-4303-6,5134,3(a),6472,x=1,Eu1Zn2Sb2,682.5,0.000017394,0.0020428,0.00018572,1.3397,0.90376,57491.0888812234,0.001524819
10954,10.1007/s11664-015-4303-6,5134,3(a),6472,x=1,Eu1Zn2Sb2,683,0.000017402,0.0020438,0.00018574,1.3383,0.90484,57464.6592345707,0.0015271613
10954,10.1007/s11664-015-4303-6,5134,3(a),6472,x=1,Eu1Zn2Sb2,683.5,0.00001741,0.0020448,0.00018575,1.3369,0.90592,57438.2538770821,0.0015295086
10954,10.1007/s11664-015-4303-6,5134,3(a),6472,x=1,Eu1Zn2Sb2,684,0.000017418,0.0020458,0.00018576,1.3355,0.907,57411.8727752899,0.0015318607
10954,10.1007/s11664-015-4303-6,5134,3(a),6472,x=1,Eu1Zn2Sb2,684.5,0.000017426,0.0020469,0.00018578,1.3341,0.90808,57385.5158957879,0.0015342928
10954,10.1007/s11664-015-4303-6,5134,3(a),6472,x=1,Eu1Zn2Sb2,685,0.000017434,0.0020479,0.00018579,1.3326,0.90916,57359.1832052312,0.0015367702
10954,10.1007/s11664-015-4303-6,5134,3(a),6472,x=1,Eu1Zn2Sb2,685.5,0.000017442,0.0020489,0.0001858,1.3312,0.91024,57332.874670336,0.0015391376
10954,10.1007/s11664-015-4303-6,5134,3(a),6472,x=1,Eu1Zn2Sb2,686,0.00001745,0.00205,0.00018581,1.3298,0.91132,57306.5902578797,0.0015415852
10954,10.1007/s11664-015-4303-6,5134,3(a),6472,x=1,Eu1Zn2Sb2,686.5,0.000017458,0.002051,0.00018582,1.3284,0.9124,57280.3299347004,0.0015439627
10954,10.1007/s11664-015-4303-6,5134,3(a),6472,x=1,Eu1Zn2Sb2,687,0.000017467,0.002052,0.00018583,1.327,0.91348,57250.8158241255,0.0015463451
10954,10.1007/s11664-015-4303-6,5134,3(a),6472,x=1,Eu1Zn2Sb2,687.5,0.000017475,0.0020531,0.00018584,1.3256,0.91456,57224.6065808297,0.0015488081
10954,10.1007/s11664-015-4303-6,5134,3(a),6472,x=1,Eu1Zn2Sb2,688,0.000017483,0.0020541,0.00018585,1.3241,0.91564,57198.4213235715,0.0015513179
10954,10.1007/s11664-015-4303-6,5134,3(a),6472,x=1,Eu1Zn2Sb2,688.5,0.000017491,0.0020551,0.00018586,1.3227,0.91672,57172.2600194386,0.0015537159
10954,10.1007/s11664-015-4303-6,5134,3(a),6472,x=1,Eu1Zn2Sb2,689,0.000017499,0.0020562,0.00018586,1.3213,0.9178,57146.1226355792,0.0015561947
10954,10.1007/s11664-015-4303-6,5134,3(a),6472,x=1,Eu1Zn2Sb2,689.5,0.000017507,0.0020572,0.00018587,1.3199,0.91887,57120.0091392015,0.0015586029
10954,10.1007/s11664-015-4303-6,5134,3(a),6472,x=1,Eu1Zn2Sb2,690,0.000017515,0.0020582,0.00018588,1.3185,0.91995,57093.9194975735,0.0015610163
10954,10.1007/s11664-015-4303-6,5134,3(a),6472,x=1,Eu1Zn2Sb2,690.5,0.000017523,0.0020592,0.00018588,1.317,0.92103,57067.8536780232,0.0015635535
10954,10.1007/s11664-015-4303-6,5134,3(a),6472,x=1,Eu1Zn2Sb2,691,0.000017531,0.0020603,0.00018589,1.3156,0.92211,57041.8116479379,0.0015660535
10954,10.1007/s11664-015-4303-6,5134,3(a),6472,x=1,Eu1Zn2Sb2,691.5,0.000017539,0.0020613,0.00018589,1.3142,0.92319,57015.7933747648,0.0015684827
10954,10.1007/s11664-015-4303-6,5134,3(a),6472,x=1,Eu1Zn2Sb2,692,0.000017547,0.0020623,0.0001859,1.3128,0.92427,56989.7988260101,0.0015709171
10954,10.1007/s11664-015-4303-6,5134,3(a),6472,x=1,Eu1Zn2Sb2,692.5,0.000017555,0.0020634,0.0001859,1.3114,0.92535,56963.8279692395,0.001573433
10954,10.1007/s11664-015-4303-6,5134,3(a),6472,x=1,Eu1Zn2Sb2,693,0.000017563,0.0020644,0.0001859,1.31,0.92643,56937.8807720777,0.0015758779
10954,10.1007/s11664-015-4303-6,5134,3(a),6472,x=1,Eu1Zn2Sb2,693.5,0.000017571,0.0020654,0.0001859,1.3085,0.92751,56911.9572022082,0.0015784486
10954,10.1007/s11664-015-4303-6,5134,3(a),6472,x=1,Eu1Zn2Sb2,694,0.000017579,0.0020665,0.0001859,1.3071,0.92859,56886.0572273736,0.0015809808
10954,10.1007/s11664-015-4303-6,5134,3(a),6472,x=1,Eu1Zn2Sb2,694.5,0.000017587,0.0020675,0.0001859,1.3057,0.92967,56860.180815375,0.0015834418
10954,10.1007/s11664-015-4303-6,5134,3(a),6472,x=1,Eu1Zn2Sb2,695,0.000017595,0.0020685,0.0001859,1.3043,0.93075,56834.3279340722,0.0015859081
10954,10.1007/s11664-015-4303-6,5134,3(a),6472,x=1,Eu1Zn2Sb2,695.5,0.000017603,0.0020696,0.0001859,1.3029,0.93183,56808.4985513833,0.0015884565
10954,10.1007/s11664-015-4303-6,5134,3(a),6472,x=1,Eu1Zn2Sb2,696,0.000017611,0.0020706,0.0001859,1.3014,0.93291,56782.6926352848,0.0015910558
10954,10.1007/s11664-015-4303-6,5134,3(a),6472,x=1,Eu1Zn2Sb2,696.5,0.000017619,0.0020716,0.0001859,1.3,0.93399,56756.9101538112,0.0015935385
10954,10.1007/s11664-015-4303-6,5134,3(a),6472,x=1,Eu1Zn2Sb2,697,0.000017627,0.0020726,0.00018589,1.2986,0.93507,56731.1510750553,0.0015960265
10954,10.1007/s11664-015-4303-6,5134,3(a),6472,x=1,Eu1Zn2Sb2,697.5,0.000017635,0.0020737,0.00018589,1.2972,0.93615,56705.4153671676,0.001598597
10954,10.1007/s11664-015-4303-6,5134,3(a),6472,x=1,Eu1Zn2Sb2,698,0.000017643,0.0020747,0.00018589,1.2958,0.93723,56679.7029983563,0.0016010958
10954,10.1007/s11664-015-4303-6,5134,3(a),6472,x=1,Eu1Zn2Sb2,698.5,0.000017651,0.0020757,0.00018588,1.2944,0.93831,56654.0139368874,0.0016036001
10954,10.1007/s11664-015-4303-6,5134,3(a),6472,x=1,Eu1Zn2Sb2,699,0.000017659,0.0020768,0.00018588,1.2929,0.93939,56628.3481510844,0.0016063114
10954,10.1007/s11664-015-4303-6,5134,3(a),6472,x=1,Eu1Zn2Sb2,699.5,0.000017667,0.0020778,0.00018587,1.2915,0.94047,56602.7056093281,0.0016088269
10954,10.1007/s11664-015-4303-6,5134,3(a),6472,x=1,Eu1Zn2Sb2,700,0.000017675,0.0020788,0.00018586,1.2901,0.94155,56577.0862800566,0.001611348
10954,10.1007/s11664-015-4303-6,5134,3(a),6472,x=1,Eu1Zn2Sb2,700.5,0.000017683,0.0020799,0.00018585,1.2887,0.94263,56551.490131765,0.001613952
10954,10.1007/s11664-015-4303-6,5134,3(a),6472,x=1,Eu1Zn2Sb2,701,0.000017691,0.0020809,0.00018585,1.2873,0.94371,56525.9171330055,0.0016164841
10954,10.1007/s11664-015-4303-6,5134,3(a),6472,x=1,Eu1Zn2Sb2,701.5,0.000017699,0.0020819,0.00018584,1.2858,0.94479,56500.3672523871,0.0016191476
10954,10.1007/s11664-015-4303-6,5134,3(a),6472,x=1,Eu1Zn2Sb2,702,0.000017708,0.002083,0.00018583,1.2844,0.94587,56471.651231082,0.0016217689
10954,10.1007/s11664-015-4303-6,5134,3(a),6472,x=1,Eu1Zn2Sb2,702.5,0.000017716,0.002084,0.00018582,1.283,0.94695,56446.1503725446,0.001624318
10954,10.1007/s11664-015-4303-6,5134,3(a),6472,x=1,Eu1Zn2Sb2,703,0.000017724,0.002085,0.00018581,1.2816,0.94803,56420.6725344166,0.0016268727
10954,10.1007/s11664-015-4303-6,5134,3(a),6472,x=1,Eu1Zn2Sb2,703.5,0.000017732,0.002086,0.00018579,1.2802,0.94911,56395.2176855403,0.0016294329
10954,10.1007/s11664-015-4303-6,5134,3(a),6472,x=1,Eu1Zn2Sb2,704,0.00001774,0.0020871,0.00018578,1.2788,0.95019,56369.785794814,0.0016320769
10954,10.1007/s11664-015-4303-6,5134,3(a),6472,x=1,Eu1Zn2Sb2,704.5,0.000017748,0.0020881,0.00018577,1.2773,0.95127,56344.3768311922,0.0016347765
10954,10.1007/s11664-015-4303-6,5134,3(a),6472,x=1,Eu1Zn2Sb2,705,0.000017756,0.0020891,0.00018575,1.2759,0.95235,56318.9907636855,0.001637354
10954,10.1007/s11664-015-4303-6,5134,3(a),6472,x=1,Eu1Zn2Sb2,705.5,0.000017764,0.0020902,0.00018574,1.2745,0.95343,56293.6275613601,0.0016400157
10954,10.1007/s11664-015-4303-6,5134,3(a),6472,x=1,Eu1Zn2Sb2,706,0.000017772,0.0020912,0.00018572,1.2731,0.95451,56268.2871933378,0.0016426047
10954,10.1007/s11664-015-4303-6,5134,3(a),6472,x=1,Eu1Zn2Sb2,706.5,0.00001778,0.0020922,0.00018571,1.2717,0.95559,56242.9696287964,0.0016451993
10954,10.1007/s11664-015-4303-6,5134,3(a),6472,x=1,Eu1Zn2Sb2,707,0.000017788,0.0020933,0.00018569,1.2702,0.95666,56217.6748369687,0.0016480082
10954,10.1007/s11664-015-4303-6,5134,3(a),6472,x=1,Eu1Zn2Sb2,707.5,0.000017796,0.0020943,0.00018567,1.2688,0.95774,56192.4027871432,0.0016506148
10954,10.1007/s11664-015-4303-6,5134,3(a),6472,x=1,Eu1Zn2Sb2,708,0.000017804,0.0020953,0.00018565,1.2674,0.95882,56167.1534486632,0.0016532271
10954,10.1007/s11664-015-4303-6,5134,3(a),6472,x=1,Eu1Zn2Sb2,708.5,0.000017812,0.0020963,0.00018563,1.266,0.9599,56141.9267909275,0.0016558452
10954,10.1007/s11664-015-4303-6,5134,3(a),6472,x=1,Eu1Zn2Sb2,709,0.00001782,0.0020974,0.00018561,1.2646,0.96098,56116.7227833895,0.0016585482