sid,DOI,figureid,fignum,sampleid,samplename,composition,Temperature,Electrical resistivity,Power factor,Seebeck coefficient,Thermal conductivity,ZT,Electrical conductivity,Figure of merit Z
10954,10.1007/s11664-015-4303-6,5134,3(a),6469,x=0.3,Ca0.7Eu0.3Zn2Sb2,386.5,0.00001632,0.0010193,0.00012891,3.0215,0.12867,61274.5098039216,0.000337349
10954,10.1007/s11664-015-4303-6,5134,3(a),6469,x=0.3,Ca0.7Eu0.3Zn2Sb2,387,0.000016333,0.00102,0.000129,3.0197,0.12919,61225.7393008021,0.0003377819
10954,10.1007/s11664-015-4303-6,5134,3(a),6469,x=0.3,Ca0.7Eu0.3Zn2Sb2,387.5,0.000016347,0.0010207,0.00012909,3.0178,0.12972,61173.3039701474,0.0003382265
10954,10.1007/s11664-015-4303-6,5134,3(a),6469,x=0.3,Ca0.7Eu0.3Zn2Sb2,388,0.00001636,0.0010213,0.00012918,3.0159,0.13025,61124.6943765281,0.0003386385
10954,10.1007/s11664-015-4303-6,5134,3(a),6469,x=0.3,Ca0.7Eu0.3Zn2Sb2,388.5,0.000016373,0.001022,0.00012927,3.014,0.13078,61076.1619739816,0.0003390843
10954,10.1007/s11664-015-4303-6,5134,3(a),6469,x=0.3,Ca0.7Eu0.3Zn2Sb2,389,0.000016387,0.0010227,0.00012937,3.0121,0.13131,61023.9824250931,0.0003395306
10954,10.1007/s11664-015-4303-6,5134,3(a),6469,x=0.3,Ca0.7Eu0.3Zn2Sb2,389.5,0.0000164,0.0010234,0.00012946,3.0102,0.13184,60975.6097560976,0.0003399774
10954,10.1007/s11664-015-4303-6,5134,3(a),6469,x=0.3,Ca0.7Eu0.3Zn2Sb2,390,0.000016413,0.0010241,0.00012955,3.0083,0.13237,60927.3137147383,0.0003404248
10954,10.1007/s11664-015-4303-6,5134,3(a),6469,x=0.3,Ca0.7Eu0.3Zn2Sb2,390.5,0.000016427,0.0010247,0.00012964,3.0064,0.13289,60875.388080599,0.0003408395
10954,10.1007/s11664-015-4303-6,5134,3(a),6469,x=0.3,Ca0.7Eu0.3Zn2Sb2,391,0.00001644,0.0010254,0.00012974,3.0046,0.13342,60827.2506082725,0.0003412767
10954,10.1007/s11664-015-4303-6,5134,3(a),6469,x=0.3,Ca0.7Eu0.3Zn2Sb2,391.5,0.000016453,0.0010261,0.00012983,3.0027,0.13395,60779.189205616,0.0003417258
10954,10.1007/s11664-015-4303-6,5134,3(a),6469,x=0.3,Ca0.7Eu0.3Zn2Sb2,392,0.000016467,0.0010268,0.00012992,3.0008,0.13448,60727.5156373353,0.0003421754
10954,10.1007/s11664-015-4303-6,5134,3(a),6469,x=0.3,Ca0.7Eu0.3Zn2Sb2,392.5,0.00001648,0.0010275,0.00013001,2.9989,0.13501,60679.6116504854,0.0003426256
10954,10.1007/s11664-015-4303-6,5134,3(a),6469,x=0.3,Ca0.7Eu0.3Zn2Sb2,393,0.000016493,0.0010282,0.00013011,2.997,0.13554,60631.7831807433,0.0003430764
10954,10.1007/s11664-015-4303-6,5134,3(a),6469,x=0.3,Ca0.7Eu0.3Zn2Sb2,393.5,0.000016507,0.0010288,0.0001302,2.9951,0.13607,60580.3598473375,0.0003434944
10954,10.1007/s11664-015-4303-6,5134,3(a),6469,x=0.3,Ca0.7Eu0.3Zn2Sb2,394,0.00001652,0.0010295,0.00013029,2.9932,0.13659,60532.6876513317,0.0003439463
10954,10.1007/s11664-015-4303-6,5134,3(a),6469,x=0.3,Ca0.7Eu0.3Zn2Sb2,394.5,0.000016533,0.0010302,0.00013038,2.9913,0.13712,60485.0904252102,0.0003443988
10954,10.1007/s11664-015-4303-6,5134,3(a),6469,x=0.3,Ca0.7Eu0.3Zn2Sb2,395,0.000016547,0.0010309,0.00013048,2.9895,0.13765,60433.9155133861,0.0003448403
10954,10.1007/s11664-015-4303-6,5134,3(a),6469,x=0.3,Ca0.7Eu0.3Zn2Sb2,395.5,0.00001656,0.0010316,0.00013057,2.9876,0.13818,60386.4734299517,0.0003452939
10954,10.1007/s11664-015-4303-6,5134,3(a),6469,x=0.3,Ca0.7Eu0.3Zn2Sb2,396,0.000016573,0.0010322,0.00013066,2.9857,0.13871,60339.1057744524,0.0003457146
10954,10.1007/s11664-015-4303-6,5134,3(a),6469,x=0.3,Ca0.7Eu0.3Zn2Sb2,396.5,0.000016587,0.0010329,0.00013075,2.9838,0.13924,60288.1774883945,0.0003461693
10954,10.1007/s11664-015-4303-6,5134,3(a),6469,x=0.3,Ca0.7Eu0.3Zn2Sb2,397,0.0000166,0.0010336,0.00013084,2.9819,0.13977,60240.9638554217,0.0003466246
10954,10.1007/s11664-015-4303-6,5134,3(a),6469,x=0.3,Ca0.7Eu0.3Zn2Sb2,397.5,0.000016613,0.0010343,0.00013094,2.98,0.14029,60193.8241136459,0.0003470805
10954,10.1007/s11664-015-4303-6,5134,3(a),6469,x=0.3,Ca0.7Eu0.3Zn2Sb2,398,0.000016627,0.001035,0.00013103,2.9781,0.14082,60143.140674806,0.000347537
10954,10.1007/s11664-015-4303-6,5134,3(a),6469,x=0.3,Ca0.7Eu0.3Zn2Sb2,398.5,0.00001664,0.0010356,0.00013112,2.9762,0.14135,60096.1538461538,0.0003479605
10954,10.1007/s11664-015-4303-6,5134,3(a),6469,x=0.3,Ca0.7Eu0.3Zn2Sb2,399,0.000016654,0.0010363,0.00013121,2.9744,0.14188,60045.6346823586,0.0003484064
10954,10.1007/s11664-015-4303-6,5134,3(a),6469,x=0.3,Ca0.7Eu0.3Zn2Sb2,399.5,0.000016667,0.001037,0.00013131,2.9725,0.14241,59998.8000239995,0.0003488646
10954,10.1007/s11664-015-4303-6,5134,3(a),6469,x=0.3,Ca0.7Eu0.3Zn2Sb2,400,0.00001668,0.0010377,0.0001314,2.9706,0.14294,59952.0383693046,0.0003493234
10954,10.1007/s11664-015-4303-6,5134,3(a),6469,x=0.3,Ca0.7Eu0.3Zn2Sb2,400.5,0.000016694,0.0010384,0.00013149,2.9687,0.14347,59901.7611117767,0.0003497827
10954,10.1007/s11664-015-4303-6,5134,3(a),6469,x=0.3,Ca0.7Eu0.3Zn2Sb2,401,0.000016707,0.001039,0.00013158,2.9668,0.14399,59855.1505357036,0.000350209
10954,10.1007/s11664-015-4303-6,5134,3(a),6469,x=0.3,Ca0.7Eu0.3Zn2Sb2,401.5,0.00001672,0.0010397,0.00013168,2.9649,0.14452,59808.6124401914,0.0003506695
10954,10.1007/s11664-015-4303-6,5134,3(a),6469,x=0.3,Ca0.7Eu0.3Zn2Sb2,402,0.000016734,0.0010404,0.00013177,2.963,0.14505,59758.5753555635,0.0003511306
10954,10.1007/s11664-015-4303-6,5134,3(a),6469,x=0.3,Ca0.7Eu0.3Zn2Sb2,402.5,0.000016747,0.0010411,0.00013186,2.9611,0.14558,59712.1872574192,0.0003515923
10954,10.1007/s11664-015-4303-6,5134,3(a),6469,x=0.3,Ca0.7Eu0.3Zn2Sb2,403,0.00001676,0.0010418,0.00013195,2.9593,0.14611,59665.8711217184,0.0003520427
10954,10.1007/s11664-015-4303-6,5134,3(a),6469,x=0.3,Ca0.7Eu0.3Zn2Sb2,403.5,0.000016774,0.0010424,0.00013204,2.9574,0.14664,59616.0724931442,0.0003524718
10954,10.1007/s11664-015-4303-6,5134,3(a),6469,x=0.3,Ca0.7Eu0.3Zn2Sb2,404,0.000016787,0.0010431,0.00013214,2.9555,0.14717,59569.9052838506,0.0003529352
10954,10.1007/s11664-015-4303-6,5134,3(a),6469,x=0.3,Ca0.7Eu0.3Zn2Sb2,404.5,0.0000168,0.0010438,0.00013223,2.9536,0.14769,59523.8095238095,0.0003533992
10954,10.1007/s11664-015-4303-6,5134,3(a),6469,x=0.3,Ca0.7Eu0.3Zn2Sb2,405,0.000016814,0.0010445,0.00013232,2.9517,0.14822,59474.2476507672,0.0003538639
10954,10.1007/s11664-015-4303-6,5134,3(a),6469,x=0.3,Ca0.7Eu0.3Zn2Sb2,405.5,0.000016827,0.0010452,0.00013241,2.9498,0.14875,59428.299756344,0.0003543291
10954,10.1007/s11664-015-4303-6,5134,3(a),6469,x=0.3,Ca0.7Eu0.3Zn2Sb2,406,0.00001684,0.0010458,0.00013251,2.9479,0.14928,59382.4228028503,0.000354761
10954,10.1007/s11664-015-4303-6,5134,3(a),6469,x=0.3,Ca0.7Eu0.3Zn2Sb2,406.5,0.000016854,0.0010465,0.0001326,2.946,0.14981,59333.0960009493,0.0003552274
10954,10.1007/s11664-015-4303-6,5134,3(a),6469,x=0.3,Ca0.7Eu0.3Zn2Sb2,407,0.000016867,0.0010472,0.00013269,2.9442,0.15034,59287.3658623347,0.0003556824
10954,10.1007/s11664-015-4303-6,5134,3(a),6469,x=0.3,Ca0.7Eu0.3Zn2Sb2,407.5,0.00001688,0.0010479,0.00013278,2.9423,0.15087,59241.7061611374,0.00035615
10954,10.1007/s11664-015-4303-6,5134,3(a),6469,x=0.3,Ca0.7Eu0.3Zn2Sb2,408,0.000016894,0.0010486,0.00013288,2.9404,0.1514,59192.6127619273,0.0003566181
10954,10.1007/s11664-015-4303-6,5134,3(a),6469,x=0.3,Ca0.7Eu0.3Zn2Sb2,408.5,0.000016907,0.0010492,0.00013297,2.9385,0.15192,59147.0988348022,0.0003570529
10954,10.1007/s11664-015-4303-6,5134,3(a),6469,x=0.3,Ca0.7Eu0.3Zn2Sb2,409,0.00001692,0.0010499,0.00013306,2.9366,0.15245,59101.6548463357,0.0003575223
10954,10.1007/s11664-015-4303-6,5134,3(a),6469,x=0.3,Ca0.7Eu0.3Zn2Sb2,409.5,0.000016934,0.0010506,0.00013315,2.9347,0.15298,59052.7931971182,0.0003579923
10954,10.1007/s11664-015-4303-6,5134,3(a),6469,x=0.3,Ca0.7Eu0.3Zn2Sb2,410,0.000016947,0.0010513,0.00013324,2.9328,0.15351,59007.4939517319,0.0003584629
10954,10.1007/s11664-015-4303-6,5134,3(a),6469,x=0.3,Ca0.7Eu0.3Zn2Sb2,410.5,0.00001696,0.001052,0.00013334,2.9309,0.15404,58962.2641509434,0.0003589341
10954,10.1007/s11664-015-4303-6,5134,3(a),6469,x=0.3,Ca0.7Eu0.3Zn2Sb2,411,0.000016974,0.0010526,0.00013343,2.9291,0.15457,58913.632614587,0.0003593595
10954,10.1007/s11664-015-4303-6,5134,3(a),6469,x=0.3,Ca0.7Eu0.3Zn2Sb2,411.5,0.000016987,0.0010533,0.00013352,2.9272,0.1551,58868.546535586,0.0003598319
10954,10.1007/s11664-015-4303-6,5134,3(a),6469,x=0.3,Ca0.7Eu0.3Zn2Sb2,412,0.000017001,0.001054,0.00013361,2.9253,0.15562,58820.0694076819,0.0003603049
10954,10.1007/s11664-015-4303-6,5134,3(a),6469,x=0.3,Ca0.7Eu0.3Zn2Sb2,412.5,0.000017014,0.0010547,0.00013371,2.9234,0.15615,58775.1263665217,0.0003607785
10954,10.1007/s11664-015-4303-6,5134,3(a),6469,x=0.3,Ca0.7Eu0.3Zn2Sb2,413,0.000017027,0.0010554,0.0001338,2.9215,0.15668,58730.2519527809,0.0003612528
10954,10.1007/s11664-015-4303-6,5134,3(a),6469,x=0.3,Ca0.7Eu0.3Zn2Sb2,413.5,0.000017041,0.001056,0.00013389,2.9196,0.15721,58682.0022299161,0.0003616934
10954,10.1007/s11664-015-4303-6,5134,3(a),6469,x=0.3,Ca0.7Eu0.3Zn2Sb2,414,0.000017054,0.0010567,0.00013398,2.9177,0.15774,58637.2698487158,0.0003621688
10954,10.1007/s11664-015-4303-6,5134,3(a),6469,x=0.3,Ca0.7Eu0.3Zn2Sb2,414.5,0.000017067,0.0010574,0.00013408,2.9158,0.15827,58592.6056131716,0.0003626449
10954,10.1007/s11664-015-4303-6,5134,3(a),6469,x=0.3,Ca0.7Eu0.3Zn2Sb2,415,0.000017081,0.0010581,0.00013417,2.914,0.1588,58544.5816989638,0.0003631091
10954,10.1007/s11664-015-4303-6,5134,3(a),6469,x=0.3,Ca0.7Eu0.3Zn2Sb2,415.5,0.000017094,0.0010588,0.00013426,2.9121,0.15932,58500.0585000585,0.0003635864
10954,10.1007/s11664-015-4303-6,5134,3(a),6469,x=0.3,Ca0.7Eu0.3Zn2Sb2,416,0.000017107,0.0010594,0.00013435,2.9102,0.15985,58455.6029695446,0.00036403
10954,10.1007/s11664-015-4303-6,5134,3(a),6469,x=0.3,Ca0.7Eu0.3Zn2Sb2,416.5,0.000017121,0.0010601,0.00013445,2.9083,0.16038,58407.8032825185,0.0003645085
10954,10.1007/s11664-015-4303-6,5134,3(a),6469,x=0.3,Ca0.7Eu0.3Zn2Sb2,417,0.000017134,0.0010608,0.00013454,2.9064,0.16091,58363.487802031,0.0003649876
10954,10.1007/s11664-015-4303-6,5134,3(a),6469,x=0.3,Ca0.7Eu0.3Zn2Sb2,417.5,0.000017147,0.0010615,0.00013463,2.9045,0.16144,58319.2395171167,0.0003654674
10954,10.1007/s11664-015-4303-6,5134,3(a),6469,x=0.3,Ca0.7Eu0.3Zn2Sb2,418,0.000017161,0.0010622,0.00013472,2.9026,0.16197,58271.6624905309,0.0003659478
10954,10.1007/s11664-015-4303-6,5134,3(a),6469,x=0.3,Ca0.7Eu0.3Zn2Sb2,418.5,0.000017174,0.0010628,0.00013481,2.9007,0.1625,58227.5532782113,0.0003663943
10954,10.1007/s11664-015-4303-6,5134,3(a),6469,x=0.3,Ca0.7Eu0.3Zn2Sb2,419,0.000017187,0.0010635,0.00013491,2.8989,0.16302,58183.5107930412,0.0003668633
10954,10.1007/s11664-015-4303-6,5134,3(a),6469,x=0.3,Ca0.7Eu0.3Zn2Sb2,419.5,0.000017201,0.0010642,0.000135,2.897,0.16355,58136.1548747166,0.0003673455
10954,10.1007/s11664-015-4303-6,5134,3(a),6469,x=0.3,Ca0.7Eu0.3Zn2Sb2,420,0.000017214,0.0010649,0.00013509,2.8951,0.16408,58092.2504937841,0.0003678284
10954,10.1007/s11664-015-4303-6,5134,3(a),6469,x=0.3,Ca0.7Eu0.3Zn2Sb2,420.5,0.000017227,0.0010656,0.00013518,2.8932,0.16461,58048.4123759215,0.0003683119
10954,10.1007/s11664-015-4303-6,5134,3(a),6469,x=0.3,Ca0.7Eu0.3Zn2Sb2,421,0.000017241,0.0010662,0.00013528,2.8913,0.16514,58001.2760280726,0.0003687615
10954,10.1007/s11664-015-4303-6,5134,3(a),6469,x=0.3,Ca0.7Eu0.3Zn2Sb2,421.5,0.000017254,0.0010669,0.00013537,2.8894,0.16567,57957.5750550597,0.0003692462
10954,10.1007/s11664-015-4303-6,5134,3(a),6469,x=0.3,Ca0.7Eu0.3Zn2Sb2,422,0.000017267,0.0010676,0.00013546,2.8875,0.1662,57913.9398853304,0.0003697316
10954,10.1007/s11664-015-4303-6,5134,3(a),6469,x=0.3,Ca0.7Eu0.3Zn2Sb2,422.5,0.000017281,0.0010683,0.00013555,2.8856,0.16672,57867.0215843991,0.0003702176
10954,10.1007/s11664-015-4303-6,5134,3(a),6469,x=0.3,Ca0.7Eu0.3Zn2Sb2,423,0.000017294,0.001069,0.00013565,2.8838,0.16725,57823.5226089973,0.0003706914
10954,10.1007/s11664-015-4303-6,5134,3(a),6469,x=0.3,Ca0.7Eu0.3Zn2Sb2,423.5,0.000017307,0.0010696,0.00013574,2.8819,0.16778,57780.088981337,0.000371144
10954,10.1007/s11664-015-4303-6,5134,3(a),6469,x=0.3,Ca0.7Eu0.3Zn2Sb2,424,0.000017321,0.0010703,0.00013583,2.88,0.16831,57733.3872178281,0.0003716319
10954,10.1007/s11664-015-4303-6,5134,3(a),6469,x=0.3,Ca0.7Eu0.3Zn2Sb2,424.5,0.000017334,0.001071,0.00013592,2.8781,0.16884,57690.0888427368,0.0003721205
10954,10.1007/s11664-015-4303-6,5134,3(a),6469,x=0.3,Ca0.7Eu0.3Zn2Sb2,425,0.000017348,0.0010717,0.00013601,2.8762,0.16937,57643.5323956652,0.0003726097
10954,10.1007/s11664-015-4303-6,5134,3(a),6469,x=0.3,Ca0.7Eu0.3Zn2Sb2,425.5,0.000017361,0.0010724,0.00013611,2.8743,0.1699,57600.3686423593,0.0003730995
10954,10.1007/s11664-015-4303-6,5134,3(a),6469,x=0.3,Ca0.7Eu0.3Zn2Sb2,426,0.000017374,0.001073,0.0001362,2.8724,0.17042,57557.2694831357,0.0003735552
10954,10.1007/s11664-015-4303-6,5134,3(a),6469,x=0.3,Ca0.7Eu0.3Zn2Sb2,426.5,0.000017388,0.0010737,0.00013629,2.8705,0.17095,57510.9270761445,0.0003740463
10954,10.1007/s11664-015-4303-6,5134,3(a),6469,x=0.3,Ca0.7Eu0.3Zn2Sb2,427,0.000017401,0.0010744,0.00013638,2.8687,0.17148,57467.9616114016,0.000374525
10954,10.1007/s11664-015-4303-6,5134,3(a),6469,x=0.3,Ca0.7Eu0.3Zn2Sb2,427.5,0.000017414,0.0010751,0.00013648,2.8668,0.17201,57425.0602963133,0.0003750174
10954,10.1007/s11664-015-4303-6,5134,3(a),6469,x=0.3,Ca0.7Eu0.3Zn2Sb2,428,0.000017428,0.0010758,0.00013657,2.8649,0.17254,57378.9304567363,0.0003755105
10954,10.1007/s11664-015-4303-6,5134,3(a),6469,x=0.3,Ca0.7Eu0.3Zn2Sb2,428.5,0.000017441,0.0010764,0.00013666,2.863,0.17307,57336.1619173213,0.0003759693
10954,10.1007/s11664-015-4303-6,5134,3(a),6469,x=0.3,Ca0.7Eu0.3Zn2Sb2,429,0.000017454,0.0010771,0.00013675,2.8611,0.1736,57293.4570872006,0.0003764636
10954,10.1007/s11664-015-4303-6,5134,3(a),6469,x=0.3,Ca0.7Eu0.3Zn2Sb2,429.5,0.000017468,0.0010778,0.00013685,2.8592,0.17413,57247.5383558507,0.0003769586
10954,10.1007/s11664-015-4303-6,5134,3(a),6469,x=0.3,Ca0.7Eu0.3Zn2Sb2,430,0.000017481,0.0010785,0.00013694,2.8573,0.17465,57204.9653909959,0.0003774542
10954,10.1007/s11664-015-4303-6,5134,3(a),6469,x=0.3,Ca0.7Eu0.3Zn2Sb2,430.5,0.000017494,0.0010792,0.00013703,2.8554,0.17518,57162.4556990968,0.0003779505
10954,10.1007/s11664-015-4303-6,5134,3(a),6469,x=0.3,Ca0.7Eu0.3Zn2Sb2,431,0.000017508,0.0010798,0.00013712,2.8536,0.17571,57116.7466301119,0.0003783992
10954,10.1007/s11664-015-4303-6,5134,3(a),6469,x=0.3,Ca0.7Eu0.3Zn2Sb2,431.5,0.000017521,0.0010805,0.00013721,2.8517,0.17624,57074.3679013755,0.0003788968
10954,10.1007/s11664-015-4303-6,5134,3(a),6469,x=0.3,Ca0.7Eu0.3Zn2Sb2,432,0.000017534,0.0010812,0.00013731,2.8498,0.17677,57032.0520132314,0.000379395
10954,10.1007/s11664-015-4303-6,5134,3(a),6469,x=0.3,Ca0.7Eu0.3Zn2Sb2,432.5,0.000017548,0.0010819,0.0001374,2.8479,0.1773,56986.551173923,0.000379894
10954,10.1007/s11664-015-4303-6,5134,3(a),6469,x=0.3,Ca0.7Eu0.3Zn2Sb2,433,0.000017561,0.0010826,0.00013749,2.846,0.17783,56944.3653550481,0.0003803935
10954,10.1007/s11664-015-4303-6,5134,3(a),6469,x=0.3,Ca0.7Eu0.3Zn2Sb2,433.5,0.000017574,0.0010832,0.00013758,2.8441,0.17835,56902.2419483328,0.0003808586
10954,10.1007/s11664-015-4303-6,5134,3(a),6469,x=0.3,Ca0.7Eu0.3Zn2Sb2,434,0.000017588,0.0010839,0.00013768,2.8422,0.17888,56856.9479190357,0.0003813595
10954,10.1007/s11664-015-4303-6,5134,3(a),6469,x=0.3,Ca0.7Eu0.3Zn2Sb2,434.5,0.000017601,0.0010846,0.00013777,2.8403,0.17941,56814.9536958127,0.0003818611
10954,10.1007/s11664-015-4303-6,5134,3(a),6469,x=0.3,Ca0.7Eu0.3Zn2Sb2,435,0.000017614,0.0010853,0.00013786,2.8385,0.17994,56773.0214602021,0.0003823498
10954,10.1007/s11664-015-4303-6,5134,3(a),6469,x=0.3,Ca0.7Eu0.3Zn2Sb2,435.5,0.000017628,0.001086,0.00013795,2.8366,0.18047,56727.9328341275,0.0003828527
10954,10.1007/s11664-015-4303-6,5134,3(a),6469,x=0.3,Ca0.7Eu0.3Zn2Sb2,436,0.000017641,0.0010866,0.00013805,2.8347,0.181,56686.1289042571,0.000383321
10954,10.1007/s11664-015-4303-6,5134,3(a),6469,x=0.3,Ca0.7Eu0.3Zn2Sb2,436.5,0.000017654,0.0010873,0.00013814,2.8328,0.18153,56644.3865412938,0.0003838252
10954,10.1007/s11664-015-4303-6,5134,3(a),6469,x=0.3,Ca0.7Eu0.3Zn2Sb2,437,0.000017668,0.001088,0.00013823,2.8309,0.18205,56599.5019243831,0.0003843301
10954,10.1007/s11664-015-4303-6,5134,3(a),6469,x=0.3,Ca0.7Eu0.3Zn2Sb2,437.5,0.000017681,0.0010887,0.00013832,2.829,0.18258,56557.8869973418,0.0003848356
10954,10.1007/s11664-015-4303-6,5134,3(a),6469,x=0.3,Ca0.7Eu0.3Zn2Sb2,438,0.000017695,0.0010894,0.00013842,2.8271,0.18311,56513.1393048884,0.0003853419
10954,10.1007/s11664-015-4303-6,5134,3(a),6469,x=0.3,Ca0.7Eu0.3Zn2Sb2,438.5,0.000017708,0.0010901,0.00013851,2.8252,0.18364,56471.651231082,0.0003858488
10954,10.1007/s11664-015-4303-6,5134,3(a),6469,x=0.3,Ca0.7Eu0.3Zn2Sb2,439,0.000017721,0.0010907,0.0001386,2.8234,0.18417,56430.2240279894,0.0003863073
10954,10.1007/s11664-015-4303-6,5134,3(a),6469,x=0.3,Ca0.7Eu0.3Zn2Sb2,439.5,0.000017735,0.0010914,0.00013869,2.8215,0.1847,56385.6780377784,0.0003868155
10954,10.1007/s11664-015-4303-6,5134,3(a),6469,x=0.3,Ca0.7Eu0.3Zn2Sb2,440,0.000017748,0.0010921,0.00013878,2.8196,0.18523,56344.3768311922,0.0003873244
10954,10.1007/s11664-015-4303-6,5134,3(a),6469,x=0.3,Ca0.7Eu0.3Zn2Sb2,440.5,0.000017761,0.0010928,0.00013888,2.8177,0.18575,56303.1360846799,0.000387834
10954,10.1007/s11664-015-4303-6,5134,3(a),6469,x=0.3,Ca0.7Eu0.3Zn2Sb2,441,0.000017775,0.0010935,0.00013897,2.8158,0.18628,56258.7904360056,0.0003883443
10954,10.1007/s11664-015-4303-6,5134,3(a),6469,x=0.3,Ca0.7Eu0.3Zn2Sb2,441.5,0.000017788,0.0010941,0.00013906,2.8139,0.18681,56217.6748369687,0.0003888198
10954,10.1007/s11664-015-4303-6,5134,3(a),6469,x=0.3,Ca0.7Eu0.3Zn2Sb2,442,0.000017801,0.0010948,0.00013915,2.812,0.18734,56176.6192910511,0.0003893314
10954,10.1007/s11664-015-4303-6,5134,3(a),6469,x=0.3,Ca0.7Eu0.3Zn2Sb2,442.5,0.000017815,0.0010955,0.00013925,2.8101,0.18787,56132.4726354196,0.0003898438
10954,10.1007/s11664-015-4303-6,5134,3(a),6469,x=0.3,Ca0.7Eu0.3Zn2Sb2,443,0.000017828,0.0010962,0.00013934,2.8083,0.1884,56091.5413955575,0.0003903429
10954,10.1007/s11664-015-4303-6,5134,3(a),6469,x=0.3,Ca0.7Eu0.3Zn2Sb2,443.5,0.000017841,0.0010969,0.00013943,2.8064,0.18893,56050.6698055042,0.0003908566
10954,10.1007/s11664-015-4303-6,5134,3(a),6469,x=0.3,Ca0.7Eu0.3Zn2Sb2,444,0.000017855,0.0010975,0.00013952,2.8045,0.18945,56006.7208064968,0.0003913354
10954,10.1007/s11664-015-4303-6,5134,3(a),6469,x=0.3,Ca0.7Eu0.3Zn2Sb2,444.5,0.000017868,0.0010982,0.00013962,2.8026,0.18998,55965.9726886053,0.0003918504
10954,10.1007/s11664-015-4303-6,5134,3(a),6469,x=0.3,Ca0.7Eu0.3Zn2Sb2,445,0.000017881,0.0010989,0.00013971,2.8007,0.19051,55925.2838208154,0.0003923662
10954,10.1007/s11664-015-4303-6,5134,3(a),6469,x=0.3,Ca0.7Eu0.3Zn2Sb2,445.5,0.000017895,0.0010996,0.0001398,2.7988,0.19104,55881.5311539536,0.0003928827
10954,10.1007/s11664-015-4303-6,5134,3(a),6469,x=0.3,Ca0.7Eu0.3Zn2Sb2,446,0.000017908,0.0011003,0.00013989,2.7969,0.19157,55840.964931874,0.0003933998
10954,10.1007/s11664-015-4303-6,5134,3(a),6469,x=0.3,Ca0.7Eu0.3Zn2Sb2,446.5,0.000017921,0.0011009,0.00013998,2.795,0.1921,55800.457563752,0.0003938819
10954,10.1007/s11664-015-4303-6,5134,3(a),6469,x=0.3,Ca0.7Eu0.3Zn2Sb2,447,0.000017935,0.0011016,0.00014008,2.7932,0.19263,55756.8999163647,0.0003943864
10954,10.1007/s11664-015-4303-6,5134,3(a),6469,x=0.3,Ca0.7Eu0.3Zn2Sb2,447.5,0.000017948,0.0011023,0.00014017,2.7913,0.19315,55716.5143748607,0.0003949056
10954,10.1007/s11664-015-4303-6,5134,3(a),6469,x=0.3,Ca0.7Eu0.3Zn2Sb2,448,0.000017961,0.001103,0.00014026,2.7894,0.19368,55676.1872946941,0.0003954255
10954,10.1007/s11664-015-4303-6,5134,3(a),6469,x=0.3,Ca0.7Eu0.3Zn2Sb2,448.5,0.000017975,0.0011037,0.00014035,2.7875,0.19421,55632.8233657858,0.0003959462
10954,10.1007/s11664-015-4303-6,5134,3(a),6469,x=0.3,Ca0.7Eu0.3Zn2Sb2,449,0.000017988,0.0011043,0.00014045,2.7856,0.19474,55592.6173004225,0.0003964316
10954,10.1007/s11664-015-4303-6,5134,3(a),6469,x=0.3,Ca0.7Eu0.3Zn2Sb2,449.5,0.000018001,0.001105,0.00014054,2.7837,0.19527,55552.4693072607,0.0003969537
10954,10.1007/s11664-015-4303-6,5134,3(a),6469,x=0.3,Ca0.7Eu0.3Zn2Sb2,450,0.000018015,0.0011057,0.00014063,2.7818,0.1958,55509.2978073827,0.0003974765
10954,10.1007/s11664-015-4303-6,5134,3(a),6469,x=0.3,Ca0.7Eu0.3Zn2Sb2,450.5,0.000018028,0.0011064,0.00014072,2.7799,0.19633,55469.2700244065,0.0003979999
10954,10.1007/s11664-015-4303-6,5134,3(a),6469,x=0.3,Ca0.7Eu0.3Zn2Sb2,451,0.000018042,0.0011071,0.00014082,2.7781,0.19686,55426.2276909433,0.0003985098