sid,DOI,figureid,fignum,sampleid,samplename,composition,Temperature,Electrical conductivity,Seebeck coefficient,Thermal conductivity,ZT,Electrical resistivity,Power factor,Figure of merit Z
27931,10.1021/acs.cgd.8b00605,25595,3a,31869,3T-Perpendicular,Bi0.875Ba0.125CuSeO,350,58765,0.000099641,0.80055,0.25403,0.0000170169,0.0005834382,0.0007287968
27931,10.1021/acs.cgd.8b00605,25595,3a,31869,3T-Perpendicular,Bi0.875Ba0.125CuSeO,400,55143,0.00010814,0.77494,0.3495,0.0000181347,0.0006448566,0.0008321374
27931,10.1021/acs.cgd.8b00605,25595,3a,31869,3T-Perpendicular,Bi0.875Ba0.125CuSeO,450,51521,0.00011664,0.74933,0.44497,0.0000194096,0.0007009375,0.000935419
27931,10.1021/acs.cgd.8b00605,25595,3a,31869,3T-Perpendicular,Bi0.875Ba0.125CuSeO,500,47899,0.00012514,0.72372,0.54044,0.0000208773,0.0007500993,0.0010364496
27931,10.1021/acs.cgd.8b00605,25595,3a,31869,3T-Perpendicular,Bi0.875Ba0.125CuSeO,550,44277,0.00013364,0.69811,0.63591,0.0000225851,0.0007907717,0.0011327322
27931,10.1021/acs.cgd.8b00605,25595,3a,31869,3T-Perpendicular,Bi0.875Ba0.125CuSeO,600,40656,0.00014214,0.6725,0.73137,0.0000245966,0.0008214049,0.0012214199
27931,10.1021/acs.cgd.8b00605,25595,3a,31869,3T-Perpendicular,Bi0.875Ba0.125CuSeO,650,37034,0.00015064,0.64689,0.82684,0.0000270022,0.0008403907,0.0012991246
27931,10.1021/acs.cgd.8b00605,25595,3a,31869,3T-Perpendicular,Bi0.875Ba0.125CuSeO,700,33412,0.00015914,0.62128,0.92231,0.0000299294,0.0008461769,0.0013619896
27931,10.1021/acs.cgd.8b00605,25595,3a,31869,3T-Perpendicular,Bi0.875Ba0.125CuSeO,750,29790,0.00016764,0.59567,1.0178,0.0000335683,0.0008371934,0.0014054651
27931,10.1021/acs.cgd.8b00605,25595,3a,31869,3T-Perpendicular,Bi0.875Ba0.125CuSeO,800,26168,0.00017614,0.57006,1.1133,0.0000382146,0.00081187,0.0014241835
27931,10.1021/acs.cgd.8b00605,25595,3a,31869,3T-Perpendicular,Bi0.875Ba0.125CuSeO,850,22547,0.00018464,0.54445,1.2087,0.0000443518,0.0007686707,0.0014118298
27931,10.1021/acs.cgd.8b00605,25595,3a,31869,3T-Perpendicular,Bi0.875Ba0.125CuSeO,900,18925,0.00019314,0.51884,1.3042,0.0000528402,0.0007059604,0.0013606515
27931,10.1021/acs.cgd.8b00605,25596,3c,31869,3T-Perpendicular,Bi0.875Ba0.125CuSeO,300,,0.000091141,0.82616,0.15856,,,
27931,10.1021/acs.cgd.8b00605,25595,3a,31868,3T-Parallel,Bi0.875Ba0.125CuSeO,350,13745,0.00010113,0.59519,0.061537,0.0000727537,0.0001405739,0.0002361833
27931,10.1021/acs.cgd.8b00605,25595,3a,31868,3T-Parallel,Bi0.875Ba0.125CuSeO,400,12942,0.00010958,0.56982,0.10559,0.0000772678,0.0001554046,0.0002727258
27931,10.1021/acs.cgd.8b00605,25595,3a,31868,3T-Parallel,Bi0.875Ba0.125CuSeO,450,12139,0.00011804,0.54445,0.14965,0.0000823791,0.000169138,0.0003106586
27931,10.1021/acs.cgd.8b00605,25595,3a,31868,3T-Parallel,Bi0.875Ba0.125CuSeO,500,11336,0.0001265,0.51908,0.1937,0.0000882145,0.0001814015,0.0003494673
27931,10.1021/acs.cgd.8b00605,25595,3a,31868,3T-Parallel,Bi0.875Ba0.125CuSeO,550,10532,0.00013495,0.49371,0.23776,0.0000949487,0.0001918035,0.0003884943
27931,10.1021/acs.cgd.8b00605,25595,3a,31868,3T-Parallel,Bi0.875Ba0.125CuSeO,600,9729,0.00014341,0.46835,0.28181,0.0001027855,0.0002000908,0.0004272249
27931,10.1021/acs.cgd.8b00605,25595,3a,31868,3T-Parallel,Bi0.875Ba0.125CuSeO,650,8925.7,0.00015187,0.44298,0.32586,0.000112036,0.0002058668,0.0004647315
27931,10.1021/acs.cgd.8b00605,25595,3a,31868,3T-Parallel,Bi0.875Ba0.125CuSeO,700,8122.4,0.00016032,0.41761,0.36992,0.0001231163,0.000208766,0.0004999066
27931,10.1021/acs.cgd.8b00605,25595,3a,31868,3T-Parallel,Bi0.875Ba0.125CuSeO,750,7319.1,0.00016878,0.39224,0.41397,0.0001366288,0.0002084969,0.0005315545
27931,10.1021/acs.cgd.8b00605,25595,3a,31868,3T-Parallel,Bi0.875Ba0.125CuSeO,800,6515.9,0.00017724,0.36687,0.45803,0.0001534707,0.0002046906,0.0005579377
27931,10.1021/acs.cgd.8b00605,25595,3a,31868,3T-Parallel,Bi0.875Ba0.125CuSeO,850,5712.6,0.0001857,0.3415,0.50208,0.0001750516,0.0001969961,0.0005768553
27931,10.1021/acs.cgd.8b00605,25595,3a,31868,3T-Parallel,Bi0.875Ba0.125CuSeO,900,4909.3,0.00019415,0.31613,0.54614,0.000203695,0.0001850522,0.0005853676
27931,10.1021/acs.cgd.8b00605,25597,4a,31868,3T-Parallel,Bi0.875Ba0.125CuSeO,300,,,0.62056,0.017483,,,
27931,10.1021/acs.cgd.8b00605,25595,3a,31862,0T-parallel,Bi0.875Ba0.125CuSeO,300,50210,0.000086461,0.6688,0.16837,0.0000199164,0.0003753451,0.0005612217
27931,10.1021/acs.cgd.8b00605,25595,3a,31862,0T-parallel,Bi0.875Ba0.125CuSeO,350,47389,0.000097363,0.65051,0.058678,0.0000211019,0.0004492266,0.000690576
27931,10.1021/acs.cgd.8b00605,25595,3a,31862,0T-parallel,Bi0.875Ba0.125CuSeO,400,44567,0.00010781,0.63221,0.10349,0.0000224381,0.0005180021,0.0008193513
27931,10.1021/acs.cgd.8b00605,25595,3a,31862,0T-parallel,Bi0.875Ba0.125CuSeO,450,41746,0.0001178,0.61392,0.1483,0.0000239544,0.0005793026,0.0009436125
27931,10.1021/acs.cgd.8b00605,25595,3a,31862,0T-parallel,Bi0.875Ba0.125CuSeO,500,38924,0.00012734,0.59563,0.19311,0.0000256911,0.0006311712,0.0010596699
27931,10.1021/acs.cgd.8b00605,25595,3a,31862,0T-parallel,Bi0.875Ba0.125CuSeO,550,36103,0.00013643,0.57734,0.23792,0.0000276985,0.0006719904,0.0011639422
27931,10.1021/acs.cgd.8b00605,25595,3a,31862,0T-parallel,Bi0.875Ba0.125CuSeO,600,33282,0.00014506,0.55904,0.28273,0.0000300463,0.0007003333,0.0012527427
27931,10.1021/acs.cgd.8b00605,25595,3a,31862,0T-parallel,Bi0.875Ba0.125CuSeO,650,30460,0.00015324,0.54075,0.32754,0.0000328299,0.0007152769,0.0013227497
27931,10.1021/acs.cgd.8b00605,25595,3a,31862,0T-parallel,Bi0.875Ba0.125CuSeO,700,27639,0.00016096,0.52246,0.37235,0.0000361808,0.0007160746,0.0013705826
27931,10.1021/acs.cgd.8b00605,25595,3a,31862,0T-parallel,Bi0.875Ba0.125CuSeO,750,24817,0.00016823,0.50417,0.41716,0.000040295,0.0007023542,0.00139309
27931,10.1021/acs.cgd.8b00605,25595,3a,31862,0T-parallel,Bi0.875Ba0.125CuSeO,800,21996,0.00017504,0.48587,0.46197,0.0000454628,0.0006739355,0.0013870695
27931,10.1021/acs.cgd.8b00605,25595,3a,31862,0T-parallel,Bi0.875Ba0.125CuSeO,850,19174,0.0001814,0.46758,0.50678,0.000052154,0.0006309389,0.001349371
27931,10.1021/acs.cgd.8b00605,25595,3a,31862,0T-parallel,Bi0.875Ba0.125CuSeO,900,16353,0.00018731,0.44929,0.55159,0.0000611509,0.0005737456,0.001277005
27931,10.1021/acs.cgd.8b00605,25595,3a,31863,0T-Perpendicular, Bi0.875Ba0.125CuSeO,350,40170,0.000097952,0.67836,0.24762,0.0000248942,0.0003854149,0.0005681568
27931,10.1021/acs.cgd.8b00605,25595,3a,31863,0T-Perpendicular, Bi0.875Ba0.125CuSeO,400,37895,0.00010639,0.65958,0.34317,0.0000263887,0.0004289271,0.0006503034
27931,10.1021/acs.cgd.8b00605,25595,3a,31863,0T-Perpendicular, Bi0.875Ba0.125CuSeO,450,35620,0.00011482,0.6408,0.43873,0.0000280741,0.000469601,0.0007328355
27931,10.1021/acs.cgd.8b00605,25595,3a,31863,0T-Perpendicular, Bi0.875Ba0.125CuSeO,500,33345,0.00012325,0.62202,0.53428,0.0000299895,0.0005065293,0.0008143296
27931,10.1021/acs.cgd.8b00605,25595,3a,31863,0T-Perpendicular, Bi0.875Ba0.125CuSeO,550,31070,0.00013169,0.60324,0.62984,0.0000321854,0.0005388239,0.0008932165
27931,10.1021/acs.cgd.8b00605,25595,3a,31863,0T-Perpendicular, Bi0.875Ba0.125CuSeO,600,28795,0.00014012,0.58446,0.7254,0.0000347283,0.0005653499,0.000967303
27931,10.1021/acs.cgd.8b00605,25595,3a,31863,0T-Perpendicular, Bi0.875Ba0.125CuSeO,650,26520,0.00014855,0.56568,0.82095,0.0000377074,0.0005852196,0.0010345417
27931,10.1021/acs.cgd.8b00605,25595,3a,31863,0T-Perpendicular, Bi0.875Ba0.125CuSeO,700,24245,0.00015699,0.5469,0.91651,0.0000412456,0.0005975389,0.0010925926
27931,10.1021/acs.cgd.8b00605,25595,3a,31863,0T-Perpendicular, Bi0.875Ba0.125CuSeO,750,21970,0.00016542,0.52812,1.0121,0.0000455166,0.0006011822,0.0011383439
27931,10.1021/acs.cgd.8b00605,25595,3a,31863,0T-Perpendicular, Bi0.875Ba0.125CuSeO,800,19695,0.00017386,0.50934,1.1076,0.0000507743,0.0005953267,0.0011688198
27931,10.1021/acs.cgd.8b00605,25595,3a,31863,0T-Perpendicular, Bi0.875Ba0.125CuSeO,850,17420,0.00018229,0.49056,1.2032,0.0000574053,0.0005788604,0.0011799992
27931,10.1021/acs.cgd.8b00605,25595,3a,31863,0T-Perpendicular, Bi0.875Ba0.125CuSeO,900,15145,0.00019072,0.47178,1.2987,0.0000660284,0.000550886,0.0011676757
27931,10.1021/acs.cgd.8b00605,25596,3c,31863,0T-Perpendicular, Bi0.875Ba0.125CuSeO,300,,0.000089518,0.69714,,,,
27931,10.1021/acs.cgd.8b00605,25595,3a,31864,1T-Parallel, Bi0.875Ba0.125CuSeO,350,29500,0.000093806,0.72951,0.068278,0.0000338983,0.0002595872,0.0003558377
27931,10.1021/acs.cgd.8b00605,25595,3a,31864,1T-Parallel, Bi0.875Ba0.125CuSeO,400,27446,0.0001023,0.69993,0.12936,0.0000364352,0.0002872303,0.0004103701
27931,10.1021/acs.cgd.8b00605,25595,3a,31864,1T-Parallel, Bi0.875Ba0.125CuSeO,450,25392,0.00011102,0.67034,0.19045,0.0000393825,0.0003129676,0.0004668789
27931,10.1021/acs.cgd.8b00605,25595,3a,31864,1T-Parallel, Bi0.875Ba0.125CuSeO,500,23338,0.00011987,0.64076,0.25154,0.0000428486,0.0003353394,0.0005233464
27931,10.1021/acs.cgd.8b00605,25595,3a,31864,1T-Parallel, Bi0.875Ba0.125CuSeO,550,21283,0.00012879,0.61118,0.31262,0.0000469859,0.0003530182,0.0005776011
27931,10.1021/acs.cgd.8b00605,25595,3a,31864,1T-Parallel, Bi0.875Ba0.125CuSeO,600,19229,0.0001377,0.58159,0.37371,0.0000520048,0.0003646066,0.0006269135
27931,10.1021/acs.cgd.8b00605,25595,3a,31864,1T-Parallel, Bi0.875Ba0.125CuSeO,650,17175,0.00014651,0.55201,0.4348,0.0000582242,0.0003686645,0.0006678583
27931,10.1021/acs.cgd.8b00605,25595,3a,31864,1T-Parallel, Bi0.875Ba0.125CuSeO,700,15121,0.00015516,0.52243,0.49588,0.0000661332,0.0003640324,0.0006968061
27931,10.1021/acs.cgd.8b00605,25595,3a,31864,1T-Parallel, Bi0.875Ba0.125CuSeO,750,13067,0.00016357,0.49285,0.55697,0.0000765287,0.0003496095,0.0007093628
27931,10.1021/acs.cgd.8b00605,25595,3a,31864,1T-Parallel, Bi0.875Ba0.125CuSeO,800,11012,0.00017167,0.46326,0.61806,0.00009081,0.0003245301,0.0007005356
27931,10.1021/acs.cgd.8b00605,25595,3a,31864,1T-Parallel, Bi0.875Ba0.125CuSeO,850,8958.2,0.00017937,0.43368,0.67914,0.0001116296,0.0002882175,0.0006645857
27931,10.1021/acs.cgd.8b00605,25595,3a,31864,1T-Parallel, Bi0.875Ba0.125CuSeO,900,6904,0.0001866,0.4041,0.74023,0.0001448436,0.0002403942,0.000594888
27931,10.1021/acs.cgd.8b00605,25596,3c,31864,1T-Parallel, Bi0.875Ba0.125CuSeO,300,,0.000085598,0.75909,0.007192,,,
27931,10.1021/acs.cgd.8b00605,25595,3a,31865,1T-Perpendicular, Bi0.875Ba0.125CuSeO,300,44791,0.000090534,,0.11252,0.0000223259,0.0003671252,
27931,10.1021/acs.cgd.8b00605,25595,3a,31865,1T-Perpendicular, Bi0.875Ba0.125CuSeO,350,42311,0.000099012,,0.1952,0.0000236345,0.0004147906,
27931,10.1021/acs.cgd.8b00605,25595,3a,31865,1T-Perpendicular, Bi0.875Ba0.125CuSeO,400,39831,0.00010749,,0.27789,0.0000251061,0.0004602114,
27931,10.1021/acs.cgd.8b00605,25595,3a,31865,1T-Perpendicular, Bi0.875Ba0.125CuSeO,450,37352,0.00011597,,0.36058,0.0000267723,0.0005023486,
27931,10.1021/acs.cgd.8b00605,25595,3a,31865,1T-Perpendicular, Bi0.875Ba0.125CuSeO,500,34872,0.00012444,,0.44327,0.0000286763,0.0005400039,
27931,10.1021/acs.cgd.8b00605,25595,3a,31865,1T-Perpendicular, Bi0.875Ba0.125CuSeO,550,32392,0.00013292,,0.52596,0.0000308718,0.000572293,
27931,10.1021/acs.cgd.8b00605,25595,3a,31865,1T-Perpendicular, Bi0.875Ba0.125CuSeO,600,29912,0.0001414,,0.60865,0.0000334314,0.0005980593,
27931,10.1021/acs.cgd.8b00605,25595,3a,31865,1T-Perpendicular, Bi0.875Ba0.125CuSeO,650,27433,0.00014988,,0.69134,0.0000364524,0.0006162553,
27931,10.1021/acs.cgd.8b00605,25595,3a,31865,1T-Perpendicular, Bi0.875Ba0.125CuSeO,700,24953,0.00015835,,0.77403,0.0000400753,0.0006256896,
27931,10.1021/acs.cgd.8b00605,25595,3a,31865,1T-Perpendicular, Bi0.875Ba0.125CuSeO,750,22473,0.00016683,,0.85672,0.0000444978,0.0006254741,
27931,10.1021/acs.cgd.8b00605,25595,3a,31865,1T-Perpendicular, Bi0.875Ba0.125CuSeO,800,19993,0.00017531,,0.93941,0.0000500175,0.0006144568,
27931,10.1021/acs.cgd.8b00605,25595,3a,31865,1T-Perpendicular, Bi0.875Ba0.125CuSeO,850,17514,0.00018379,,1.0221,0.0000570972,0.0005916013,
27931,10.1021/acs.cgd.8b00605,25595,3a,31865,1T-Perpendicular, Bi0.875Ba0.125CuSeO,900,15034,0.00019226,,1.1048,0.0000665159,0.0005557154,
27931,10.1021/acs.cgd.8b00605,25595,3a,31866,2T-Parallel, Bi0.875Ba0.125CuSeO,350,19846,0.00010046,0.67159,0.082228,0.000050388,0.00020029,0.0002982326
27931,10.1021/acs.cgd.8b00605,25595,3a,31866,2T-Parallel, Bi0.875Ba0.125CuSeO,400,18682,0.00010885,0.6438,0.1318,0.0000535275,0.0002213504,0.0003438185
27931,10.1021/acs.cgd.8b00605,25595,3a,31866,2T-Parallel, Bi0.875Ba0.125CuSeO,450,17518,0.00011724,0.61601,0.18137,0.0000570841,0.0002407887,0.0003908844
27931,10.1021/acs.cgd.8b00605,25595,3a,31866,2T-Parallel, Bi0.875Ba0.125CuSeO,500,16354,0.00012562,0.58822,0.23095,0.0000611471,0.0002580724,0.0004387345
27931,10.1021/acs.cgd.8b00605,25595,3a,31866,2T-Parallel, Bi0.875Ba0.125CuSeO,550,15190,0.00013401,0.56043,0.28052,0.0000658328,0.0002727924,0.0004867554
27931,10.1021/acs.cgd.8b00605,25595,3a,31866,2T-Parallel, Bi0.875Ba0.125CuSeO,600,14026,0.0001424,0.53264,0.33009,0.0000712962,0.0002844159,0.0005339739
27931,10.1021/acs.cgd.8b00605,25595,3a,31866,2T-Parallel, Bi0.875Ba0.125CuSeO,650,12862,0.00015079,0.50485,0.37966,0.0000777484,0.0002924513,0.0005792836
27931,10.1021/acs.cgd.8b00605,25595,3a,31866,2T-Parallel, Bi0.875Ba0.125CuSeO,700,11697,0.00015917,0.47706,0.42924,0.000085492,0.0002963445,0.0006211892
27931,10.1021/acs.cgd.8b00605,25595,3a,31866,2T-Parallel, Bi0.875Ba0.125CuSeO,750,10533,0.00016756,0.44927,0.47881,0.0000949397,0.0002957282,0.0006582417
27931,10.1021/acs.cgd.8b00605,25595,3a,31866,2T-Parallel, Bi0.875Ba0.125CuSeO,800,9369.2,0.00017595,0.42148,0.52838,0.0001067327,0.0002900555,0.0006881832
27931,10.1021/acs.cgd.8b00605,25595,3a,31866,2T-Parallel, Bi0.875Ba0.125CuSeO,850,8205,0.00018434,0.39368,0.57796,0.0001218769,0.000278816,0.0007082301
27931,10.1021/acs.cgd.8b00605,25595,3a,31866,2T-Parallel, Bi0.875Ba0.125CuSeO,900,7040.9,0.00019272,0.36589,0.62753,0.0001420273,0.0002615061,0.0007147122
27931,10.1021/acs.cgd.8b00605,25596,3c,31866,2T-Parallel, Bi0.875Ba0.125CuSeO,300,,0.000092074,0.69938,0.032655,,,
27931,10.1021/acs.cgd.8b00605,25595,3a,31867,2T-Perpendicular,Bi0.875Ba0.125CuSeO,350,47066,0.000096048,0.74712,0.19075,0.0000212468,0.0004341941,0.0005811571
27931,10.1021/acs.cgd.8b00605,25595,3a,31867,2T-Perpendicular,Bi0.875Ba0.125CuSeO,400,44368,0.00010638,0.72465,0.28131,0.0000225388,0.0005020995,0.0006928856
27931,10.1021/acs.cgd.8b00605,25595,3a,31867,2T-Perpendicular,Bi0.875Ba0.125CuSeO,450,41671,0.00011633,0.70219,0.37186,0.0000239975,0.0005639198,0.0008030873
27931,10.1021/acs.cgd.8b00605,25595,3a,31867,2T-Perpendicular,Bi0.875Ba0.125CuSeO,500,38973,0.00012589,0.67972,0.46242,0.0000256588,0.0006176555,0.0009086911
27931,10.1021/acs.cgd.8b00605,25595,3a,31867,2T-Perpendicular,Bi0.875Ba0.125CuSeO,550,36275,0.00013508,0.65726,0.55297,0.0000275672,0.0006618956,0.001007053
27931,10.1021/acs.cgd.8b00605,25595,3a,31867,2T-Perpendicular,Bi0.875Ba0.125CuSeO,600,33578,0.00014388,0.63479,0.64353,0.0000297814,0.0006951134,0.001095029
27931,10.1021/acs.cgd.8b00605,25595,3a,31867,2T-Perpendicular,Bi0.875Ba0.125CuSeO,650,30880,0.0001523,0.61233,0.73409,0.0000323834,0.0007162706,0.001169746
27931,10.1021/acs.cgd.8b00605,25595,3a,31867,2T-Perpendicular,Bi0.875Ba0.125CuSeO,700,28182,0.00016033,0.58986,0.82464,0.0000354836,0.0007244383,0.0012281529
27931,10.1021/acs.cgd.8b00605,25595,3a,31867,2T-Perpendicular,Bi0.875Ba0.125CuSeO,750,25484,0.00016799,0.56739,0.9152,0.0000392403,0.0007191748,0.001267514
27931,10.1021/acs.cgd.8b00605,25595,3a,31867,2T-Perpendicular,Bi0.875Ba0.125CuSeO,800,22787,0.00017526,0.54493,1.0058,0.0000438847,0.000699927,0.0012844348
27931,10.1021/acs.cgd.8b00605,25595,3a,31867,2T-Perpendicular,Bi0.875Ba0.125CuSeO,850,20089,0.00018215,0.52246,1.0963,0.0000497785,0.0006665253,0.0012757443
27931,10.1021/acs.cgd.8b00605,25595,3a,31867,2T-Perpendicular,Bi0.875Ba0.125CuSeO,900,17391,0.00018866,0.5,1.1869,0.000057501,0.0006189908,0.0012379817
27931,10.1021/acs.cgd.8b00605,25596,3c,31867,2T-Perpendicular,Bi0.875Ba0.125CuSeO,300,,0.000085334,,0.10019,,,