sid,DOI,figureid,fignum,sampleid,samplename,composition,Temperature,Carrier concentration,Carrier mobility,Electrical resistivity,Seebeck coefficient,Thermal conductivity,ZT,Electrical conductivity,Power factor,Figure of merit Z
16681,10.1073/pnas.1111419109,25545,3b,31798,Br-PbSe_ 7E18,Br-PbSe,350,,,0.0000091814,-0.00016008,1.6195,0.44738,108915.8516130438,0.0027910347,0.0017233929
16681,10.1073/pnas.1111419109,25545,3b,31798,Br-PbSe_ 7E18,Br-PbSe,400,,,0.000016896,-0.00017147,1.5436,0.47307,59185.6060606061,0.0017401729,0.001127347
16681,10.1073/pnas.1111419109,25545,3b,31798,Br-PbSe_ 7E18,Br-PbSe,450,,,0.00002461,-0.00018286,1.4678,0.49875,40633.8886631451,0.001358707,0.0009256759
16681,10.1073/pnas.1111419109,25545,3b,31798,Br-PbSe_ 7E18,Br-PbSe,500,,,0.000032324,-0.00019425,1.3919,0.52443,30936.7652518253,0.0011673389,0.0008386658
16681,10.1073/pnas.1111419109,25545,3b,31798,Br-PbSe_ 7E18,Br-PbSe,550,,,0.000040038,-0.00020564,1.3161,0.55011,24976.272541086,0.0010561919,0.0008025164
16681,10.1073/pnas.1111419109,25545,3b,31798,Br-PbSe_ 7E18,Br-PbSe,600,,,0.000047753,-0.00021703,1.2402,0.57579,20941.0927062174,0.0009863678,0.0007953296
16681,10.1073/pnas.1111419109,25545,3b,31798,Br-PbSe_ 7E18,Br-PbSe,650,,,0.000055467,-0.00022842,1.1644,0.60147,18028.7378080661,0.000940662,0.0008078512
16681,10.1073/pnas.1111419109,25545,3b,31798,Br-PbSe_ 7E18,Br-PbSe,700,,,0.000063181,-0.00023981,1.0885,0.62715,15827.5430904861,0.0009102236,0.0008362183
16681,10.1073/pnas.1111419109,25545,3b,31798,Br-PbSe_ 7E18,Br-PbSe,750,,,0.000070895,-0.00025119,1.0126,0.65284,14105.3670921786,0.0008899981,0.0008789237
16681,10.1073/pnas.1111419109,25545,3b,31798,Br-PbSe_ 7E18,Br-PbSe,800,,,0.00007861,-0.00026258,0.93679,0.67852,12721.027859051,0.0008770927,0.0009362746
16681,10.1073/pnas.1111419109,25545,3b,31798,Br-PbSe_ 7E18,Br-PbSe,850,,,0.000086324,,,0.7042,11584.2639358695,,
16681,10.1073/pnas.1111419109,25545,3b,31799,Br-PbSe_ 1E19,Br-PbSe,300,,,5.844e-7,,,,1711186.0230325637,,
16681,10.1073/pnas.1111419109,25545,3b,31799,Br-PbSe_ 1E19,Br-PbSe,350,,,0.000007059,-0.00013958,1.8064,0.39241,141663.1250885395,0.0027599627,0.0015278801
16681,10.1073/pnas.1111419109,25545,3b,31799,Br-PbSe_ 1E19,Br-PbSe,400,,,0.000013534,-0.00015263,1.7116,0.42972,73887.9858135067,0.0017212884,0.0010056604
16681,10.1073/pnas.1111419109,25545,3b,31799,Br-PbSe_ 1E19,Br-PbSe,450,,,0.000020008,-0.00016569,1.6167,0.46703,49980.0079968013,0.00137211,0.0008487103
16681,10.1073/pnas.1111419109,25545,3b,31799,Br-PbSe_ 1E19,Br-PbSe,500,,,0.000026483,-0.00017874,1.5219,0.50434,37760.0724993392,0.0012063583,0.000792666
16681,10.1073/pnas.1111419109,25545,3b,31799,Br-PbSe_ 1E19,Br-PbSe,550,,,0.000032957,-0.00019179,1.427,0.54164,30342.5675880693,0.0011161029,0.0007821324
16681,10.1073/pnas.1111419109,25545,3b,31799,Br-PbSe_ 1E19,Br-PbSe,600,,,0.000039432,-0.00020485,1.3322,0.57895,25360.113613309,0.0010641997,0.0007988288
16681,10.1073/pnas.1111419109,25545,3b,31799,Br-PbSe_ 1E19,Br-PbSe,650,,,0.000045907,-0.0002179,1.2374,0.61626,21783.1703226088,0.0010342739,0.0008358444
16681,10.1073/pnas.1111419109,25545,3b,31799,Br-PbSe_ 1E19,Br-PbSe,700,,,0.000052381,-0.00023095,1.1425,0.65357,19090.891735553,0.0010182681,0.0008912631
16681,10.1073/pnas.1111419109,25545,3b,31799,Br-PbSe_ 1E19,Br-PbSe,750,,,0.000058856,-0.00024401,1.0477,0.69087,16990.6211771102,0.0010116365,0.0009655784
16681,10.1073/pnas.1111419109,25545,3b,31799,Br-PbSe_ 1E19,Br-PbSe,800,,,0.00006533,-0.00025706,0.95284,0.72818,15306.9034134395,0.0010114778,0.00106154
16681,10.1073/pnas.1111419109,25545,3b,31799,Br-PbSe_ 1E19,Br-PbSe,850,,,0.000071805,,0.858,0.76549,13926.6067822575,,
16681,10.1073/pnas.1111419109,25545,3b,31800,Br-PbSe_ 2E19,Br-PbSe,300,,,-0.0000037981,,,0.27934,-263289.5395065954,,
16681,10.1073/pnas.1111419109,25545,3b,31800,Br-PbSe_ 2E19,Br-PbSe,350,,,4.403e-7,-0.00010614,2.2073,0.35041,2271024.0047237296,0.0255846742,0.0115909365
16681,10.1073/pnas.1111419109,25545,3b,31800,Br-PbSe_ 2E19,Br-PbSe,400,,,0.0000046788,-0.00012008,2.0702,0.42149,213730.0162434812,0.0030818172,0.0014886568
16681,10.1073/pnas.1111419109,25545,3b,31800,Br-PbSe_ 2E19,Br-PbSe,450,,,0.0000089172,-0.00013402,1.933,0.49257,112142.82510205,0.0020142377,0.0010420267
16681,10.1073/pnas.1111419109,25545,3b,31800,Br-PbSe_ 2E19,Br-PbSe,500,,,0.000013156,-0.00014796,1.7959,0.56364,76010.945576163,0.0016640439,0.0009265794
16681,10.1073/pnas.1111419109,25545,3b,31800,Br-PbSe_ 2E19,Br-PbSe,550,,,0.000017394,-0.0001619,1.6587,0.63472,57491.0888812234,0.001506934,0.000908503
16681,10.1073/pnas.1111419109,25545,3b,31800,Br-PbSe_ 2E19,Br-PbSe,600,,,0.000021632,-0.00017584,1.5216,0.70579,46227.8106508876,0.0014293503,0.0009393732
16681,10.1073/pnas.1111419109,25545,3b,31800,Br-PbSe_ 2E19,Br-PbSe,650,,,0.000025871,-0.00018978,1.3844,0.77687,38653.3183873836,0.0013921552,0.0010056019
16681,10.1073/pnas.1111419109,25545,3b,31800,Br-PbSe_ 2E19,Br-PbSe,700,,,0.000030109,-0.00020373,1.2473,0.84794,33212.660666246,0.0013785218,0.0011052047
16681,10.1073/pnas.1111419109,25545,3b,31800,Br-PbSe_ 2E19,Br-PbSe,750,,,0.000034348,-0.00021767,1.1101,0.91902,29113.7766391056,0.0013794174,0.0012426064
16681,10.1073/pnas.1111419109,25545,3b,31800,Br-PbSe_ 2E19,Br-PbSe,800,,,0.000038586,-0.00023161,0.97296,0.99009,25916.1353858913,0.0013902242,0.0014288606
16681,10.1073/pnas.1111419109,25545,3b,31800,Br-PbSe_ 2E19,Br-PbSe,850,,,0.000042825,,,1.0612,23350.8464681845,,
16681,10.1073/pnas.1111419109,25545,3b,31801,Br-PbSe_ 3E19,Br-PbSe,300,,,-0.0000014732,,,,-678794.461037198,,
16681,10.1073/pnas.1111419109,25545,3b,31801,Br-PbSe_ 3E19,Br-PbSe,350,,,8.584e-7,-0.000070704,2.7274,0.16251,1164890.2090977926,0.0058233509,0.002135129
16681,10.1073/pnas.1111419109,25545,3b,31801,Br-PbSe_ 3E19,Br-PbSe,400,,,0.0000031901,-0.000087396,2.5437,0.26251,313469.7971850412,0.0023943014,0.0009412672
16681,10.1073/pnas.1111419109,25545,3b,31801,Br-PbSe_ 3E19,Br-PbSe,450,,,0.0000055218,-0.00010341,2.36,0.36251,181100.365822739,0.00193662,0.0008206017
16681,10.1073/pnas.1111419109,25545,3b,31801,Br-PbSe_ 3E19,Br-PbSe,500,,,0.0000078535,-0.00011873,2.1762,0.46251,127331.7629082575,0.001794972,0.0008248194
16681,10.1073/pnas.1111419109,25545,3b,31801,Br-PbSe_ 3E19,Br-PbSe,550,,,0.000010185,-0.00013337,1.9925,0.56251,98183.6033382425,0.0017464464,0.0008765101
16681,10.1073/pnas.1111419109,25545,3b,31801,Br-PbSe_ 3E19,Br-PbSe,600,,,0.000012517,-0.00014734,1.8087,0.66251,79891.3477670368,0.0017343673,0.0009589027
16681,10.1073/pnas.1111419109,25545,3b,31801,Br-PbSe_ 3E19,Br-PbSe,650,,,0.000014849,-0.00016061,1.625,0.76251,67344.6023301232,0.0017371925,0.0010690416
16681,10.1073/pnas.1111419109,25545,3b,31801,Br-PbSe_ 3E19,Br-PbSe,700,,,0.00001718,-0.00017321,1.4413,0.86251,58207.2176949942,0.0017463157,0.0012116254
16681,10.1073/pnas.1111419109,25545,3b,31801,Br-PbSe_ 3E19,Br-PbSe,750,,,0.000019512,-0.00018512,1.2575,0.96251,51250.5125051251,0.0017563251,0.00139668
16681,10.1073/pnas.1111419109,25545,3b,31801,Br-PbSe_ 3E19,Br-PbSe,800,,,0.000021844,-0.00019635,1.0738,1.0625,45779.1613257645,0.0017649388,0.0016436383
16681,10.1073/pnas.1111419109,25545,3b,31801,Br-PbSe_ 3E19,Br-PbSe,850,,,0.000024175,-0.0002069,0.89007,1.1625,41365.0465356773,0.0017707388,0.0019894377
16681,10.1073/pnas.1111419109,25545,3b,31802,Br-PbSe_ 4E19,Br-PbSe,350,,,0.000003508,-0.000069428,3.05,0.15722,285062.7137970353,0.0013740727,0.0004505157
16681,10.1073/pnas.1111419109,25545,3b,31802,Br-PbSe_ 4E19,Br-PbSe,400,,,0.0000042111,-0.000082095,2.8387,0.24785,237467.6450333642,0.0016004343,0.0005637913
16681,10.1073/pnas.1111419109,25545,3b,31802,Br-PbSe_ 4E19,Br-PbSe,450,,,0.0000052265,-0.000094762,2.6274,0.33848,191332.6317803501,0.0017181358,0.00065393
16681,10.1073/pnas.1111419109,25545,3b,31802,Br-PbSe_ 4E19,Br-PbSe,500,,,0.0000065543,-0.00010743,2.4161,0.42911,152571.594220588,0.00176086,0.0007288026
16681,10.1073/pnas.1111419109,25545,3b,31802,Br-PbSe_ 4E19,Br-PbSe,550,,,0.0000081945,-0.0001201,2.2048,0.51974,122033.0709622308,0.0017602062,0.0007983519
16681,10.1073/pnas.1111419109,25545,3b,31802,Br-PbSe_ 4E19,Br-PbSe,600,,,0.000010147,-0.00013276,1.9934,0.61036,98551.2959495417,0.001736988,0.0008713695
16681,10.1073/pnas.1111419109,25545,3b,31802,Br-PbSe_ 4E19,Br-PbSe,650,,,0.000012412,-0.00014543,1.7821,0.70099,80567.1930389945,0.0017039869,0.0009561679
16681,10.1073/pnas.1111419109,25545,3b,31802,Br-PbSe_ 4E19,Br-PbSe,700,,,0.000014989,-0.0001581,1.5708,0.79162,66715.5914337181,0.0016675969,0.0010616227
16681,10.1073/pnas.1111419109,25545,3b,31802,Br-PbSe_ 4E19,Br-PbSe,750,,,0.000017879,-0.00017076,1.3595,0.88225,55931.5397952906,0.0016309065,0.001199637
16681,10.1073/pnas.1111419109,25545,3b,31802,Br-PbSe_ 4E19,Br-PbSe,800,,,0.000021081,-0.00018343,1.1482,0.97288,47436.0798823585,0.0015960611,0.001390055
16681,10.1073/pnas.1111419109,25545,3b,31802,Br-PbSe_ 4E19,Br-PbSe,850,,,0.000024596,,,1.0635,40657.0174012034,,
16681,10.1073/pnas.1111419109,25547,4a,31802,Br-PbSe_ 4E19,Br-PbSe,300,,,,,,0.066594,,,
16681,10.1073/pnas.1111419109,25545,3b,31803,Br-PbSe_ 5E19,Br-PbSe,350,,,0.0000018903,-0.000059279,3.2345,0.10644,529016.5582182723,0.0018589641,0.00057473
16681,10.1073/pnas.1111419109,25545,3b,31803,Br-PbSe_ 5E19,Br-PbSe,400,,,0.0000034816,-0.000070742,3.0133,0.1888,287224.2647058823,0.0014373939,0.0004770165
16681,10.1073/pnas.1111419109,25545,3b,31803,Br-PbSe_ 5E19,Br-PbSe,450,,,0.000005073,-0.000082205,2.7921,0.27117,197122.0185294697,0.001332084,0.0004770904
16681,10.1073/pnas.1111419109,25545,3b,31803,Br-PbSe_ 5E19,Br-PbSe,500,,,0.0000066643,-0.000093669,2.571,0.35354,150053.2689104632,0.0013165496,0.0005120769
16681,10.1073/pnas.1111419109,25545,3b,31803,Br-PbSe_ 5E19,Br-PbSe,550,,,0.0000082556,-0.00010513,2.3498,0.4359,121129.8997044431,0.001338766,0.0005697362
16681,10.1073/pnas.1111419109,25545,3b,31803,Br-PbSe_ 5E19,Br-PbSe,600,,,0.000009847,-0.00011659,2.1286,0.51827,101553.7727226566,0.0013804436,0.0006485218
16681,10.1073/pnas.1111419109,25545,3b,31803,Br-PbSe_ 5E19,Br-PbSe,650,,,0.000011438,-0.00012806,1.9074,0.60063,87427.8720055954,0.0014337615,0.0007516837
16681,10.1073/pnas.1111419109,25545,3b,31803,Br-PbSe_ 5E19,Br-PbSe,700,,,0.00001303,-0.00013952,1.6862,0.683,76745.9708365311,0.0014939241,0.0008859709
16681,10.1073/pnas.1111419109,25545,3b,31803,Br-PbSe_ 5E19,Br-PbSe,750,,,0.000014621,-0.00015098,1.465,0.76537,68394.7746392176,0.0015590562,0.0010642022
16681,10.1073/pnas.1111419109,25545,3b,31803,Br-PbSe_ 5E19,Br-PbSe,800,,,0.000016212,-0.00016245,1.2438,0.84773,61682.7041697508,0.0016278067,0.0013087367
16681,10.1073/pnas.1111419109,25546,3c,31803,Br-PbSe_ 5E19,Br-PbSe,850,,,,-0.00017391,1.0227,0.9301,,,
16681,10.1073/pnas.1111419109,25545,3b,31804,Br-PbSe_ 6E19,Br-PbSe,300,,,0.0000021269,,,,470167.8499224223,,
16681,10.1073/pnas.1111419109,25545,3b,31804,Br-PbSe_ 6E19,Br-PbSe,350,,,0.0000024365,-0.00004508,3.6664,0.065055,410424.7896572953,0.0008340679,0.0002274896
16681,10.1073/pnas.1111419109,25545,3b,31804,Br-PbSe_ 6E19,Br-PbSe,400,,,0.0000029363,-0.000056126,3.4178,0.14243,340564.6561999795,0.0010728222,0.0003138926
16681,10.1073/pnas.1111419109,25545,3b,31804,Br-PbSe_ 6E19,Br-PbSe,450,,,0.0000036263,-0.000068814,3.1692,0.21981,275763.1745856658,0.0013058397,0.0004120408
16681,10.1073/pnas.1111419109,25545,3b,31804,Br-PbSe_ 6E19,Br-PbSe,500,,,0.0000045065,-0.000081237,2.9206,0.29719,221901.6975479862,0.0014644292,0.0005014138
16681,10.1073/pnas.1111419109,25545,3b,31804,Br-PbSe_ 6E19,Br-PbSe,550,,,0.0000055768,-0.000092703,2.672,0.37456,179314.3021087362,0.0015409995,0.0005767214
16681,10.1073/pnas.1111419109,25545,3b,31804,Br-PbSe_ 6E19,Br-PbSe,600,,,0.0000068374,-0.00010335,2.4234,0.45194,146254.4241963319,0.001562176,0.0006446216
16681,10.1073/pnas.1111419109,25545,3b,31804,Br-PbSe_ 6E19,Br-PbSe,650,,,0.000008288,-0.00011375,2.1749,0.52932,120656.3706563707,0.0015611803,0.0007178171
16681,10.1073/pnas.1111419109,25545,3b,31804,Br-PbSe_ 6E19,Br-PbSe,700,,,0.0000099289,-0.00012453,1.9263,0.60669,100716.0914099246,0.001561877,0.0008108171
16681,10.1073/pnas.1111419109,25545,3b,31804,Br-PbSe_ 6E19,Br-PbSe,750,,,0.00001176,-0.000136,1.6777,0.68407,85034.0136054422,0.0015727891,0.0009374674
16681,10.1073/pnas.1111419109,25545,3b,31804,Br-PbSe_ 6E19,Br-PbSe,800,,,0.000013781,-0.00014773,1.4291,0.76145,72563.674624483,0.0015836407,0.0011081385
16681,10.1073/pnas.1111419109,25545,3b,31804,Br-PbSe_ 6E19,Br-PbSe,850,,,0.000015993,-0.00015821,,0.83883,62527.3557181267,0.001565085,
16681,10.1073/pnas.1111419109,26679,5b,33461,n-type PbSe,Pbse,,5e+24,0.12404,,,,,,,
16681,10.1073/pnas.1111419109,26679,5b,33461,n-type PbSe,Pbse,,1e+25,0.1165,,0.000096456,,,,,
16681,10.1073/pnas.1111419109,26679,5b,33461,n-type PbSe,Pbse,,1.5e+25,0.10896,,0.00008834,,,,,
16681,10.1073/pnas.1111419109,26679,5b,33461,n-type PbSe,Pbse,,2e+25,0.10142,,0.000080225,,,,,
16681,10.1073/pnas.1111419109,26679,5b,33461,n-type PbSe,Pbse,,2.5e+25,0.093881,,0.000072109,,,,,
16681,10.1073/pnas.1111419109,26679,5b,33461,n-type PbSe,Pbse,,3e+25,0.08634,,0.000063993,,,,,
16681,10.1073/pnas.1111419109,26679,5b,33461,n-type PbSe,Pbse,,3.5e+25,0.078799,,0.000055877,,,,,
16681,10.1073/pnas.1111419109,26679,5b,33461,n-type PbSe,Pbse,,4e+25,0.071259,,0.000047762,,,,,
16681,10.1073/pnas.1111419109,26679,5b,33461,n-type PbSe,Pbse,,4.5e+25,0.063718,,0.000039646,,,,,
16681,10.1073/pnas.1111419109,26679,5b,33461,n-type PbSe,Pbse,,5e+25,0.056177,,0.00003153,,,,,
16681,10.1073/pnas.1111419109,26679,5b,33461,n-type PbSe,Pbse,,5.5e+25,0.048637,,0.000023414,,,,,
16681,10.1073/pnas.1111419109,26679,5b,33462,p-type PbSe,PbSe,,5e+24,0.06769,,,,,,,
16681,10.1073/pnas.1111419109,26679,5b,33462,p-type PbSe,PbSe,,1e+25,0.06364,,0.00010387,,,,,
16681,10.1073/pnas.1111419109,26679,5b,33462,p-type PbSe,PbSe,,1.5e+25,0.05959,,0.000098394,,,,,
16681,10.1073/pnas.1111419109,26679,5b,33462,p-type PbSe,PbSe,,2e+25,0.05554,,0.00009292,,,,,
16681,10.1073/pnas.1111419109,26679,5b,33462,p-type PbSe,PbSe,,2.5e+25,0.051489,,0.000087446,,,,,
16681,10.1073/pnas.1111419109,26679,5b,33462,p-type PbSe,PbSe,,3e+25,0.047439,,0.000081972,,,,,
16681,10.1073/pnas.1111419109,26679,5b,33462,p-type PbSe,PbSe,,3.5e+25,0.043389,,0.000076498,,,,,
16681,10.1073/pnas.1111419109,26679,5b,33462,p-type PbSe,PbSe,,4e+25,0.039339,,0.000071023,,,,,
16681,10.1073/pnas.1111419109,26679,5b,33462,p-type PbSe,PbSe,,4.5e+25,0.035288,,0.000065549,,,,,
16681,10.1073/pnas.1111419109,26679,5b,33462,p-type PbSe,PbSe,,5e+25,0.031238,,0.000060075,,,,,
16681,10.1073/pnas.1111419109,26679,5b,33462,p-type PbSe,PbSe,,5.5e+25,0.027188,,0.000054601,,,,,
16681,10.1073/pnas.1111419109,26679,5b,33462,p-type PbSe,PbSe,,6e+25,0.023137,,0.000049127,,,,,
16681,10.1073/pnas.1111419109,26679,5b,33462,p-type PbSe,PbSe,,6.5e+25,0.019087,,0.000043653,,,,,
16681,10.1073/pnas.1111419109,26680,5a,33462,p-type PbSe,PbSe,,7e+25,,,0.000038179,,,,,
16681,10.1073/pnas.1111419109,26680,5a,33462,p-type PbSe,PbSe,,7.5e+25,,,0.000032705,,,,,
16681,10.1073/pnas.1111419109,26680,5a,33462,p-type PbSe,PbSe,,8e+25,,,0.00002723,,,,,
16681,10.1073/pnas.1111419109,26680,5a,33462,p-type PbSe,PbSe,,8.5e+25,,,0.000021756,,,,,
16681,10.1073/pnas.1111419109,26680,5a,33462,p-type PbSe,PbSe,,9e+25,,,0.000016282,,,,,